Title
82260
    1SAPS     N    1   0.380   1.561  10.795  0.1701 -0.0949  0.0054
    1SAPS   HN1    2   0.434   1.487  10.846  0.3904 -0.9335 -1.4162
    1SAPS   HN2    3   0.322   1.534  10.713 -0.8681  1.0522  0.3521
    1SAPS   HN3    4   0.452   1.630  10.763 -1.9188  2.1382  0.0199
    1SAPS   C12    5   0.276   1.615  10.886 -0.0876  0.5384  0.1615
    1SAPS  H12A    6   0.215   1.528  10.899  1.4657 -0.6785 -0.4975
    1SAPS   C13    7   0.336   1.659  11.018 -0.1556  0.2605 -0.1429
    1SAPS  O13A    8   0.455   1.626  11.045  0.0778  0.5717 -0.3677
    1SAPS  O13B    9   0.268   1.723  11.104  0.5328 -0.4368 -0.3480
    1SAPS   C11   10   0.195   1.718  10.811 -0.1833  0.0428  0.2128
    1SAPS  H11A   11   0.168   1.694  10.706  2.0392  0.4756 -0.4854
    1SAPS  H11B   12   0.249   1.815  10.803 -0.6099  0.1967 -0.8024
    1SAPS     P   13  -0.052   1.651  10.876 -0.0735  0.0861 -0.1289
    1SAPS   O13   14  -0.041   1.553  10.987 -0.2395  0.1417 -0.5085
    1SAPS   O14   15  -0.169   1.739  10.879 -0.5469  0.6333 -0.2914
    1SAPS   O12   16   0.073   1.748  10.881  0.0669  0.2403 -0.8277
    1SAPS   O11   17  -0.029   1.584  10.735  0.1669  0.4939  0.3303
    1SAPS    C1   18  -0.143   1.560  10.655 -0.0769  0.6542  0.0481
    1SAPS    HA   19  -0.185   1.460  10.680 -1.1213  1.0607 -0.0585
    1SAPS    HB   20  -0.224   1.636  10.660 -0.1937  0.6133 -1.1881
    1SAPS    C2   21  -0.119   1.558  10.497 -0.0865  0.3069  0.2727
    1SAPS    HS   22  -0.215   1.589  10.451  1.3215  1.0460 -2.2643
    1SAPS   O21   23  -0.073   1.431  10.454 -0.2299  0.3523 -0.3629
    1SAPS   C21   24  -0.153   1.325  10.454  0.4259  0.2066 -0.0126
    1SAPS   O22   25  -0.272   1.326  10.477 -0.1601 -1.0579 -0.0749
    1SAPS   C22   26  -0.071   1.195  10.417  0.0306 -0.2730  0.5069
    1SAPS   H2R   27  -0.047   1.137  10.509  1.0196 -2.1711 -0.9111
    1SAPS   H2S   28  -0.149   1.134  10.367  0.4516 -0.8420  0.5342
    1SAPS    C3   29  -0.016   1.668  10.453 -0.2325  0.6036  0.3997
    1SAPS    HX   30   0.077   1.645  10.510 -0.1690  0.6025  0.2938
    1SAPS    HY   31  -0.047   1.761  10.505  1.4704  0.4541  1.7509
    1SAPS   O31   32  -0.018   1.680  10.309 -0.2503  0.2651 -0.1397
    1SAPS   C31   33   0.077   1.619  10.245  0.3026 -0.0443 -0.5083
    1SAPS   O32   34   0.161   1.545  10.297 -0.1223 -0.2692  0.3797
    1SAPS   C32   35   0.071   1.653  10.100  0.1365  0.1407 -0.3325
    1SAPS   H2X   36   0.069   1.764  10.091 -0.2841  0.0507 -1.5122
    1SAPS   H2Y   37  -0.027   1.615  10.063  0.4469 -3.3797  2.2540
    1SAPS   C23   38   0.048   1.218  10.323  0.0562  0.1282  0.5092
    1SAPS   H3R   39   0.131   1.268  10.378  0.9602 -0.7253 -0.0534
    1SAPS   H3S   40   0.024   1.294  10.246  0.8692  0.8296  0.9319
    1SAPS   C24   41   0.092   1.084  10.265  0.0623  0.2432  0.4853
    1SAPS   H4R   42   0.168   1.107  10.187 -1.0545  0.0160 -0.6908
    1SAPS   H4S   43   0.008   1.040  10.207  0.8180 -2.0007  1.0063
    1SAPS   C25   44   0.142   0.977  10.362  0.1323  0.6333 -0.1379
    1SAPS   H5R   45   0.065   0.914  10.408 -1.7856  1.8496 -1.6005
    1SAPS   C26   46   0.270   0.971  10.413 -0.5222  0.1901  0.0806
    1SAPS   H6R   47   0.303   0.891  10.481  0.7833  0.5757 -0.0931
    1SAPS   C27   48   0.385   1.047  10.363 -0.3651 -0.4424  1.0152
    1SAPS   H7R   49   0.359   1.147  10.403  0.0197  0.0928 -0.0532
    1SAPS   H7S   50   0.375   1.063  10.254  2.2066  0.4985  0.8886
    1SAPS   C28   51   0.534   1.023  10.390  0.3735  0.1628 -0.2011
    1SAPS   H8R   52   0.577   1.095  10.461  0.6957 -0.3198  0.1046
    1SAPS   C29   53   0.619   0.927  10.347 -0.0978  0.6262 -0.0202
    1SAPS   H9R   54   0.716   0.916  10.398  0.0033 -3.7004 -0.9425
    1SAPS  C210   55   0.582   0.818  10.249  0.9109 -0.1291  0.8803
    1SAPS  H10R   56   0.473   0.814  10.227  1.5015  0.7078 -2.5139
    1SAPS  H10S   57   0.604   0.712  10.274  2.2434 -0.0302  0.1679
    1SAPS  C211   58   0.660   0.851  10.125  0.7412  0.0074 -0.1474
    1SAPS  H11R   59   0.762   0.892  10.134  1.8858 -2.7241 -0.3007
    1SAPS  C212   60   0.609   0.836   9.997  0.4001  0.6954  0.6635
    1SAPS  H12R   61   0.667   0.856   9.906 -0.5247  1.5633  0.2558
    1SAPS  C213   62   0.472   0.792   9.954  0.2289 -0.0508  0.0449
    1SAPS  H13R   63   0.412   0.736  10.030 -1.0766  0.7910 -0.3549
    1SAPS  H13S   64   0.492   0.720   9.872  1.0765  2.4493 -2.0060
    1SAPS  C214   65   0.385   0.912   9.919 -0.2802  0.4115 -0.5707
    1SAPS  H14R   66   0.375   0.974  10.009  0.4325  0.4938 -0.5428
    1SAPS  C215   67   0.346   0.950   9.799  0.1198 -0.4593  0.1876
    1SAPS  H15R   68   0.292   1.044   9.785  4.4440  2.1470  0.1868
    1SAPS  C216   69   0.376   0.879   9.669  0.9185 -0.5107 -0.0141
    1SAPS  H16R   70   0.458   0.807   9.686  0.0754 -2.4093 -3.4281
    1SAPS  H16S   71   0.417   0.951   9.595  2.7405  0.2703  1.7119
    1SAPS  C217   72   0.244   0.825   9.609  0.1821  0.6689  0.3328
    1SAPS  H17R   73   0.184   0.911   9.574  1.1007  1.5066  0.7934
    1SAPS  H17S   74   0.179   0.760   9.672 -0.6930  0.4793 -0.7489
    1SAPS  C218   75   0.290   0.726   9.497  0.1206 -0.1903 -0.1123
    1SAPS  H18R   76   0.331   0.636   9.546 -1.0332 -0.3475  0.5704
    1SAPS  H18S   77   0.371   0.769   9.433 -1.5347 -1.4406 -3.1713
    1SAPS  C219   78   0.160   0.697   9.419  1.0446  0.0430  0.5204
    1SAPS  H19R   79   0.076   0.666   9.485 -0.7810  0.7917 -1.3720
    1SAPS  H19S   80   0.188   0.614   9.352 -0.8300 -0.1095 -0.1101
    1SAPS  C220   81   0.109   0.793   9.321 -0.3753  0.3517 -0.3453
    1SAPS  H20R   82   0.026   0.743   9.265 -1.5242  0.5407  1.1657
    1SAPS  H20S   83   0.191   0.838   9.261  1.1429 -1.3509  0.4181
    1SAPS  H20T   84   0.051   0.875   9.368  0.3581  0.4560  0.3764
    1SAPS   C33   85   0.177   1.599  10.013  0.0562 -0.1669 -0.2235
    1SAPS   H3X   86   0.187   1.489  10.023 -1.7095 -0.2796  0.4602
    1SAPS   H3Y   87   0.276   1.638  10.044 -1.0010  3.3529 -0.9478
    1SAPS   C34   88   0.174   1.645   9.863  0.0692  0.2873 -0.8096
    1SAPS   H4X   89   0.177   1.756   9.853  2.7035  0.1076 -2.6184
    1SAPS   H4Y   90   0.077   1.616   9.819 -0.3018  0.8212 -0.3486
    1SAPS   C35   91   0.284   1.572   9.783 -0.8266 -0.1510  0.8810
    1SAPS   H5X   92   0.268   1.463   9.800  1.8220 -1.2127 -2.8922
    1SAPS   H5Y   93   0.378   1.601   9.835 -0.1789 -2.3852  1.0196
    1SAPS   C36   94   0.296   1.589   9.629  0.9629  0.6157 -0.4301
    1SAPS   H6X   95   0.317   1.696   9.608  0.5860  0.6984 -0.3951
    1SAPS   H6Y   96   0.201   1.561   9.578 -0.4212 -1.2590  2.9892
    1SAPS   C37   97   0.419   1.502   9.588 -0.3327  0.1864 -0.4123
    1SAPS   H7X   98   0.408   1.393   9.607  0.3049  0.4554  1.6321
    1SAPS   H7Y   99   0.510   1.526   9.647  0.6903 -0.0921 -1.8463
    1SAPS   C38  100   0.452   1.518   9.439  0.2147  0.1717 -0.1398
    1SAPS   H8X  101   0.370   1.467   9.384  0.1809 -2.1245  1.9331
    1SAPS   H8Y  102   0.540   1.453   9.422 -0.7454 -1.3750  0.7102
    1SAPS   C39  103   0.462   1.665   9.390 -0.0294 -0.1091  0.3655
    1SAPS   H9X  104   0.521   1.714   9.470  0.0803 -1.7608  1.3319
    1SAPS   H9Y  105   0.368   1.723   9.379 -0.1558 -0.7058 -2.1035
    1SAPS  C310  106   0.520   1.694   9.249  0.1710  0.3473  0.2768
    1SAPS  H10X  107   0.625   1.660   9.248  0.0101 -0.2026  1.7253
    1SAPS  H10Y  108   0.512   1.805   9.240 -1.8703  0.2751  0.8986
    1SAPS  C311  109   0.458   1.616   9.135 -0.4686  0.5962  0.0536
    1SAPS  H11X  110   0.349   1.638   9.132 -0.4638  0.6220  0.0678
    1SAPS  H11Y  111   0.459   1.506   9.147 -4.1632  0.5858  1.1692
    1SAPS  C312  112   0.530   1.665   9.014  0.1550 -0.7503  0.2376
    1SAPS  H12X  113   0.635   1.629   9.016  0.5411  0.3731  0.2178
    1SAPS  H12Y  114   0.535   1.776   9.012 -0.9769 -0.6868  0.3721
    1SAPS  C313  115   0.459   1.620   8.883 -0.5436 -0.3403  0.2627
    1SAPS  H13X  116   0.448   1.510   8.889  2.1800 -0.7339 -1.1111
    1SAPS  H13Y  117   0.543   1.640   8.813 -0.6782  1.0815  0.4861
    1SAPS  C314  118   0.328   1.701   8.848 -0.2388 -0.3855  0.1004
    1SAPS  H14X  119   0.358   1.806   8.831  0.7488 -0.4099  1.5554
    1SAPS  H14Y  120   0.262   1.693   8.937  0.6107 -1.2475  0.6632
    1SAPS  C315  121   0.256   1.652   8.722 -0.1621  0.0019 -0.8394
    1SAPS  H15X  122   0.320   1.661   8.631 -1.0559  2.1812 -1.2904
    1SAPS  H15Y  123   0.176   1.727   8.702 -0.8865  0.3253  2.9382
    1SAPS  C316  124   0.189   1.513   8.740 -0.7711 -0.3202 -0.4314
    1SAPS  H16X  125   0.101   1.517   8.808  0.9477  0.5457  1.7959
    1SAPS  H16Y  126   0.266   1.438   8.768 -0.1263  1.3165  2.4461
    1SAPS  C317  127   0.117   1.464   8.606  0.7897 -0.1556 -0.2879
    1SAPS  H17X  128   0.122   1.353   8.616  0.1663 -0.0985  0.7898
    1SAPS  H17Y  129   0.175   1.495   8.517  0.0585 -1.0099 -1.0696
    1SAPS  C318  130  -0.027   1.510   8.582 -0.0192 -0.0396 -0.1464
    1SAPS  H18X  131  -0.038   1.620   8.575 -3.6142 -0.3926 -0.8037
    1SAPS  H18Y  132  -0.086   1.488   8.673  1.3200  2.3906  1.3639
    1SAPS  H18Z  133  -0.078   1.478   8.489 -3.3868  3.2345  0.4714
    2SAPS     N  134   5.182   1.426  11.049 -0.4402 -0.1769 -0.8083
    2SAPS   HN1  135   5.206   1.326  11.035 -0.5703 -0.4560  0.8745
    2SAPS   HN2  136   5.262   1.467  10.996 -2.2295  3.3341 -0.9737
    2SAPS   HN3  137   5.189   1.454  11.149  0.9161  0.0447 -0.9453
    2SAPS   C12  138   5.051   1.464  10.995 -0.5091  0.5854  0.4825
    2SAPS  H12A  139   4.982   1.406  11.054  0.4614 -2.7032 -1.4998
    2SAPS   C13  140   5.009   1.606  11.015  0.1931  0.0747  0.0921
    2SAPS  O13A  141   5.100   1.681  11.061 -0.1044  0.3774  0.2722
    2SAPS  O13B  142   4.905   1.649  10.972 -0.3309  0.0322 -0.5993
    2SAPS   C11  143   5.047   1.417  10.846  0.0174  0.6947  0.2614
    2SAPS  H11A  144   5.087   1.503  10.788  0.4357  0.3270  0.0018
    2SAPS  H11B  145   4.941   1.395  10.823  0.2079  1.2568 -1.2252
    2SAPS     P  146   5.147   1.245  10.673  0.0695  0.0522  0.5326
    2SAPS   O13  147   5.290   1.206  10.662 -0.0019 -0.0699 -0.0106
    2SAPS   O14  148   5.056   1.130  10.651 -0.2964 -0.0146 -0.1693
    2SAPS   O12  149   5.125   1.304  10.814  0.1613 -0.3187 -0.0782
    2SAPS   O11  150   5.112   1.363  10.568  0.3966  0.0833 -0.1582
    2SAPS    C1  151   5.211   1.464  10.539 -0.1974  0.4073  0.2324
    2SAPS    HA  152   5.193   1.562  10.590 -5.1467 -0.0661 -0.2972
    2SAPS    HB  153   5.315   1.433  10.562  0.4965 -0.2142 -3.5347
    2SAPS    C2  154   5.192   1.507  10.393 -0.1070 -0.4814 -0.4875
    2SAPS    HS  155   5.289   1.542  10.352  0.4197 -1.2323  0.1150
    2SAPS   O21  156   5.096   1.619  10.382 -0.6228  0.4480  0.0725
    2SAPS   C21  157   5.129   1.713  10.285 -0.8409  0.1839 -0.6066
    2SAPS   O22  158   5.237   1.735  10.232 -0.9650 -0.3405  0.3136
    2SAPS   C22  159   5.018   1.818  10.287  0.6426 -0.5031  0.1917
    2SAPS   H2R  160   4.926   1.773  10.244  1.0764 -0.3087 -0.9686
    2SAPS   H2S  161   5.009   1.852  10.392  1.1080 -2.2395  0.8083
    2SAPS    C3  162   5.146   1.389  10.298  0.3990  0.2023 -0.0345
    2SAPS    HX  163   5.044   1.363  10.335 -0.0562 -1.2843 -2.2763
    2SAPS    HY  164   5.194   1.291  10.318  1.3120  0.8189  0.8737
    2SAPS   O31  165   5.144   1.432  10.158  0.0537 -0.0804 -0.1017
    2SAPS   C31  166   5.246   1.396  10.089 -0.7333 -0.5452  0.5161
    2SAPS   O32  167   5.341   1.329  10.125 -0.7932 -0.4348 -0.1673
    2SAPS   C32  168   5.225   1.424   9.939  0.3277  0.6761  0.0667
    2SAPS   H2X  169   5.213   1.534   9.922 -1.6224  0.5879  0.6748
    2SAPS   H2Y  170   5.128   1.381   9.905  0.1014  2.2101 -1.3123
    2SAPS   C23  171   5.063   1.951  10.216  0.1620 -0.1004 -0.5415
    2SAPS   H3R  172   5.165   1.988  10.239  0.2634 -0.3925 -0.5243
    2SAPS   H3S  173   5.000   2.039  10.244 -0.9553 -0.7365 -1.0011
    2SAPS   C24  174   5.066   1.935  10.060  0.3391  0.6038  0.3146
    2SAPS   H4R  175   5.128   1.844  10.046  1.0066  0.9813  0.8037
    2SAPS   H4S  176   5.109   2.022  10.006  1.4049 -0.3618 -0.4108
    2SAPS   C25  177   4.936   1.899  10.001 -0.1310  0.1591  0.8409
    2SAPS   H5R  178   4.850   1.936  10.058 -0.4747 -1.6680  1.5356
    2SAPS   C26  179   4.913   1.833   9.887  0.4883 -0.3335 -0.2670
    2SAPS   H6R  180   4.807   1.812   9.865 -0.0828  0.2777  1.8171
    2SAPS   C27  181   5.011   1.776   9.794  0.5164 -0.0657 -0.3290
    2SAPS   H7R  182   4.987   1.673   9.758 -2.1213  0.3712  0.0521
    2SAPS   H7S  183   5.105   1.754   9.850  0.5654  0.8669 -0.0333
    2SAPS   C28  184   5.051   1.888   9.699 -0.2544  0.9280 -0.3247
    2SAPS   H8R  185   5.078   1.978   9.757  0.9671  0.2128  0.2424
    2SAPS   C29  186   5.064   1.887   9.564  0.8791 -0.3143 -0.3426
    2SAPS   H9R  187   5.090   1.977   9.505 -1.8750 -0.1411 -1.3778
    2SAPS  C210  188   5.033   1.769   9.476 -0.0474 -0.0439  0.1857
    2SAPS  H10R  189   4.957   1.801   9.401  0.2396  0.4179  0.0850
    2SAPS  H10S  190   4.979   1.695   9.539 -3.2482  0.6650 -1.6190
    2SAPS  C211  191   5.159   1.717   9.409 -0.1661  0.2625  0.1026
    2SAPS  H11R  192   5.246   1.694   9.474  1.0679  3.7640 -0.2082
    2SAPS  C212  193   5.180   1.690   9.278 -0.3020 -0.1871  0.7068
    2SAPS  H12R  194   5.278   1.648   9.250  0.3304  2.2519 -0.8216
    2SAPS  C213  195   5.073   1.705   9.177  0.1126 -0.1133  0.3257
    2SAPS  H13R  196   4.975   1.679   9.221  0.0488 -0.6366 -0.1182
    2SAPS  H13S  197   5.093   1.634   9.094 -0.6735 -0.5470  0.5061
    2SAPS  C214  198   5.068   1.846   9.117 -0.1582  0.3448 -0.2458
    2SAPS  H14R  199   5.109   1.929   9.177  0.5316  0.7761 -1.2958
    2SAPS  C215  200   4.993   1.880   9.009 -0.5814 -0.3241 -0.0354
    2SAPS  H15R  201   5.012   1.982   8.971  0.2476  0.8045  3.1690
    2SAPS  C216  202   4.902   1.782   8.936  0.8380 -0.3237  0.9245
    2SAPS  H16R  203   4.797   1.812   8.957  1.1303  1.3701  0.1073
    2SAPS  H16S  204   4.926   1.682   8.978 -1.3507 -2.3828 -2.4362
    2SAPS  C217  205   4.935   1.774   8.787  0.1690  0.0690  0.5209
    2SAPS  H17R  206   4.900   1.676   8.747  0.5641  1.0192 -2.3241
    2SAPS  H17S  207   5.044   1.770   8.768 -0.0639  2.2056 -1.5013
    2SAPS  C218  208   4.874   1.889   8.703 -0.4380 -0.0321  0.0730
    2SAPS  H18R  209   4.896   1.863   8.597  0.2152 -1.2547  0.5114
    2SAPS  H18S  210   4.932   1.979   8.731  2.4451 -1.5450 -0.8613
    2SAPS  C219  211   4.719   1.914   8.713  0.2090  0.2814 -0.5220
    2SAPS  H19R  212   4.692   1.929   8.820 -0.5471  0.7654 -0.7785
    2SAPS  H19S  213   4.677   1.822   8.667  2.6818 -1.4529  0.5447
    2SAPS  C220  214   4.670   2.029   8.616 -0.4315  0.0846 -0.5451
    2SAPS  H20R  215   4.736   2.118   8.624 -2.0827  1.2453  0.4688
    2SAPS  H20S  216   4.567   2.063   8.640 -0.0427  0.6294  0.4120
    2SAPS  H20T  217   4.665   1.988   8.513 -0.6308 -0.5325 -0.2867
    2SAPS   C33  218   5.346   1.361   9.864  0.2795 -0.0252  0.6792
    2SAPS   H3X  219   5.339   1.253   9.890  1.9151 -0.5549 -0.9905
    2SAPS   H3Y  220   5.444   1.396   9.903  1.3800 -0.3433 -1.7098
    2SAPS   C34  221   5.344   1.386   9.713  0.6089  0.0335  0.2323
    2SAPS   H4X  222   5.358   1.491   9.681 -0.2051 -0.5783 -2.3382
    2SAPS   H4Y  223   5.240   1.372   9.675  1.0987  2.0546 -1.9536
    2SAPS   C35  224   5.453   1.305   9.637 -0.1384  0.2749 -0.0189
    2SAPS   H5X  225   5.433   1.199   9.662  0.2888  0.0759 -0.5101
    2SAPS   H5Y  226   5.559   1.330   9.661 -0.0447 -1.2320  1.2032
    2SAPS   C36  227   5.438   1.313   9.481  0.6122 -0.2647  0.3465
    2SAPS   H6X  228   5.440   1.421   9.455 -4.9312  0.7214  3.1705
    2SAPS   H6Y  229   5.339   1.297   9.434  2.9680 -2.3949 -4.1153
    2SAPS   C37  230   5.556   1.242   9.411  0.5094 -0.2799  0.1893
    2SAPS   H7X  231   5.630   1.231   9.493 -0.0429  0.7388  0.8282
    2SAPS   H7Y  232   5.602   1.308   9.336  0.9520 -0.8518 -0.0451
    2SAPS   C38  233   5.500   1.118   9.346  0.9530  0.6418  0.3362
    2SAPS   H8X  234   5.407   1.085   9.399 -1.2450  2.4010 -2.2748
    2SAPS   H8Y  235   5.576   1.038   9.360  0.4021  0.0586  0.0428
    2SAPS   C39  236   5.454   1.147   9.200 -0.8833  0.5284 -0.2184
    2SAPS   H9X  237   5.537   1.175   9.133  0.2326  0.1589  0.9906
    2SAPS   H9Y  238   5.387   1.233   9.224 -2.0305 -0.5281  0.4531
    2SAPS  C310  239   5.371   1.024   9.150 -0.3069 -0.4111 -0.4343
    2SAPS  H10X  240   5.315   1.057   9.060 -0.7341 -2.0307 -0.7830
    2SAPS  H10Y  241   5.289   1.004   9.223 -1.4004  0.1726 -1.4871
    2SAPS  C311  242   5.455   0.906   9.128 -0.4052 -0.0352  0.4269
    2SAPS  H11X  243   5.492   0.863   9.224  0.9482 -1.2120 -0.5979
    2SAPS  H11Y  244   5.543   0.945   9.074 -0.4861  2.5548  2.0760
    2SAPS  C312  245   5.380   0.801   9.046 -0.2560  0.1809  0.1958
    2SAPS  H12X  246   5.335   0.854   8.960  0.7150  0.7542  0.0360
    2SAPS  H12Y  247   5.305   0.754   9.114  0.3555 -2.4906 -0.8881
    2SAPS  C313  248   5.472   0.690   8.995  0.5049  0.4083  0.8093
    2SAPS  H13X  249   5.520   0.638   9.080 -0.6036 -4.1094 -1.1947
    2SAPS  H13Y  250   5.540   0.738   8.922 -1.3802  0.2544 -1.1080
    2SAPS  C314  251   5.387   0.575   8.930 -0.3768 -0.7254  0.0492
    2SAPS  H14X  252   5.329   0.624   8.848  1.2288 -0.5660 -1.0089
    2SAPS  H14Y  253   5.316   0.540   9.008 -0.2019 -0.3778  0.3666
    2SAPS  C315  254   5.467   0.456   8.879 -0.1929  0.0743 -0.0613
    2SAPS  H15X  255   5.517   0.403   8.963  0.7741 -0.6880 -1.0905
    2SAPS  H15Y  256   5.545   0.489   8.807  1.0029 -0.8813  0.7756
    2SAPS  C316  257   5.376   0.361   8.799  0.9457  0.8758  0.0155
    2SAPS  H16X  258   5.304   0.417   8.735 -0.7825 -0.2683  0.9105
    2SAPS  H16Y  259   5.324   0.301   8.877 -0.3709  0.9145 -0.8081
    2SAPS  C317  260   5.448   0.261   8.707  0.1766  0.2008  0.5270
    2SAPS  H17X  261   5.543   0.233   8.758  0.6095 -0.6911 -0.7318
    2SAPS  H17Y  262   5.485   0.323   8.622 -1.9252  0.7383 -0.0308
    2SAPS  C318  263   5.374   0.139   8.654 -0.3172  0.0368 -0.0188
    2SAPS  H18X  264   5.451   0.069   8.616 -0.8539 -0.6628  0.1798
    2SAPS  H18Y  265   5.301   0.152   8.571  1.6048  0.5321 -1.6808
    2SAPS  H18Z  266   5.314   0.097   8.738 -2.0426 -1.4223 -1.9223
    3SAPS     N  267   5.445   3.937  10.725  0.0419 -0.7409 -0.4737
    3SAPS   HN1  268   5.398   3.863  10.669 -0.0408 -0.7414 -0.4024
    3SAPS   HN2  269   5.371   4.000  10.763 -0.5221  1.2728 -4.6992
    3SAPS   HN3  270   5.523   3.983  10.674 -0.2879 -1.1094 -1.3129
    3SAPS   C12  271   5.509   3.862  10.837 -0.2048 -0.4589  0.5560
    3SAPS  H12A  272   5.596   3.816  10.793 -0.0724 -0.4827  0.8460
    3SAPS   C13  273   5.561   3.952  10.950  0.3343  0.9104  0.2811
    3SAPS  O13A  274   5.531   4.075  10.952 -0.5327  0.1229 -0.0479
    3SAPS  O13B  275   5.603   3.890  11.050 -0.4914  0.1382 -0.2153
    3SAPS   C11  276   5.411   3.757  10.895  0.2711 -0.1868  0.0539
    3SAPS  H11A  277   5.339   3.814  10.958  1.5156 -0.2055  1.5011
    3SAPS  H11B  278   5.474   3.698  10.965  2.3730  0.6092 -1.1355
    3SAPS     P  279   5.232   3.572  10.835  0.1710  0.6181 -0.1337
    3SAPS   O13  280   5.274   3.436  10.813 -0.1464  0.1457  0.1961
    3SAPS   O14  281   5.173   3.617  10.963  0.4680 -0.4294  0.3523
    3SAPS   O12  282   5.361   3.668  10.792 -0.3746  0.1325  0.3029
    3SAPS   O11  283   5.132   3.607  10.720 -0.4895  0.2650  0.1447
    3SAPS    C1  284   5.167   3.680  10.606 -0.2363 -0.0316  0.0990
    3SAPS    HA  285   5.078   3.711  10.547  1.1053 -4.6410 -4.7391
    3SAPS    HB  286   5.227   3.769  10.633 -0.8655  0.3955  0.1216
    3SAPS    C2  287   5.236   3.595  10.493 -0.3941 -0.3555  0.4863
    3SAPS    HS  288   5.321   3.535  10.534  0.3175  1.5506  1.9128
    3SAPS   O21  289   5.264   3.668  10.372  0.1453 -0.1872  0.0011
    3SAPS   C21  290   5.348   3.769  10.382  0.5054  0.5082  0.7570
    3SAPS   O22  291   5.387   3.820  10.484  0.0595 -0.5553 -0.0677
    3SAPS   C22  292   5.406   3.790  10.240 -1.2934  0.3493  0.2268
    3SAPS   H2R  293   5.447   3.692  10.208 -1.1977  1.2826 -2.7270
    3SAPS   H2S  294   5.330   3.831  10.170 -2.1365  0.9335  1.4629
    3SAPS    C3  295   5.129   3.485  10.453 -0.3549 -0.3042 -0.0838
    3SAPS    HX  296   5.037   3.540  10.422 -2.1056 -2.8799  0.3464
    3SAPS    HY  297   5.111   3.423  10.543 -1.5751  2.7420  1.8784
    3SAPS   O31  298   5.161   3.396  10.344  0.7329  0.2871 -0.0782
    3SAPS   C31  299   5.250   3.302  10.376  0.1644  0.1277  0.4618
    3SAPS   O32  300   5.299   3.287  10.487 -0.1467  0.3200  0.1551
    3SAPS   C32  301   5.269   3.210  10.254 -0.6183 -0.3438 -0.3379
    3SAPS   H2X  302   5.239   3.106  10.279  0.0109 -0.1324  1.3499
    3SAPS   H2Y  303   5.377   3.188  10.248 -0.3068  0.7971  0.8299
    3SAPS   C23  304   5.534   3.886  10.237  0.7147 -0.7881 -0.1448
    3SAPS   H3R  305   5.600   3.860  10.322  4.3536 -3.7993 -3.6640
    3SAPS   H3S  306   5.502   3.990  10.259 -1.1252 -1.7898  2.1206
    3SAPS   C24  307   5.613   3.877  10.109 -0.1607 -0.3635  0.1472
    3SAPS   H4R  308   5.659   3.777  10.097  0.6614  0.0477 -0.1099
    3SAPS   H4S  309   5.698   3.943  10.136  0.1867 -1.3387  1.4850
    3SAPS   C25  310   5.543   3.919   9.979 -0.1807 -0.2210  0.0720
    3SAPS   H5R  311   5.440   3.880   9.976 -0.6569  1.0583 -0.4274
    3SAPS   C26  312   5.588   3.985   9.873  0.3566 -0.2033  0.4969
    3SAPS   H6R  313   5.533   3.985   9.777  1.6104 -0.4717 -0.2402
    3SAPS   C27  314   5.731   4.035   9.865 -0.3307 -0.4949  0.0194
    3SAPS   H7R  315   5.763   4.079   9.961  1.0971 -0.2876 -0.5387
    3SAPS   H7S  316   5.738   4.125   9.801  1.4885  0.2908  1.2786
    3SAPS   C28  317   5.840   3.939   9.816 -0.7556 -0.5068  0.0137
    3SAPS   H8R  318   5.890   3.884   9.897 -2.0566 -2.4225 -0.4411
    3SAPS   C29  319   5.869   3.910   9.686 -0.6108  0.1373  0.4834
    3SAPS   H9R  320   5.958   3.847   9.670 -0.8827 -0.5249  1.5286
    3SAPS  C210  321   5.803   3.958   9.558  0.5818  0.4806 -0.1005
    3SAPS  H10R  322   5.729   4.040   9.569 -2.9764 -2.5955 -0.2048
    3SAPS  H10S  323   5.745   3.873   9.516  1.8438 -0.2605 -0.3719
    3SAPS  C211  324   5.913   3.979   9.453 -0.0061  0.5386 -0.5125
    3SAPS  H11R  325   5.973   3.889   9.433  1.2409  1.5895 -1.6336
    3SAPS  C212  326   5.924   4.092   9.384  0.8336  0.6269  0.3429
    3SAPS  H12R  327   6.003   4.089   9.307 -0.6113 -1.3092 -1.1201
    3SAPS  C213  328   5.841   4.215   9.404  1.2197 -0.0910  0.1354
    3SAPS  H13R  329   5.906   4.302   9.380 -0.3486  1.5133  1.5655
    3SAPS  H13S  330   5.812   4.227   9.511  0.6956  0.3016 -0.0491
    3SAPS  C214  331   5.711   4.235   9.321  0.1660 -0.5467 -0.3869
    3SAPS  H14R  332   5.625   4.201   9.380  0.3418 -1.2686 -0.5398
    3SAPS  C215  333   5.703   4.289   9.199 -0.0085  0.6948  0.1144
    3SAPS  H15R  334   5.604   4.295   9.152  0.6623 -0.1129 -1.4120
    3SAPS  C216  335   5.810   4.348   9.113  0.0403 -0.5222 -0.1292
    3SAPS  H16R  336   5.900   4.369   9.176  0.7844 -2.2311 -0.5909
    3SAPS  H16S  337   5.769   4.449   9.091  0.8310 -0.1959 -0.1203
    3SAPS  C217  338   5.837   4.267   8.985  0.1653  0.0782 -0.4979
    3SAPS  H17R  339   5.897   4.179   9.013  0.8930  0.2704 -1.4163
    3SAPS  H17S  340   5.906   4.328   8.923  0.1602  0.2983 -0.2882
    3SAPS  C218  341   5.714   4.238   8.899 -0.0616 -0.7540  0.1492
    3SAPS  H18R  342   5.656   4.331   8.915 -0.0124 -0.6008 -0.5318
    3SAPS  H18S  343   5.656   4.153   8.941 -3.2667  0.4570 -1.5984
    3SAPS  C219  344   5.760   4.202   8.756  0.0184 -0.3727 -0.9444
    3SAPS  H19R  345   5.819   4.108   8.761 -0.4546 -0.6218 -0.0890
    3SAPS  H19S  346   5.832   4.274   8.712  0.6512 -1.3855 -1.6023
    3SAPS  C220  347   5.652   4.201   8.651  0.2889  0.2729  0.0322
    3SAPS  H20R  348   5.581   4.286   8.662  1.2887  1.0845  0.3423
    3SAPS  H20S  349   5.596   4.106   8.661  0.1285  0.1845 -1.5171
    3SAPS  H20T  350   5.701   4.197   8.551  1.9184 -0.4831  0.8419
    3SAPS   C33  351   5.214   3.251  10.117  0.1537 -0.0969 -0.7352
    3SAPS   H3X  352   5.235   3.360  10.103 -0.2431 -0.2719 -2.7736
    3SAPS   H3Y  353   5.104   3.245  10.103  0.1991 -0.0064 -1.1254
    3SAPS   C34  354   5.274   3.170  10.006 -0.2054 -0.4859 -0.7794
    3SAPS   H4X  355   5.242   3.065  10.019  0.2735 -0.7522 -1.7216
    3SAPS   H4Y  356   5.384   3.175   9.990 -0.0076 -1.4647  0.2107
    3SAPS   C35  357   5.213   3.200   9.870 -0.0251  0.5475 -0.0247
    3SAPS   H5X  358   5.249   3.301   9.841 -0.4048  0.4728 -0.7595
    3SAPS   H5Y  359   5.103   3.206   9.863 -0.0270  0.8687  0.2937
    3SAPS   C36  360   5.273   3.121   9.748  0.8576  0.0039 -0.5662
    3SAPS   H6X  361   5.233   3.017   9.746 -0.8724  0.6157  0.3773
    3SAPS   H6Y  362   5.381   3.107   9.770  0.1967 -3.1931  0.8972
    3SAPS   C37  363   5.252   3.192   9.611 -0.1392 -0.0868  0.8093
    3SAPS   H7X  364   5.304   3.290   9.616 -1.3385  0.7101 -1.7164
    3SAPS   H7Y  365   5.142   3.198   9.594  0.1340 -1.9459 -1.9133
    3SAPS   C38  366   5.307   3.094   9.503 -0.1084 -0.5850  0.8146
    3SAPS   H8X  367   5.247   3.001   9.515  0.3204 -1.0132 -0.2914
    3SAPS   H8Y  368   5.415   3.068   9.518 -0.4049 -1.6811  1.1302
    3SAPS   C39  369   5.276   3.148   9.357 -1.0107 -0.0905  0.5264
    3SAPS   H9X  370   5.358   3.221   9.340  0.0419 -1.2235  0.7037
    3SAPS   H9Y  371   5.176   3.197   9.354  0.5348  3.2293  0.9779
    3SAPS  C310  372   5.288   3.037   9.252 -0.2806  0.3463  0.2377
    3SAPS  H10X  373   5.219   2.956   9.286 -1.2144  0.9553 -0.1718
    3SAPS  H10Y  374   5.389   2.993   9.243 -1.0261 -1.2064 -0.8382
    3SAPS  C311  375   5.243   3.083   9.117  0.6814 -0.1962  0.0244
    3SAPS  H11X  376   5.331   3.135   9.073 -0.0526  2.0722  1.1712
    3SAPS  H11Y  377   5.148   3.141   9.119  0.1813 -1.0634  2.8243
    3SAPS  C312  378   5.226   2.963   9.024 -0.5466  0.3251 -0.3569
    3SAPS  H12X  379   5.150   2.887   9.054 -0.0362 -0.4926 -1.1077
    3SAPS  H12Y  380   5.321   2.905   9.023 -1.4777 -1.2051 -1.5132
    3SAPS  C313  381   5.199   3.017   8.881  0.3424  0.3876  0.2317
    3SAPS  H13X  382   5.287   3.070   8.839  1.1350 -3.2339 -2.9490
    3SAPS  H13Y  383   5.109   3.082   8.878  1.8072  2.3664 -1.6173
    3SAPS  C314  384   5.178   2.899   8.786  0.3781 -0.3857 -0.3944
    3SAPS  H14X  385   5.096   2.841   8.833  1.6004 -0.8185  1.2384
    3SAPS  H14Y  386   5.266   2.831   8.782  1.3683  0.9455 -1.3744
    3SAPS  C315  387   5.120   2.940   8.653 -0.5997  0.2783 -0.7552
    3SAPS  H15X  388   5.188   2.991   8.581 -2.3266  0.4459 -2.3036
    3SAPS  H15Y  389   5.039   3.015   8.665 -0.0982  0.5418  1.0166
    3SAPS  C316  390   5.073   2.813   8.568 -0.0182 -0.1919 -1.2227
    3SAPS  H16X  391   5.147   2.730   8.567  1.5569  1.1853 -1.1553
    3SAPS  H16Y  392   5.057   2.854   8.466  1.3711 -1.1987 -1.8758
    3SAPS  C317  393   4.935   2.758   8.613 -0.5321  0.0662  0.4919
    3SAPS  H17X  394   4.866   2.844   8.601 -2.0881 -0.8140  2.7439
    3SAPS  H17Y  395   4.944   2.739   8.722  0.4218  1.3613  0.6425
    3SAPS  C318  396   4.881   2.640   8.530 -0.3137  0.1772  0.2737
    3SAPS  H18X  397   4.968   2.581   8.495 -0.7842 -0.8734  0.8487
    3SAPS  H18Y  398   4.817   2.673   8.444  2.4863 -0.4878 -2.1478
    3SAPS  H18Z  399   4.814   2.575   8.590  0.0231 -2.2992 -1.9017
    4SAPS     N  400   0.823   4.243  10.836 -0.4236  0.7089 -0.7369
    4SAPS   HN1  401   0.751   4.215  10.766 -1.0707  1.5556 -0.4241
    4SAPS   HN2  402   0.899   4.172  10.839  1.6501  2.6851 -3.5175
    4SAPS   HN3  403   0.771   4.239  10.926 -1.0556  0.7713 -1.0938
    4SAPS   C12  404   0.874   4.370  10.810  0.6232  0.4620  0.3521
    4SAPS  H12A  405   0.823   4.445  10.869 -0.9335  0.8885 -1.4848
    4SAPS   C13  406   1.028   4.390  10.846 -0.4112 -0.4678 -0.4127
    4SAPS  O13A  407   1.083   4.314  10.925 -0.0920  0.5387 -0.1938
    4SAPS  O13B  408   1.073   4.507  10.822 -0.1545  0.0175  0.2849
    4SAPS   C11  409   0.854   4.419  10.660 -0.0008  0.5066  0.5369
    4SAPS  H11A  410   0.908   4.350  10.592 -0.0176  0.1532  0.8826
    4SAPS  H11B  411   0.898   4.518  10.638  1.6832 -0.6731 -1.6032
    4SAPS     P  412   0.627   4.546  10.662 -0.3518 -0.4400  0.1391
    4SAPS   O13  413   0.489   4.510  10.696 -0.6054 -0.1281  0.4064
    4SAPS   O14  414   0.703   4.628  10.762  0.1308  0.1125  1.2560
    4SAPS   O12  415   0.709   4.418  10.625 -0.3741  0.2248 -0.0885
    4SAPS   O11  416   0.632   4.627  10.529 -0.0049  0.4186  0.3838
    4SAPS    C1  417   0.550   4.599  10.415  0.2501  0.6365 -0.4790
    4SAPS    HA  418   0.502   4.498  10.419 -1.5442  1.4617 -0.8244
    4SAPS    HB  419   0.468   4.673  10.408 -0.2685  0.2080  0.9621
    4SAPS    C2  420   0.630   4.615  10.275  0.0280  0.8738  0.2052
    4SAPS    HS  421   0.560   4.587  10.193  0.9029 -0.7917 -0.0064
    4SAPS   O21  422   0.744   4.521  10.268  0.8857  0.1818  1.0183
    4SAPS   C21  423   0.723   4.389  10.265  0.0459  0.5847 -0.9135
    4SAPS   O22  424   0.616   4.333  10.255 -0.8177  0.1298 -0.2104
    4SAPS   C22  425   0.859   4.324  10.265  0.0340 -0.2149  1.1256
    4SAPS   H2R  426   0.907   4.361  10.358  0.6531 -0.0422  0.7371
    4SAPS   H2S  427   0.846   4.214  10.264 -2.7103  0.0897 -0.2424
    4SAPS    C3  428   0.678   4.756  10.248  0.0019 -0.2995 -0.0038
    4SAPS    HX  429   0.767   4.786  10.308 -0.2151  1.2358 -0.4352
    4SAPS    HY  430   0.598   4.824  10.282 -0.3425 -1.0605  0.7173
    4SAPS   O31  431   0.703   4.771  10.100  0.0255 -0.2316  1.0631
    4SAPS   C31  432   0.832   4.779  10.067  0.3377 -0.2305 -0.1000
    4SAPS   O32  433   0.923   4.746  10.139  0.6136  0.1055 -0.1906
    4SAPS   C32  434   0.848   4.823   9.923 -0.3312  0.6550  0.9919
    4SAPS   H2X  435   0.804   4.744   9.858  1.1943 -0.4208  1.2409
    4SAPS   H2Y  436   0.956   4.824   9.898 -0.3296 -0.6273  0.9229
    4SAPS   C23  437   0.951   4.356  10.133 -0.4181  0.1825  0.1768
    4SAPS   H3R  438   1.053   4.319  10.160 -0.5569 -0.9511 -0.7966
    4SAPS   H3S  439   0.965   4.466  10.119  1.5574  0.4748  3.7852
    4SAPS   C24  440   0.909   4.278  10.005 -0.3248  1.1618  0.3128
    4SAPS   H4R  441   0.907   4.170  10.029 -3.5560 -0.0336 -4.5545
    4SAPS   H4S  442   0.989   4.303   9.932  0.3485  0.0534  0.6525
    4SAPS   C25  443   0.781   4.339   9.955  0.9432  0.3497 -0.2007
    4SAPS   H5R  444   0.701   4.311  10.025  2.4811 -1.1491  1.0020
    4SAPS   C26  445   0.752   4.420   9.852  0.4271 -0.1524 -0.2068
    4SAPS   H6R  446   0.651   4.454   9.824  1.1929  4.0649  1.7721
    4SAPS   C27  447   0.854   4.487   9.759  0.1366  0.2562 -0.3849
    4SAPS   H7R  448   0.943   4.518   9.818 -1.7408  0.9794  2.1594
    4SAPS   H7S  449   0.807   4.579   9.718  1.4387  1.0328 -0.1330
    4SAPS   C28  450   0.893   4.392   9.644 -0.1471  0.3317 -0.3012
    4SAPS   H8R  451   0.957   4.309   9.677  0.4048 -0.1510 -2.4924
    4SAPS   C29  452   0.864   4.405   9.518 -1.5114 -0.1873  0.5791
    4SAPS   H9R  453   0.899   4.322   9.454 -1.6952 -0.9456  1.4467
    4SAPS  C210  454   0.783   4.505   9.445 -0.5167  0.2602  0.1456
    4SAPS  H10R  455   0.730   4.557   9.527 -1.0510  1.2629 -0.8244
    4SAPS  H10S  456   0.697   4.466   9.386 -0.2361 -0.1237 -0.0128
    4SAPS  C211  457   0.858   4.598   9.353  0.4781 -0.5476 -0.1590
    4SAPS  H11R  458   0.883   4.698   9.393  1.1210  0.0130 -1.8826
    4SAPS  C212  459   0.897   4.569   9.231 -0.5395  0.1882  1.1893
    4SAPS  H12R  460   0.950   4.649   9.177 -1.9561  0.0883 -0.4098
    4SAPS  C213  461   0.858   4.438   9.163  0.4525 -0.3426 -0.9319
    4SAPS  H13R  462   0.811   4.364   9.231  2.0881 -0.4119  0.1662
    4SAPS  H13S  463   0.956   4.390   9.139  1.5625  0.1114  2.4838
    4SAPS  C214  464   0.760   4.458   9.062 -0.1374  0.8235 -0.0930
    4SAPS  H14R  465   0.656   4.474   9.094 -0.2190 -0.2358  0.2029
    4SAPS  C215  466   0.790   4.468   8.928  0.7140  0.1624  0.7024
    4SAPS  H15R  467   0.708   4.484   8.856  0.3397 -0.9597  0.8758
    4SAPS  C216  468   0.926   4.456   8.869  0.3638  0.7031  0.2757
    4SAPS  H16R  469   0.922   4.373   8.796 -0.3039  1.3292 -0.4042
    4SAPS  H16S  470   1.005   4.435   8.945  1.9857 -1.3335 -1.9012
    4SAPS  C217  471   0.977   4.580   8.793  0.0089  0.2486  0.2872
    4SAPS  H17R  472   1.079   4.563   8.752 -1.0388 -0.2826 -2.1544
    4SAPS  H17S  473   0.989   4.658   8.871 -0.6622 -1.0842  1.7466
    4SAPS  C218  474   0.909   4.605   8.656  0.8674 -0.5755 -0.6518
    4SAPS  H18R  475   0.800   4.612   8.679  1.2452  0.3348  0.8725
    4SAPS  H18S  476   0.914   4.522   8.582  1.1985  0.1999 -1.5115
    4SAPS  C219  477   0.969   4.724   8.581  0.3443  0.0537 -0.3635
    4SAPS  H19R  478   1.059   4.690   8.524  1.3056  0.0016  1.1541
    4SAPS  H19S  479   1.008   4.794   8.658  0.9171  1.1397 -1.6341
    4SAPS  C220  480   0.868   4.799   8.494  0.0331 -0.4564  0.2647
    4SAPS  H20R  481   0.809   4.742   8.419 -2.9865  1.3649  1.1692
    4SAPS  H20S  482   0.918   4.883   8.442  0.9983 -0.7866  0.6501
    4SAPS  H20T  483   0.804   4.858   8.563  2.9630  0.9142  1.9035
    4SAPS   C33  484   0.776   4.953   9.894  0.9067 -0.3131  0.2257
    4SAPS   H3X  485   0.796   5.020   9.980 -2.0767 -0.3869  1.0310
    4SAPS   H3Y  486   0.666   4.943   9.911  0.9020 -2.1602 -0.6867
    4SAPS   C34  487   0.800   5.011   9.750 -0.3983  0.1066 -0.0659
    4SAPS   H4X  488   0.826   4.928   9.681 -1.7914  0.1060 -0.6108
    4SAPS   H4Y  489   0.893   5.072   9.748 -2.0704  2.7041 -2.5457
    4SAPS   C35  490   0.683   5.092   9.693  0.5564 -0.1033  0.7747
    4SAPS   H5X  491   0.656   5.167   9.770 -2.4939  0.4942 -0.7954
    4SAPS   H5Y  492   0.591   5.033   9.674  0.4616  0.9721 -2.2875
    4SAPS   C36  493   0.715   5.150   9.558  0.1865  0.1713 -0.1694
    4SAPS   H6X  494   0.804   5.216   9.553  0.0290  0.2675 -1.8803
    4SAPS   H6Y  495   0.633   5.220   9.530  0.9449  1.1657  0.0811
    4SAPS   C37  496   0.724   5.042   9.443  0.4852  0.1625  0.8141
    4SAPS   H7X  497   0.632   4.981   9.443  1.4841 -1.3750 -0.2345
    4SAPS   H7Y  498   0.808   4.973   9.465  1.2784  0.8992  0.1607
    4SAPS   C38  499   0.730   5.112   9.305 -0.4036 -0.8528  0.2652
    4SAPS   H8X  500   0.807   5.191   9.296 -1.7874  0.4411 -0.4625
    4SAPS   H8Y  501   0.628   5.145   9.275 -0.2954 -0.6932  0.0705
    4SAPS   C39  502   0.781   5.012   9.196 -0.3683 -0.5538  0.1304
    4SAPS   H9X  503   0.704   4.933   9.187  0.4538 -1.1627 -1.6948
    4SAPS   H9Y  504   0.880   4.967   9.220 -0.5278 -1.3296 -0.6763
    4SAPS  C310  505   0.796   5.076   9.057 -0.1417  0.1448  0.0008
    4SAPS  H10X  506   0.854   5.171   9.066  2.5614 -1.4629 -0.1723
    4SAPS  H10Y  507   0.694   5.102   9.020  0.1052  1.3381  0.1320
    4SAPS  C311  508   0.859   4.977   8.957  0.3671  0.1245  0.0071
    4SAPS  H11X  509   0.806   4.879   8.950 -2.0849  1.4753 -1.1870
    4SAPS  H11Y  510   0.966   4.956   8.976  1.4768  0.4762 -5.1151
    4SAPS  C312  511   0.866   5.036   8.813  0.1792 -0.1215  0.4104
    4SAPS  H12X  512   0.761   5.032   8.777  0.6567  0.1146 -1.0475
    4SAPS  H12Y  513   0.931   4.957   8.770 -1.7323 -1.3602 -0.2765
    4SAPS  C313  514   0.926   5.167   8.789  0.3686  0.4636 -0.2840
    4SAPS  H13X  515   1.031   5.163   8.825  0.8166  1.8227 -1.3962
    4SAPS  H13Y  516   0.869   5.246   8.843 -0.2746  0.6082 -1.1582
    4SAPS  C314  517   0.916   5.193   8.639  0.2838 -0.0963  0.6953
    4SAPS  H14X  518   0.808   5.202   8.616  0.8683  1.0659 -1.7038
    4SAPS  H14Y  519   0.961   5.109   8.581  1.4667  0.1848  1.1812
    4SAPS  C315  520   0.986   5.318   8.588 -0.1160  0.3286 -0.4665
    4SAPS  H15X  521   0.958   5.328   8.481 -0.9945  0.3110 -0.2371
    4SAPS  H15Y  522   1.096   5.309   8.602 -0.1519 -1.1052 -0.9529
    4SAPS  C316  523   0.930   5.439   8.659 -0.1135 -0.3167  0.0282
    4SAPS  H16X  524   0.957   5.434   8.766  0.5309  3.2972  0.1021
    4SAPS  H16Y  525   0.820   5.448   8.644 -0.3972 -2.4926  0.6361
    4SAPS  C317  526   0.998   5.577   8.605 -0.0641  0.3108 -0.3307
    4SAPS  H17X  527   0.988   5.566   8.494  1.0468  0.5401 -0.4534
    4SAPS  H17Y  528   1.103   5.581   8.638 -0.4716  1.9307  0.8585
    4SAPS  C318  529   0.932   5.711   8.657  0.2127  0.4526  0.2766
    4SAPS  H18X  530   0.937   5.717   8.768  1.5431  1.6415  0.1611
    4SAPS  H18Y  531   0.826   5.705   8.625  1.1450  0.8986 -3.1706
    4SAPS  H18Z  532   0.984   5.801   8.617 -0.0490  1.1020  1.3911
    5SAPS     N  533   5.076   4.233  11.243 -0.0313 -0.2185  0.3000
    5SAPS   HN1  534   5.100   4.206  11.145 -0.7027  0.0714  0.0520
    5SAPS   HN2  535   5.044   4.331  11.245  0.8933  0.0752  2.2402
    5SAPS   HN3  536   5.156   4.225  11.309 -0.6172  0.7160  1.1200
    5SAPS   C12  537   4.974   4.137  11.286  0.1942  0.2358 -1.0485
    5SAPS  H12A  538   5.016   4.039  11.272  0.4115  0.3999 -1.5361
    5SAPS   C13  539   4.935   4.138  11.433  0.0457  0.8672 -0.7636
    5SAPS  O13A  540   4.997   4.204  11.517  0.4266 -0.0186  0.1522
    5SAPS  O13B  541   4.838   4.061  11.458 -0.0836  0.5479  0.2511
    5SAPS   C11  542   4.848   4.160  11.202 -0.2323 -0.0272 -0.1168
    5SAPS  H11A  543   4.801   4.259  11.222 -1.7549 -0.8088  0.2873
    5SAPS  H11B  544   4.767   4.087  11.227 -1.0162  1.5095  2.0156
    5SAPS     P  545   4.794   4.199  10.940  0.2863  0.0513 -0.2123
    5SAPS   O13  546   4.663   4.143  10.938  0.1798 -0.2513 -0.1974
    5SAPS   O14  547   4.800   4.345  10.949 -0.1748 -0.2353 -0.4643
    5SAPS   O12  548   4.883   4.145  11.061  0.2283  0.5824  0.3552
    5SAPS   O11  549   4.864   4.153  10.807 -0.6042 -0.7333  0.3361
    5SAPS    C1  550   4.798   4.059  10.731  0.1332  0.0380 -0.4031
    5SAPS    HA  551   4.770   3.967  10.787  0.1436 -0.3452 -1.0214
    5SAPS    HB  552   4.698   4.088  10.692 -0.0605  0.6251  0.5350
    5SAPS    C2  553   4.878   4.028  10.609 -0.2225  0.4354  0.5032
    5SAPS    HS  554   4.977   3.992  10.642  0.3030 -0.3731 -1.8218
    5SAPS   O21  555   4.884   4.148  10.516  0.5688 -0.2359  0.4376
    5SAPS   C21  556   5.005   4.175  10.477 -0.1242 -0.1125  0.4618
    5SAPS   O22  557   5.112   4.130  10.515 -0.1772 -0.1551 -0.6277
    5SAPS   C22  558   4.998   4.293  10.381  0.2617  0.3514 -0.5772
    5SAPS   H2R  559   4.898   4.332  10.352  0.2554  0.9243  0.2202
    5SAPS   H2S  560   5.059   4.377  10.419  2.5732 -1.3986 -0.2992
    5SAPS    C3  561   4.813   3.906  10.533 -0.2715  0.4080 -0.2521
    5SAPS    HX  562   4.716   3.928  10.483  0.5794  0.9420 -1.7082
    5SAPS    HY  563   4.795   3.823  10.604  1.5297  0.4497  0.2716
    5SAPS   O31  564   4.898   3.867  10.416  0.1948 -0.5993  0.5622
    5SAPS   C31  565   4.854   3.768  10.348  0.3549  0.3950 -0.3625
    5SAPS   O32  566   4.758   3.699  10.385  1.1197  0.3601  0.3073
    5SAPS   C32  567   4.945   3.739  10.229  0.4083  0.1782  0.5770
    5SAPS   H2X  568   4.952   3.629  10.232 -1.3993  0.0672  1.7360
    5SAPS   H2Y  569   5.048   3.780  10.231  0.5613 -0.1258 -0.7255
    5SAPS   C23  570   5.064   4.244  10.250 -0.8406 -0.8316 -0.8809
    5SAPS   H3R  571   5.005   4.164  10.200 -1.4783  0.1234 -1.6813
    5SAPS   H3S  572   5.166   4.206  10.274  0.0237  0.9497 -1.5921
    5SAPS   C24  573   5.088   4.359  10.148 -0.8903 -0.2831 -0.1412
    5SAPS   H4R  574   5.161   4.324  10.071  1.8637  0.0095  2.2570
    5SAPS   H4S  575   5.137   4.441  10.204  1.3855 -3.3195  2.4528
    5SAPS   C25  576   4.963   4.416  10.088 -0.5653  0.8454 -1.3599
    5SAPS   H5R  577   4.903   4.467  10.165 -2.7697 -1.1327 -1.6965
    5SAPS   C26  578   4.922   4.427   9.958 -0.5539 -0.3793  0.2180
    5SAPS   H6R  579   4.826   4.478   9.944 -0.3412 -0.6218 -2.3111
    5SAPS   C27  580   4.995   4.383   9.829  0.2379  0.2837 -0.8726
    5SAPS   H7R  581   5.106   4.378   9.836  0.2554  1.5551 -0.0935
    5SAPS   H7S  582   4.979   4.462   9.752 -0.1390  2.0716  0.9943
    5SAPS   C28  583   4.953   4.244   9.787 -0.1671  0.1970  0.4584
    5SAPS   H8R  584   4.972   4.166   9.863  1.2386  0.0056 -0.0696
    5SAPS   C29  585   4.920   4.187   9.664  0.2223 -0.9345 -0.7427
    5SAPS   H9R  586   4.913   4.078   9.655 -1.1125 -0.8831 -0.3073
    5SAPS  C210  587   4.915   4.264   9.527 -0.2049  0.2000  0.0236
    5SAPS  H10R  588   4.943   4.366   9.561  2.3322  0.4746 -2.7417
    5SAPS  H10S  589   4.810   4.277   9.492 -0.2647 -0.7791 -0.1740
    5SAPS  C211  590   5.009   4.214   9.423  0.2707 -0.1461  1.2653
    5SAPS  H11R  591   5.116   4.207   9.449 -0.2576 -1.4823  3.1563
    5SAPS  C212  592   4.979   4.170   9.302  0.3309 -0.4362  0.5649
    5SAPS  H12R  593   5.058   4.135   9.234 -0.5292 -0.4553 -0.4369
    5SAPS  C213  594   4.840   4.178   9.251 -0.7002 -0.3348  0.2891
    5SAPS  H13R  595   4.808   4.284   9.254 -0.3753 -0.2182 -0.3826
    5SAPS  H13S  596   4.764   4.127   9.314 -1.7068 -0.4830 -1.0332
    5SAPS  C214  597   4.841   4.126   9.108 -0.6200 -0.0910  0.2174
    5SAPS  H14R  598   4.899   4.034   9.092 -0.8933 -0.5989  1.9738
    5SAPS  C215  599   4.765   4.176   9.009 -0.3438 -0.5310  0.0152
    5SAPS  H15R  600   4.769   4.138   8.906 -2.6823 -0.3455 -0.1660
    5SAPS  C216  601   4.678   4.298   9.018 -0.2972  0.1614 -0.7391
    5SAPS  H16R  602   4.715   4.368   9.096  0.3770 -1.4598  0.4227
    5SAPS  H16S  603   4.576   4.270   9.053 -0.3559  0.4012 -0.7153
    5SAPS  C217  604   4.667   4.380   8.880  0.1815 -0.5034 -0.3340
    5SAPS  H17R  605   4.608   4.470   8.906  1.0991  0.0439 -0.1059
    5SAPS  H17S  606   4.608   4.325   8.804 -2.7535  0.4865  1.1330
    5SAPS  C218  607   4.799   4.409   8.816 -0.1595  0.1316 -0.2257
    5SAPS  H18R  608   4.864   4.469   8.884  1.0484 -0.5592 -0.7462
    5SAPS  H18S  609   4.852   4.315   8.787  2.5084  1.9004 -1.3191
    5SAPS  C219  610   4.802   4.493   8.688 -0.0285  0.3845  0.0397
    5SAPS  H19R  611   4.907   4.514   8.659 -0.0886  0.2219 -0.2942
    5SAPS  H19S  612   4.755   4.592   8.708  1.8274  1.3483 -0.3342
    5SAPS  C220  613   4.745   4.415   8.571 -0.4295 -0.0595 -0.2526
    5SAPS  H20R  614   4.769   4.477   8.482 -0.6502  1.6106  0.8172
    5SAPS  H20S  615   4.634   4.411   8.569 -0.4520 -0.9969  1.9820
    5SAPS  H20T  616   4.779   4.309   8.568 -0.2181 -0.0057  0.1222
    5SAPS   C33  617   4.873   3.742  10.088  0.5961  0.3642  0.3305
    5SAPS   H3X  618   4.861   3.849  10.061 -0.4139  0.4678  1.1607
    5SAPS   H3Y  619   4.770   3.701  10.096 -0.5545  2.5981 -2.4565
    5SAPS   C34  620   4.949   3.660   9.992 -0.1415  0.9134  0.8453
    5SAPS   H4X  621   4.893   3.650   9.896 -0.0889  2.9328  0.5802
    5SAPS   H4Y  622   4.961   3.556  10.029 -0.8210  0.6476  0.3265
    5SAPS   C35  623   5.096   3.709   9.952  0.7659 -0.0733 -0.0450
    5SAPS   H5X  624   5.162   3.708  10.042 -0.0898  0.0654  0.5846
    5SAPS   H5Y  625   5.100   3.808   9.903  0.7998 -1.0049 -1.9860
    5SAPS   C36  626   5.154   3.596   9.859  0.2178  0.2591  0.1371
    5SAPS   H6X  627   5.091   3.592   9.767 -0.8030  0.0057  0.8333
    5SAPS   H6Y  628   5.138   3.499   9.910  1.2869  0.6906  1.3317
    5SAPS   C37  629   5.304   3.618   9.833 -0.5010 -0.3942 -0.4404
    5SAPS   H7X  630   5.334   3.521   9.787 -0.0595 -0.4624 -0.0157
    5SAPS   H7Y  631   5.354   3.616   9.932 -2.1119  1.0434  0.4080
    5SAPS   C38  632   5.341   3.732   9.734  0.4095 -0.4707 -0.0731
    5SAPS   H8X  633   5.449   3.757   9.719  0.7071 -1.6933  0.0242
    5SAPS   H8Y  634   5.305   3.826   9.781  1.7688 -0.0552  0.1768
    5SAPS   C39  635   5.275   3.715   9.598  0.5156 -0.2809 -0.5321
    5SAPS   H9X  636   5.174   3.674   9.615  1.0438 -2.0196 -1.4776
    5SAPS   H9Y  637   5.325   3.633   9.542 -0.1627 -0.9237 -0.1953
    5SAPS  C310  638   5.267   3.824   9.497 -0.6896  0.0268 -0.1850
    5SAPS  H10X  639   5.214   3.909   9.545 -1.3922  0.0686 -1.0224
    5SAPS  H10Y  640   5.195   3.793   9.418 -0.5365 -0.6145 -0.0708
    5SAPS  C311  641   5.403   3.862   9.451 -0.7904  0.0536  0.3438
    5SAPS  H11X  642   5.444   3.774   9.395 -1.2502  1.5503 -2.4318
    5SAPS  H11Y  643   5.473   3.887   9.534 -1.8068  1.8096  0.6844
    5SAPS  C312  644   5.414   3.974   9.350 -0.0134  0.0149  0.8386
    5SAPS  H12X  645   5.523   3.995   9.345  0.0836 -0.8616 -1.1621
    5SAPS  H12Y  646   5.360   4.062   9.392 -1.4610 -0.6486  0.3933
    5SAPS  C313  647   5.360   3.935   9.213 -0.3202 -0.1904 -0.0841
    5SAPS  H13X  648   5.251   3.917   9.220 -0.3212  0.1897  1.0119
    5SAPS  H13Y  649   5.414   3.843   9.183 -1.4567 -1.1350  0.7455
    5SAPS  C314  650   5.384   4.041   9.103 -0.0359  0.8999 -0.1446
    5SAPS  H14X  651   5.494   4.059   9.101  0.4716 -1.8150  0.7128
    5SAPS  H14Y  652   5.357   4.143   9.137 -0.0433  0.3231  1.6182
    5SAPS  C315  653   5.332   3.995   8.968  0.0317  0.2461  0.2236
    5SAPS  H15X  654   5.351   3.885   8.961 -1.2535  0.0489 -0.2870
    5SAPS  H15Y  655   5.382   4.050   8.886 -2.0513  1.6207 -0.1576
    5SAPS  C316  656   5.187   4.019   8.948  0.4029 -0.3009 -0.1481
    5SAPS  H16X  657   5.148   4.119   8.976 -3.3079 -1.6067 -0.4487
    5SAPS  H16Y  658   5.125   3.957   9.017  1.4325  0.0786  1.1546
    5SAPS  C317  659   5.152   3.986   8.804 -0.7413  0.0929 -0.2390
    5SAPS  H17X  660   5.186   3.881   8.794  0.5486  0.4135  0.7164
    5SAPS  H17Y  661   5.217   4.049   8.740 -0.6073  0.5891  0.3713
    5SAPS  C318  662   5.006   4.006   8.770  0.1662  0.5427 -0.2677
    5SAPS  H18X  663   4.990   3.970   8.666 -0.6379  0.9011 -0.2669
    5SAPS  H18Y  664   4.982   4.114   8.774 -0.5285  0.3775  0.0628
    5SAPS  H18Z  665   4.937   3.958   8.843 -2.0208  0.4667 -2.3216
    6SAPS     N  666   3.910   3.295  11.085 -0.5888 -0.4696 -0.3996
    6SAPS   HN1  667   3.999   3.242  11.073 -0.0770  0.4944 -0.8849
    6SAPS   HN2  668   3.895   3.347  10.996 -2.0635  0.3961  0.3364
    6SAPS   HN3  669   3.919   3.359  11.166 -0.6648 -1.3560  0.3206
    6SAPS   C12  670   3.793   3.202  11.120 -0.4121  0.0698  0.2255
    6SAPS  H12A  671   3.810   3.148  11.212  1.3024  0.9996  0.4746
    6SAPS   C13  672   3.662   3.269  11.126  0.6228  0.1732  0.1367
    6SAPS  O13A  673   3.658   3.397  11.113  0.2713  0.3789  0.3270
    6SAPS  O13B  674   3.559   3.200  11.150 -0.2095  0.7110  0.1744
    6SAPS   C11  675   3.790   3.097  11.006  0.1242 -0.3990 -0.1676
    6SAPS  H11A  676   3.714   3.021  11.032 -1.1446  0.7959 -0.2821
    6SAPS  H11B  677   3.882   3.036  11.009 -0.3194 -1.0730 -0.1951
    6SAPS     P  678   3.657   3.147  10.769 -0.1647  0.0354 -0.5608
    6SAPS   O13  679   3.577   3.028  10.790 -0.4769  0.1830 -0.2533
    6SAPS   O14  680   3.587   3.277  10.774  0.2458  0.6468  0.1820
    6SAPS   O12  681   3.775   3.160  10.879 -0.2053 -0.0708  0.0193
    6SAPS   O11  682   3.744   3.145  10.637 -0.1921  0.2387  0.3276
    6SAPS    C1  683   3.808   3.024  10.598 -0.7591 -0.8188  0.0786
    6SAPS    HA  684   3.917   3.032  10.580 -0.8713 -0.9538 -0.7001
    6SAPS    HB  685   3.790   2.947  10.677 -1.1664 -1.2649 -0.4426
    6SAPS    C2  686   3.752   2.975  10.466 -0.1703  0.2784  0.6563
    6SAPS    HS  687   3.819   2.891  10.441 -0.3444  0.8930 -2.1351
    6SAPS   O21  688   3.766   3.075  10.360 -0.3114  0.1207  0.2085
    6SAPS   C21  689   3.886   3.104  10.316 -0.0043  0.4318  0.0041
    6SAPS   O22  690   3.990   3.047  10.341 -0.0788  0.6726 -0.2073
    6SAPS   C22  691   3.875   3.217  10.215  0.1075 -0.3943  0.4834
    6SAPS   H2R  692   3.816   3.187  10.126  0.6788  0.1435 -0.0767
    6SAPS   H2S  693   3.811   3.293  10.265  0.8975  1.6947 -1.6123
    6SAPS    C3  694   3.603   2.931  10.474 -0.5136  0.1335  0.6233
    6SAPS    HX  695   3.551   3.025  10.503  0.7065  0.7785  0.7707
    6SAPS    HY  696   3.593   2.862  10.560 -2.7344 -0.1350  0.1864
    6SAPS   O31  697   3.570   2.869  10.352  0.7961  0.4968 -0.1269
    6SAPS   C31  698   3.440   2.855  10.322 -0.6539  0.0513  0.1478
    6SAPS   O32  699   3.345   2.902  10.388 -0.7899  0.4617  0.2335
    6SAPS   C32  700   3.445   2.775  10.191  0.7004 -0.5899  0.1509
    6SAPS   H2X  701   3.514   2.690  10.206  1.8195 -0.0906 -2.0221
    6SAPS   H2Y  702   3.493   2.844  10.119 -0.3149 -1.1849 -1.1086
    6SAPS   C23  703   4.007   3.283  10.180 -0.2349  0.5608  0.3038
    6SAPS   H3R  704   4.054   3.314  10.276  2.1132 -0.0392 -0.6292
    6SAPS   H3S  705   3.993   3.377  10.122  3.4977  0.9174 -0.0962
    6SAPS   C24  706   4.101   3.206  10.089 -1.0224  0.7593 -0.0886
    6SAPS   H4R  707   4.052   3.174   9.994 -0.4783  2.6651 -1.0233
    6SAPS   H4S  708   4.140   3.112  10.135  2.3936  1.9602 -0.3814
    6SAPS   C25  709   4.228   3.274  10.060  0.4287 -0.0299  0.5395
    6SAPS   H5R  710   4.301   3.264  10.141 -0.0909 -0.2723  0.9876
    6SAPS   C26  711   4.253   3.334   9.944 -0.0555 -0.7680  0.5510
    6SAPS   H6R  712   4.344   3.394   9.934 -1.4265  1.0085 -2.1694
    6SAPS   C27  713   4.168   3.348   9.819  0.4302  0.2515 -0.7016
    6SAPS   H7R  714   4.154   3.454   9.790 -2.3694 -0.2444 -1.3204
    6SAPS   H7S  715   4.064   3.314   9.840  1.2997 -0.3473  3.1061
    6SAPS   C28  716   4.216   3.265   9.700 -0.3011  0.1026  0.8208
    6SAPS   H8R  717   4.200   3.156   9.701 -0.3937  0.0517 -2.1471
    6SAPS   C29  718   4.296   3.305   9.595 -0.3261 -0.2440  0.5846
    6SAPS   H9R  719   4.315   3.238   9.510  1.6829 -1.2897  1.8203
    6SAPS  C210  720   4.361   3.440   9.580 -0.0113 -0.6522 -0.1865
    6SAPS  H10R  721   4.378   3.491   9.678 -0.2178 -0.6937 -0.1279
    6SAPS  H10S  722   4.285   3.498   9.523  2.8723  2.7226 -0.7322
    6SAPS  C211  723   4.483   3.420   9.499  0.2270 -0.2932 -0.0194
    6SAPS  H11R  724   4.561   3.352   9.536  1.6713  1.2242 -0.1898
    6SAPS  C212  725   4.516   3.479   9.386 -0.4055 -0.2196  0.4104
    6SAPS  H12R  726   4.614   3.453   9.344 -0.7968 -0.4467 -0.3794
    6SAPS  C213  727   4.431   3.587   9.314  0.1054  0.1993 -0.2439
    6SAPS  H13R  728   4.351   3.638   9.370  1.4828  1.2595  0.7810
    6SAPS  H13S  729   4.400   3.556   9.212 -0.7307 -0.4701  0.2080
    6SAPS  C214  730   4.539   3.694   9.293  0.0177 -0.1575  0.3998
    6SAPS  H14R  731   4.568   3.752   9.382 -0.5823 -1.0885  1.2122
    6SAPS  C215  732   4.598   3.726   9.175  0.1349 -0.2239  0.4190
    6SAPS  H15R  733   4.675   3.804   9.179 -0.1437  0.0282  1.0048
    6SAPS  C216  734   4.575   3.664   9.036  0.4384 -0.5085 -0.7711
    6SAPS  H16R  735   4.530   3.739   8.968 -1.1440 -0.7281  0.0173
    6SAPS  H16S  736   4.509   3.575   9.037  1.2452 -1.1153 -0.6377
    6SAPS  C217  737   4.692   3.611   8.959 -0.3403  0.1147  0.1365
    6SAPS  H17R  738   4.714   3.504   8.976 -1.7276  0.0104  1.3692
    6SAPS  H17S  739   4.785   3.665   8.988  1.3908 -2.0706 -1.1574
    6SAPS  C218  740   4.668   3.636   8.810 -0.7898  0.2617 -0.0988
    6SAPS  H18R  741   4.762   3.606   8.759  0.0453 -1.6739  2.4707
    6SAPS  H18S  742   4.659   3.746   8.801  1.1203  0.3373 -1.3002
    6SAPS  C219  743   4.546   3.565   8.747 -0.0835 -0.3771 -0.2848
    6SAPS  H19R  744   4.455   3.621   8.776  1.8969  2.1662  1.1820
    6SAPS  H19S  745   4.546   3.465   8.796 -1.7125 -1.0305 -1.5644
    6SAPS  C220  746   4.540   3.548   8.594  0.2449 -0.4013 -0.7196
    6SAPS  H20R  747   4.622   3.481   8.561  0.3979 -1.4962  1.8307
    6SAPS  H20S  748   4.569   3.645   8.548 -0.2163  1.0913  2.0517
    6SAPS  H20T  749   4.439   3.514   8.563 -0.2517  0.8641 -0.5272
    6SAPS   C33  750   3.305   2.724  10.148  0.2566  0.3663 -0.0665
    6SAPS   H3X  751   3.235   2.804  10.114  0.8291  0.5613 -0.7907
    6SAPS   H3Y  752   3.253   2.684  10.238 -0.2008  0.4053 -0.3124
    6SAPS   C34  753   3.308   2.628  10.025 -0.3779  0.1172 -0.1282
    6SAPS   H4X  754   3.209   2.582  10.002  0.0369 -0.4421 -0.8122
    6SAPS   H4Y  755   3.381   2.549  10.053 -1.1086 -0.7210 -0.5721
    6SAPS   C35  756   3.361   2.706   9.900 -0.0570 -0.1692 -0.7643
    6SAPS   H5X  757   3.462   2.749   9.921  0.7470 -1.6839 -1.4114
    6SAPS   H5Y  758   3.285   2.783   9.879 -0.0305  0.6518  2.0614
    6SAPS   C36  759   3.378   2.617   9.767 -0.5514 -0.2998 -0.9156
    6SAPS   H6X  760   3.289   2.552   9.762 -0.1649 -1.0629  1.4875
    6SAPS   H6Y  761   3.468   2.553   9.785 -1.0004 -0.4697  0.8943
    6SAPS   C37  762   3.380   2.711   9.650 -0.4329 -0.2035 -0.0236
    6SAPS   H7X  763   3.444   2.797   9.680 -1.8735  0.8770  0.0670
    6SAPS   H7Y  764   3.283   2.762   9.628  0.3876  1.2435 -0.3709
    6SAPS   C38  765   3.431   2.644   9.523  0.4688  1.2425 -0.3487
    6SAPS   H8X  766   3.350   2.575   9.490  0.3340  0.5260  1.3919
    6SAPS   H8Y  767   3.528   2.601   9.554 -0.3462  1.0266  2.0164
    6SAPS   C39  768   3.463   2.745   9.413 -0.2772  0.2127 -0.9388
    6SAPS   H9X  769   3.530   2.825   9.451 -0.0220 -0.1072 -0.7081
    6SAPS   H9Y  770   3.372   2.792   9.372 -0.2507  0.9839 -0.1253
    6SAPS  C310  771   3.514   2.677   9.282 -0.2125 -0.5240 -0.5966
    6SAPS  H10X  772   3.477   2.573   9.280 -2.9813  0.4088  0.6311
    6SAPS  H10Y  773   3.625   2.666   9.276 -0.3255 -3.7747  1.6360
    6SAPS  C311  774   3.461   2.734   9.147  0.1715  0.2062  0.6230
    6SAPS  H11X  775   3.485   2.842   9.135 -1.8251  0.6736  0.6668
    6SAPS  H11Y  776   3.350   2.727   9.143  0.4051 -3.0549 -2.0168
    6SAPS  C312  777   3.517   2.641   9.035  0.2798  0.4312  0.1959
    6SAPS  H12X  778   3.513   2.533   9.064 -1.4441  0.2920 -0.5067
    6SAPS  H12Y  779   3.624   2.669   9.033  0.5856 -0.7065  0.1054
    6SAPS  C313  780   3.453   2.668   8.901  0.3357 -0.1135 -1.2159
    6SAPS  H13X  781   3.343   2.655   8.910  0.4409  0.9811  2.2901
    6SAPS  H13Y  782   3.497   2.599   8.825  1.0166 -1.1964  0.1502
    6SAPS  C314  783   3.476   2.802   8.848  0.0541  0.5691  0.3535
    6SAPS  H14X  784   3.583   2.830   8.841  0.4588 -1.1457 -0.5255
    6SAPS  H14Y  785   3.420   2.871   8.915 -0.3376  1.7908 -1.2054
    6SAPS  C315  786   3.419   2.819   8.710  0.3924  0.5002 -0.5296
    6SAPS  H15X  787   3.310   2.795   8.712 -0.4230  4.0178  1.2780
    6SAPS  H15Y  788   3.481   2.765   8.635  4.1199  2.0013  1.3777
    6SAPS  C316  789   3.425   2.967   8.657  0.2050 -0.0475 -0.3891
    6SAPS  H16X  790   3.360   3.021   8.728  0.7951  0.2838 -0.0977
    6SAPS  H16Y  791   3.378   2.971   8.556 -0.5665  0.3162 -0.0151
    6SAPS  C317  792   3.563   3.030   8.640 -0.1665 -0.5328 -0.3296
    6SAPS  H17X  793   3.609   2.980   8.552 -0.3609  0.6868 -1.1285
    6SAPS  H17Y  794   3.612   3.011   8.738 -1.9103 -1.3393  0.4260
    6SAPS  C318  795   3.547   3.174   8.611  0.2590  0.6132 -0.1452
    6SAPS  H18X  796   3.493   3.237   8.685 -0.7312 -0.6715  0.2385
    6SAPS  H18Y  797   3.489   3.187   8.517 -0.3901  1.2141  0.3261
    6SAPS  H18Z  798   3.646   3.222   8.597 -0.2166  1.2436 -1.4775
    7SAPS     N  799   6.090   4.193  10.763 -0.1718 -0.6288 -0.1255
    7SAPS   HN1  800   6.098   4.153  10.668 -0.1487  0.3864 -0.5601
    7SAPS   HN2  801   6.027   4.277  10.762  1.6490  0.7739  0.2284
    7SAPS   HN3  802   6.178   4.233  10.801  0.5261 -1.1327 -1.2167
    7SAPS   C12  803   6.031   4.086  10.856  0.0629 -0.5884  0.0173
    7SAPS  H12A  804   6.106   4.010  10.846  0.0122 -0.3571 -2.3898
    7SAPS   C13  805   6.019   4.137  11.002  0.0064 -0.0184 -0.3382
    7SAPS  O13A  806   6.046   4.255  11.026 -0.0332 -0.1748 -1.1087
    7SAPS  O13B  807   5.990   4.055  11.094  0.5081  0.4748  0.2714
    7SAPS   C11  808   5.897   4.039  10.799 -0.3786  0.3836  1.0067
    7SAPS  H11A  809   5.822   4.121  10.793  0.3719  0.9659 -0.5475
    7SAPS  H11B  810   5.855   3.957  10.861  0.1426 -1.7966 -1.4687
    7SAPS     P  811   5.801   3.901  10.592 -0.1438  0.2233 -0.2351
    7SAPS   O13  812   5.782   3.773  10.671 -0.6363 -0.2299 -0.4495
    7SAPS   O14  813   5.684   3.987  10.589 -0.2288  0.6358 -0.2841
    7SAPS   O12  814   5.919   3.987  10.663  0.1323  0.1775  0.6127
    7SAPS   O11  815   5.856   3.869  10.444 -0.6396  0.0234 -0.8073
    7SAPS    C1  816   6.002   3.851  10.433  0.3110  0.1953  0.1214
    7SAPS    HA  817   6.058   3.930  10.489 -0.1922 -0.6630  1.8647
    7SAPS    HB  818   6.036   3.752  10.470 -2.5324 -0.0976  2.0751
    7SAPS    C2  819   6.054   3.852  10.281 -0.1568  0.0313 -0.0219
    7SAPS    HS  820   6.160   3.820  10.286  0.3379  1.8182  2.2264
    7SAPS   O21  821   6.034   3.984  10.221 -0.4783  0.3251 -0.0505
    7SAPS   C21  822   6.113   4.075  10.267  0.7182 -0.2248  0.0825
    7SAPS   O22  823   6.199   4.065  10.352  0.1629 -0.4185  0.5639
    7SAPS   C22  824   6.089   4.198  10.181 -0.4090  0.2374  0.0981
    7SAPS   H2R  825   6.014   4.261  10.234 -1.4604 -1.7345  0.9919
    7SAPS   H2S  826   6.180   4.261  10.189  0.3998 -0.9187  0.0110
    7SAPS    C3  827   5.975   3.753  10.200  0.1432  0.2543  0.4321
    7SAPS    HX  828   5.871   3.793  10.197 -0.7858 -2.1373 -1.1583
    7SAPS    HY  829   5.977   3.650  10.240  1.0557  0.0151 -0.2235
    7SAPS   O31  830   6.016   3.742  10.063 -0.1424  0.3756 -0.0090
    7SAPS   C31  831   6.129   3.678  10.045 -0.0126 -0.2379  0.6698
    7SAPS   O32  832   6.181   3.610  10.127 -0.2693 -0.6698  0.5706
    7SAPS   C32  833   6.179   3.699   9.902 -0.0915  0.0291  0.4088
    7SAPS   H2X  834   6.245   3.786   9.919  0.7077 -0.6396  0.7618
    7SAPS   H2Y  835   6.094   3.724   9.835  0.8630  0.8416 -0.5120
    7SAPS   C23  836   6.066   4.182  10.032  0.2120  0.7967 -0.0658
    7SAPS   H3R  837   5.961   4.161  10.004 -0.1905  0.8160  1.3830
    7SAPS   H3S  838   6.134   4.102   9.994 -2.8336 -0.9084 -2.0870
    7SAPS   C24  839   6.092   4.316   9.956 -0.3002  0.7301 -0.3764
    7SAPS   H4R  840   6.199   4.340   9.976 -0.0188  0.8997 -2.0677
    7SAPS   H4S  841   6.030   4.397   9.999 -1.0171  0.9732 -1.8379
    7SAPS   C25  842   6.073   4.309   9.807 -0.0047  0.5293  0.7304
    7SAPS   H5R  843   5.968   4.286   9.783  0.0029  1.9392 -0.6868
    7SAPS   C26  844   6.160   4.308   9.709 -0.2895  0.1305  0.9451
    7SAPS   H6R  845   6.119   4.308   9.607  0.9735  0.2953  0.4199
    7SAPS   C27  846   6.312   4.306   9.719  0.3345 -0.1506  0.2479
    7SAPS   H7R  847   6.334   4.406   9.763 -0.6598  0.5448 -0.8008
    7SAPS   H7S  848   6.359   4.310   9.619  1.0723  0.2557  0.6046
    7SAPS   C28  849   6.366   4.196   9.808  0.4030  0.8023  0.8819
    7SAPS   H8R  850   6.399   4.244   9.901  1.0822  3.6215 -0.7566
    7SAPS   C29  851   6.383   4.064   9.782 -0.3513 -0.1816 -0.1588
    7SAPS   H9R  852   6.421   4.007   9.868  1.3739  1.7828  0.4303
    7SAPS  C210  853   6.348   3.981   9.668  0.3896  0.0017  0.1108
    7SAPS  H10R  854   6.262   4.026   9.613  1.4009  1.6262 -0.1899
    7SAPS  H10S  855   6.312   3.882   9.702 -0.5362 -0.4911 -2.2251
    7SAPS  C211  856   6.455   3.946   9.572 -0.5329  0.1927 -0.3205
    7SAPS  H11R  857   6.540   3.884   9.603 -0.3702 -0.0308 -1.2025
    7SAPS  C212  858   6.452   3.983   9.446 -0.2829  0.9269 -0.6762
    7SAPS  H12R  859   6.538   3.959   9.382  1.2517 -0.1264  1.7346
    7SAPS  C213  860   6.353   4.065   9.366  0.5593 -0.0718 -0.4554
    7SAPS  H13R  861   6.263   4.094   9.424  2.0968  0.4447  1.7158
    7SAPS  H13S  862   6.323   4.008   9.275 -0.1790  0.2726 -0.4290
    7SAPS  C214  863   6.415   4.192   9.310  0.4321 -0.2462 -0.8163
    7SAPS  H14R  864   6.513   4.215   9.354  1.4532 -1.2541 -2.4837
    7SAPS  C215  865   6.349   4.270   9.218 -0.2101  0.0316 -0.4567
    7SAPS  H15R  866   6.398   4.363   9.188 -3.0721  1.8550  0.3716
    7SAPS  C216  867   6.214   4.238   9.154 -0.6640 -0.7441 -0.3121
    7SAPS  H16R  868   6.148   4.327   9.163 -0.3225 -0.4655 -0.5927
    7SAPS  H16S  869   6.159   4.152   9.198 -2.5083  0.8488  0.5860
    7SAPS  C217  870   6.235   4.218   9.004  0.7170  0.1525 -0.1106
    7SAPS  H17R  871   6.295   4.301   8.962  1.1567  0.8151  1.7589
    7SAPS  H17S  872   6.141   4.224   8.946 -0.0258 -1.0777  0.9143
    7SAPS  C218  873   6.309   4.082   8.978  0.1742 -0.5067  0.4200
    7SAPS  H18R  874   6.241   3.997   9.000 -2.7145  2.0859  1.9024
    7SAPS  H18S  875   6.393   4.069   9.048  0.7295  0.1729 -0.1122
    7SAPS  C219  876   6.354   4.078   8.840  0.6024  0.1114 -0.2466
    7SAPS  H19R  877   6.426   3.994   8.836 -0.8280 -1.1182 -1.0295
    7SAPS  H19S  878   6.411   4.171   8.818  1.5546 -0.1815  0.9607
    7SAPS  C220  879   6.244   4.057   8.735  0.3345  0.7199  0.5881
    7SAPS  H20R  880   6.168   4.137   8.744  1.4706  2.0052 -0.9397
    7SAPS  H20S  881   6.203   3.958   8.767  0.2267  0.8122  0.7355
    7SAPS  H20T  882   6.289   4.060   8.634 -0.5123  0.2499  0.1959
    7SAPS   C33  883   6.274   3.581   9.850  0.6027 -0.3678  0.1630
    7SAPS   H3X  884   6.207   3.494   9.832  0.4797 -0.3026  0.3103
    7SAPS   H3Y  885   6.342   3.542   9.929  1.2672  1.8149  0.7023
    7SAPS   C34  886   6.334   3.613   9.711 -0.0500  0.0035  0.6017
    7SAPS   H4X  887   6.403   3.528   9.693  1.8335  1.7363 -0.5760
    7SAPS   H4Y  888   6.396   3.704   9.700  0.2608 -0.2873 -0.0572
    7SAPS   C35  889   6.219   3.629   9.611 -0.1659 -1.5317 -0.5333
    7SAPS   H5X  890   6.171   3.728   9.621  0.3175 -1.3307 -0.1354
    7SAPS   H5Y  891   6.146   3.547   9.626 -1.5566 -0.0949  0.6590
    7SAPS   C36  892   6.278   3.629   9.467 -0.3485  0.3166  0.4205
    7SAPS   H6X  893   6.307   3.522   9.454 -1.7279  0.0995 -1.0371
    7SAPS   H6Y  894   6.372   3.687   9.464  1.4765 -2.5415  0.3668
    7SAPS   C37  895   6.172   3.686   9.370 -0.2044  0.4335 -0.9030
    7SAPS   H7X  896   6.165   3.795   9.389  3.4415  0.3144  1.5621
    7SAPS   H7Y  897   6.084   3.619   9.384 -0.4855  1.1383  0.8433
    7SAPS   C38  898   6.217   3.678   9.221 -0.5019 -0.5495  0.1408
    7SAPS   H8X  899   6.263   3.578   9.208  2.3840  0.8545 -0.7093
    7SAPS   H8Y  900   6.284   3.762   9.194 -1.4714 -0.3090 -1.6227
    7SAPS   C39  901   6.098   3.690   9.119 -0.0000  0.3208 -0.2779
    7SAPS   H9X  902   6.034   3.602   9.139 -1.4423  1.3361 -0.3328
    7SAPS   H9Y  903   6.144   3.679   9.018  0.0852 -2.0151 -0.0135
    7SAPS  C310  904   6.015   3.816   9.143  0.1159 -0.2874  0.3680
    7SAPS  H10X  905   6.072   3.907   9.173  0.2781  0.2281 -1.4389
    7SAPS  H10Y  906   5.951   3.790   9.229  1.2132  1.0596  1.6068
    7SAPS  C311  907   5.912   3.859   9.029 -0.3585  0.4979  0.4414
    7SAPS  H11X  908   5.965   3.842   8.932  0.6784 -0.2324  1.1202
    7SAPS  H11Y  909   5.881   3.961   9.061 -0.6548  0.0779  1.5050
    7SAPS  C312  910   5.788   3.773   9.018 -0.3162  0.4508  0.2787
    7SAPS  H12X  911   5.735   3.777   9.115  0.5236 -1.6504  0.8471
    7SAPS  H12Y  912   5.814   3.670   8.987  0.8440  0.5707  0.8650
    7SAPS  C313  913   5.686   3.825   8.918 -0.3637  0.1800 -0.8565
    7SAPS  H13X  914   5.729   3.919   8.875 -2.2449  2.1275  1.3677
    7SAPS  H13Y  915   5.597   3.843   8.982 -0.6382  0.9910 -1.4498
    7SAPS  C314  916   5.661   3.711   8.818 -0.0993  0.3520 -0.4897
    7SAPS  H14X  917   5.622   3.633   8.887 -0.2760 -0.0635 -1.0562
    7SAPS  H14Y  918   5.761   3.678   8.783  0.2959 -0.9005  1.6817
    7SAPS  C315  919   5.555   3.739   8.712  0.8304  0.5633 -0.6637
    7SAPS  H15X  920   5.588   3.810   8.633  2.3443 -0.8768 -1.3361
    7SAPS  H15Y  921   5.466   3.777   8.768  1.0143 -0.3765  0.2722
    7SAPS  C316  922   5.517   3.605   8.649  0.4091  0.8433  0.3743
    7SAPS  H16X  923   5.509   3.521   8.721 -1.3080  0.0861 -0.6809
    7SAPS  H16Y  924   5.604   3.578   8.585 -0.1462 -3.3008  1.2354
    7SAPS  C317  925   5.392   3.595   8.562 -0.7812  0.7775  0.3576
    7SAPS  H17X  926   5.398   3.685   8.497  2.9405 -0.2087 -0.7680
    7SAPS  H17Y  927   5.305   3.605   8.632 -0.1504  1.7523  1.0130
    7SAPS  C318  928   5.391   3.465   8.483 -0.2235 -0.7293  0.9124
    7SAPS  H18X  929   5.396   3.378   8.551  2.6196 -1.4150 -0.1202
    7SAPS  H18Y  930   5.473   3.469   8.409 -1.2520 -2.4687 -0.3432
    7SAPS  H18Z  931   5.295   3.460   8.426 -0.0618  2.1589  0.3136
    8SAPS     N  932   4.263   5.995  11.265 -0.2130 -0.0113 -0.5703
    8SAPS   HN1  933   4.367   6.001  11.263 -0.0262 -2.2320  0.4742
    8SAPS   HN2  934   4.220   6.044  11.347 -0.5182 -0.1105 -0.6703
    8SAPS   HN3  935   4.226   5.898  11.262 -1.5021  0.4329  0.2013
    8SAPS   C12  936   4.206   6.066  11.145 -0.2623 -0.3763  1.0479
    8SAPS  H12A  937   4.118   6.008  11.122 -0.4871  1.1771 -2.1855
    8SAPS   C13  938   4.157   6.205  11.175 -0.1236  0.1226 -0.1388
    8SAPS  O13A  939   4.188   6.258  11.282 -0.5470  0.6455 -0.6236
    8SAPS  O13B  940   4.097   6.269  11.088 -0.1342  0.2381  0.3460
    8SAPS   C11  941   4.302   6.064  11.019 -0.8480 -0.0365  0.2499
    8SAPS  H11A  942   4.391   6.130  11.026 -0.0940 -0.8592 -1.5147
    8SAPS  H11B  943   4.238   6.100  10.936  2.2881  1.3713 -1.6426
    8SAPS     P  944   4.427   5.881  10.868  0.0805 -0.0542 -0.4303
    8SAPS   O13  945   4.462   5.994  10.778 -0.2386 -0.2228  0.4782
    8SAPS   O14  946   4.544   5.797  10.908 -0.3585 -0.2196 -0.0435
    8SAPS   O12  947   4.347   5.928  10.992  0.5186 -0.1202  0.0675
    8SAPS   O11  948   4.317   5.792  10.786 -0.4098  0.2578 -0.5736
    8SAPS    C1  949   4.174   5.801  10.788 -0.1290  0.0388  0.1521
    8SAPS    HA  950   4.142   5.697  10.809  1.0479 -0.2542  0.5525
    8SAPS    HB  951   4.140   5.862  10.875  0.4818 -0.6311  0.8689
    8SAPS    C2  952   4.098   5.847  10.654 -0.5016  0.0852  0.2599
    8SAPS    HS  953   3.991   5.819  10.662  0.1191 -1.7198  2.9450
    8SAPS   O21  954   4.161   5.789  10.538  0.1358  0.1321  0.2087
    8SAPS   C21  955   4.144   5.656  10.533  0.1457  0.2239  0.0777
    8SAPS   O22  956   4.080   5.589  10.609 -0.5427 -0.1000  0.1377
    8SAPS   C22  957   4.208   5.606  10.402  0.0826 -0.5188 -0.1732
    8SAPS   H2R  958   4.141   5.626  10.315  0.7217  0.3300 -0.4868
    8SAPS   H2S  959   4.288   5.675  10.368 -0.0931 -0.5111 -0.5783
    8SAPS    C3  960   4.114   6.001  10.638  0.4472 -0.0221 -0.2925
    8SAPS    HX  961   4.223   6.009  10.617  0.4883  0.1724 -0.0089
    8SAPS    HY  962   4.086   6.050  10.734 -0.6260 -2.0148  0.4322
    8SAPS   O31  963   4.030   6.041  10.530  0.6240 -0.1009 -0.2892
    8SAPS   C31  964   4.085   6.095  10.424 -0.2312 -0.5051 -0.5713
    8SAPS   O32  965   4.202   6.118  10.405  0.0476 -0.1814  0.2916
    8SAPS   C32  966   3.981   6.125  10.320  0.7431  0.0143 -0.2027
    8SAPS   H2X  967   3.935   6.226  10.317 -1.1570 -0.8731 -2.2395
    8SAPS   H2Y  968   3.893   6.063  10.349  1.7117 -0.6261  1.4217
    8SAPS   C23  969   4.258   5.468  10.414 -0.1153  0.1508  0.5680
    8SAPS   H3R  970   4.179   5.408  10.464 -1.7008  0.9805 -0.9119
    8SAPS   H3S  971   4.350   5.457  10.475  0.5260  1.8798 -0.0335
    8SAPS   C24  972   4.293   5.410  10.278  0.7324  0.0613  0.5862
    8SAPS   H4R  973   4.392   5.445  10.242  0.0932  0.6601 -0.6273
    8SAPS   H4S  974   4.222   5.439  10.197 -0.1079  2.0439  2.0103
    8SAPS   C25  975   4.299   5.261  10.296 -0.5432 -0.4833 -0.8657
    8SAPS   H5R  976   4.338   5.239  10.397  0.7458 -0.2895 -1.3048
    8SAPS   C26  977   4.252   5.158  10.220  0.4929  0.4454 -0.0592
    8SAPS   H6R  978   4.282   5.056  10.248  0.6900  0.3022 -0.7900
    8SAPS   C27  979   4.175   5.172  10.087  0.2129  0.5288 -0.3324
    8SAPS   H7R  980   4.243   5.225  10.017  0.7025 -0.2270 -0.4273
    8SAPS   H7S  981   4.081   5.231  10.096  0.8265  1.9686 -3.0012
    8SAPS   C28  982   4.134   5.036  10.033 -0.2219  0.2665 -0.2909
    8SAPS   H8R  983   4.060   4.985  10.097  0.7731 -1.6931 -0.6610
    8SAPS   C29  984   4.151   4.995   9.905 -0.2989  0.0764  0.1946
    8SAPS   H9R  985   4.113   4.897   9.876 -0.8760  0.1981  0.5369
    8SAPS  C210  986   4.227   5.068   9.797 -0.7227  0.1321  0.0214
    8SAPS  H10R  987   4.301   5.142   9.833 -1.2244  0.9472 -0.6001
    8SAPS  H10S  988   4.151   5.134   9.750 -2.8691 -1.5807  1.0016
    8SAPS  C211  989   4.303   4.984   9.696 -0.5660  0.3134  0.0088
    8SAPS  H11R  990   4.364   4.907   9.745  0.0281  1.2845  0.8180
    8SAPS  C212  991   4.319   5.012   9.563  0.2698 -0.2010  0.3391
    8SAPS  H12R  992   4.386   4.951   9.501 -0.4229  1.1448 -1.7977
    8SAPS  C213  993   4.270   5.133   9.482  0.5208  0.3021 -0.0950
    8SAPS  H13R  994   4.342   5.159   9.402 -0.1542  0.8157 -0.5412
    8SAPS  H13S  995   4.267   5.219   9.553 -0.4482 -0.0360  0.2795
    8SAPS  C214  996   4.134   5.120   9.424  0.2387  0.3356  0.9351
    8SAPS  H14R  997   4.053   5.084   9.489  0.3430  0.0502  0.9093
    8SAPS  C215  998   4.097   5.138   9.291 -0.1347 -0.6431  0.3746
    8SAPS  H15R  999   3.994   5.109   9.263  0.3918 -0.4404 -1.8407
    8SAPS  C216 1000   4.187   5.177   9.172 -0.1568  0.3744  0.5046
    8SAPS  H16R 1001   4.271   5.105   9.171 -0.7470 -0.3139 -0.1126
    8SAPS  H16S 1002   4.227   5.280   9.189 -0.1146  0.4249  0.1206
    8SAPS  C217 1003   4.119   5.163   9.032  1.1304 -0.3402 -0.2328
    8SAPS  H17R 1004   4.025   5.224   9.033  2.4961  1.8376 -1.1270
    8SAPS  H17S 1005   4.090   5.057   9.016 -0.5593 -0.0509  0.7593
    8SAPS  C218 1006   4.197   5.206   8.911 -0.0860 -0.0003  0.0511
    8SAPS  H18R 1007   4.214   5.314   8.925  1.4043 -0.1102 -0.8129
    8SAPS  H18S 1008   4.134   5.174   8.825 -0.9741 -2.2323  1.4725
    8SAPS  C219 1009   4.332   5.142   8.890  0.2834 -1.2784  0.5403
    8SAPS  H19R 1010   4.330   5.032   8.907  0.1134 -1.5347 -1.0026
    8SAPS  H19S 1011   4.403   5.184   8.963 -0.1809  0.3326  0.0823
    8SAPS  C220 1012   4.391   5.171   8.751  0.5454  0.0292  0.0115
    8SAPS  H20R 1013   4.481   5.108   8.737  0.7798 -0.2027  2.3742
    8SAPS  H20S 1014   4.407   5.276   8.720 -1.8008  0.3199 -0.3017
    8SAPS  H20T 1015   4.329   5.122   8.672 -0.2193  0.6999  0.1955
    8SAPS   C33 1016   4.023   6.070  10.184  0.2501  0.2273  0.3837
    8SAPS   H3X 1017   4.063   5.967  10.187  0.0543  0.1125 -0.6751
    8SAPS   H3Y 1018   4.092   6.140  10.131  0.3799  0.7552  1.2438
    8SAPS   C34 1019   3.901   6.041  10.088 -0.7541 -0.6852  0.1060
    8SAPS   H4X 1020   3.842   6.135  10.095 -0.6190 -0.6090  0.2270
    8SAPS   H4Y 1021   3.838   5.966  10.141 -2.2835  0.2989 -0.3010
    8SAPS   C35 1022   3.925   5.993   9.944 -0.2701  0.3251  0.4193
    8SAPS   H5X 1023   3.838   5.933   9.911  2.6360 -2.5729 -2.3862
    8SAPS   H5Y 1024   4.013   5.925   9.943  0.4530  1.2072  2.1638
    8SAPS   C36 1025   3.953   6.099   9.840 -0.4935  0.3370  0.5726
    8SAPS   H6X 1026   4.035   6.155   9.888  0.1902 -1.5392  1.6727
    8SAPS   H6Y 1027   3.871   6.173   9.829  1.5122  2.6885  1.0650
    8SAPS   C37 1028   4.005   6.042   9.699  0.1303  0.1348  0.1333
    8SAPS   H7X 1029   4.092   5.977   9.723  0.1185  0.9047  2.3148
    8SAPS   H7Y 1030   4.057   6.123   9.641  0.4478 -1.5675 -2.0411
    8SAPS   C38 1031   3.901   5.973   9.613 -0.0321 -0.4116 -0.3611
    8SAPS   H8X 1032   3.833   6.056   9.582 -0.9793 -0.9408  0.2777
    8SAPS   H8Y 1033   3.849   5.900   9.680  0.3132 -0.8133 -0.5324
    8SAPS   C39 1034   3.965   5.899   9.495 -0.0414  0.3354  0.1427
    8SAPS   H9X 1035   3.895   5.879   9.411  1.2250  0.1480 -0.8895
    8SAPS   H9Y 1036   4.013   5.803   9.525 -0.2071  0.1695 -0.1251
    8SAPS  C310 1037   4.084   5.973   9.424 -0.0036 -0.7320  0.1836
    8SAPS  H10X 1038   4.182   5.947   9.470 -0.2779 -0.6846  0.8053
    8SAPS  H10Y 1039   4.067   6.082   9.437 -0.9239 -0.6701 -1.4520
    8SAPS  C311 1040   4.094   5.950   9.274 -0.3084  0.4401  0.4895
    8SAPS  H11X 1041   4.012   5.994   9.213 -0.7617  0.9992  1.5081
    8SAPS  H11Y 1042   4.068   5.843   9.261 -3.2847  1.1345  0.5258
    8SAPS  C312 1043   4.235   5.984   9.214 -0.3050 -0.4974  0.2111
    8SAPS  H12X 1044   4.314   5.947   9.284  0.3786 -1.0354 -0.8261
    8SAPS  H12Y 1045   4.247   6.094   9.204  1.6792 -0.4763  2.3110
    8SAPS  C313 1046   4.276   5.912   9.096 -0.3800  0.2902  0.2893
    8SAPS  H13X 1047   4.224   5.957   9.009  0.7182 -1.9058 -1.5656
    8SAPS  H13Y 1048   4.238   5.808   9.098 -0.4396  0.1883 -2.7978
    8SAPS  C314 1049   4.429   5.912   9.083 -0.8244 -0.2985  0.5333
    8SAPS  H14X 1050   4.478   5.866   9.172 -1.8819 -2.2902  0.1213
    8SAPS  H14Y 1051   4.464   6.016   9.071 -1.1576 -0.3962 -1.4145
    8SAPS  C315 1052   4.485   5.845   8.956  0.2248  0.0957 -0.6552
    8SAPS  H15X 1053   4.564   5.909   8.912  1.1575 -1.6327 -1.5527
    8SAPS  H15Y 1054   4.403   5.832   8.883  1.2812 -2.2888 -1.4487
    8SAPS  C316 1055   4.546   5.709   8.983  0.1476  0.2000 -0.0018
    8SAPS  H16X 1056   4.473   5.651   9.044 -1.3475 -0.8866 -2.7750
    8SAPS  H16Y 1057   4.638   5.698   9.044 -0.9260 -1.7707  1.3005
    8SAPS  C317 1058   4.595   5.630   8.859 -0.2890  0.6471  0.2104
    8SAPS  H17X 1059   4.665   5.686   8.793  0.6232  3.5273  3.4883
    8SAPS  H17Y 1060   4.506   5.610   8.797  1.8734  0.2973 -2.8970
    8SAPS  C318 1061   4.666   5.500   8.899  0.5549 -0.1915  0.3997
    8SAPS  H18X 1062   4.715   5.440   8.819  0.3605 -0.4664  0.4875
    8SAPS  H18Y 1063   4.598   5.434   8.957 -0.3949 -0.7057 -1.2705
    8SAPS  H18Z 1064   4.750   5.517   8.971  0.9390 -0.5458  0.0429
    9SAPS     N 1065   0.579   0.892   6.320  0.2516  0.0632  0.1868
    9SAPS   HN1 1066   0.648   0.963   6.352 -0.3941  1.0916 -0.6314
    9SAPS   HN2 1067   0.552   0.855   6.413 -0.0056  2.7456  1.2486
    9SAPS   HN3 1068   0.620   0.812   6.267  1.6817 -0.2208  1.6934
    9SAPS   C12 1069   0.473   0.954   6.244 -0.4036  0.4224 -0.1927
    9SAPS  H12A 1070   0.517   0.984   6.149  0.0749  0.9349  0.1893
    9SAPS   C13 1071   0.352   0.849   6.222 -0.1411  0.0124 -0.8133
    9SAPS  O13A 1072   0.353   0.743   6.288 -0.2522  1.1079 -0.9738
    9SAPS  O13B 1073   0.255   0.882   6.147  0.0810 -0.1041 -0.2534
    9SAPS   C11 1074   0.418   1.074   6.328 -0.8838 -0.1223 -0.3066
    9SAPS  H11A 1075   0.403   1.036   6.431 -0.9342  0.5702 -0.0541
    9SAPS  H11B 1076   0.322   1.105   6.280  0.1216  0.0642 -2.2382
    9SAPS     P 1077   0.616   1.222   6.432  0.1310 -0.3358 -0.5361
    9SAPS   O13 1078   0.686   1.101   6.478  0.0124 -0.0121 -0.4066
    9SAPS   O14 1079   0.697   1.336   6.381 -0.1490  0.4024  0.2581
    9SAPS   O12 1080   0.513   1.185   6.318  0.1886  0.5290 -0.0419
    9SAPS   O11 1081   0.526   1.272   6.551 -0.0955 -0.3864  0.2038
    9SAPS    C1 1082   0.505   1.410   6.575 -0.7498 -0.8137 -0.5375
    9SAPS    HA 1083   0.504   1.478   6.487  2.0785 -1.1837 -0.9050
    9SAPS    HB 1084   0.412   1.431   6.633  0.0929  1.0849  0.2027
    9SAPS    C2 1085   0.625   1.458   6.670  0.5328  0.1364  0.2304
    9SAPS    HS 1086   0.719   1.458   6.610  1.2169 -0.1098  1.2880
    9SAPS   O21 1087   0.648   1.374   6.784 -0.1828  0.0365 -0.0653
    9SAPS   C21 1088   0.762   1.388   6.848 -0.7699 -0.4130  0.1500
    9SAPS   O22 1089   0.858   1.455   6.811 -0.2338  0.3062  0.0400
    9SAPS   C22 1090   0.754   1.312   6.980  0.5233  0.4845 -0.5771
    9SAPS   H2R 1091   0.710   1.211   6.965  0.2687  0.6758 -1.1286
    9SAPS   H2S 1092   0.855   1.292   7.021  0.9037  2.1884 -0.6513
    9SAPS    C3 1093   0.609   1.607   6.712  0.0734 -0.0687 -0.3500
    9SAPS    HX 1094   0.604   1.667   6.618  2.2895  1.7271  0.6220
    9SAPS    HY 1095   0.693   1.637   6.778  0.1242  0.4064 -0.6310
    9SAPS   O31 1096   0.484   1.631   6.783 -0.2362  0.0572  0.4120
    9SAPS   C31 1097   0.483   1.755   6.851 -0.5137 -0.3775 -0.0220
    9SAPS   O32 1098   0.562   1.841   6.827 -0.1634  0.5515  0.5553
    9SAPS   C32 1099   0.368   1.768   6.950  0.0712 -0.6373 -0.0247
    9SAPS   H2X 1100   0.270   1.742   6.906 -0.8562  0.3633  1.3984
    9SAPS   H2Y 1101   0.371   1.872   6.990  1.2038 -0.6680 -0.0088
    9SAPS   C23 1102   0.665   1.385   7.084 -0.3124 -0.0930  0.2957
    9SAPS   H3R 1103   0.563   1.385   7.040  1.3897  2.4740 -4.0999
    9SAPS   H3S 1104   0.707   1.487   7.101 -1.3580  0.1581  1.3723
    9SAPS   C24 1105   0.670   1.312   7.215  0.1687 -0.3221 -0.4477
    9SAPS   H4R 1106   0.633   1.207   7.207  0.0431 -0.1784 -1.9751
    9SAPS   H4S 1107   0.595   1.362   7.280  1.5427  4.8530 -2.6303
    9SAPS   C25 1108   0.801   1.306   7.298 -0.7240 -0.3268 -0.0584
    9SAPS   H5R 1109   0.887   1.255   7.251 -0.0354  0.5180  0.2736
    9SAPS   C26 1110   0.834   1.348   7.424  0.1231 -0.1886 -0.1624
    9SAPS   H6R 1111   0.933   1.338   7.470  0.6885 -0.1165 -1.3407
    9SAPS   C27 1112   0.739   1.414   7.526 -0.6475  0.0487  0.2049
    9SAPS   H7R 1113   0.683   1.486   7.463 -0.1669  0.0875 -0.1888
    9SAPS   H7S 1114   0.802   1.470   7.599  0.6113 -1.6596  0.4635
    9SAPS   C28 1115   0.659   1.307   7.592 -0.0011 -0.0107 -0.6794
    9SAPS   H8R 1116   0.704   1.207   7.581  0.5731  0.2100 -0.3898
    9SAPS   C29 1117   0.554   1.332   7.672 -1.0496 -0.0555 -0.3830
    9SAPS   H9R 1118   0.488   1.248   7.699 -3.4017  2.0605  0.6657
    9SAPS  C210 1119   0.500   1.471   7.702  0.2018  0.6869  0.4515
    9SAPS  H10R 1120   0.392   1.449   7.719  0.2682  0.1617  0.2257
    9SAPS  H10S 1121   0.506   1.537   7.613 -1.9210 -0.8875 -0.8995
    9SAPS  C211 1122   0.547   1.536   7.828 -0.3441 -0.2940 -0.3703
    9SAPS  H11R 1123   0.634   1.600   7.812 -0.3186  0.6505  3.0401
    9SAPS  C212 1124   0.505   1.521   7.956  0.2270  0.2631 -0.0072
    9SAPS  H12R 1125   0.540   1.600   8.024 -0.2362  1.3693 -1.0501
    9SAPS  C213 1126   0.389   1.430   8.001 -0.1733  0.1455  0.0073
    9SAPS  H13R 1127   0.296   1.483   7.969  0.6787  1.9132  0.4188
    9SAPS  H13S 1128   0.379   1.445   8.111  1.7775  2.0191 -0.0573
    9SAPS  C214 1129   0.375   1.286   7.967  0.2712  0.6319  0.6804
    9SAPS  H14R 1130   0.290   1.270   7.899 -0.2312  5.2578  0.0466
    9SAPS  C215 1131   0.450   1.181   8.000  0.6540 -0.5625  0.1129
    9SAPS  H15R 1132   0.411   1.081   7.975 -0.0358 -0.1549 -0.4859
    9SAPS  C216 1133   0.570   1.185   8.086  0.2740  0.2335  0.2079
    9SAPS  H16R 1134   0.607   1.290   8.095  1.8543 -0.4425  2.0974
    9SAPS  H16S 1135   0.652   1.133   8.032  0.6380 -0.5475  1.4896
    9SAPS  C217 1136   0.531   1.121   8.217  0.2049 -0.7288 -0.3433
    9SAPS  H17R 1137   0.500   1.017   8.196  0.9503 -1.0678  0.2298
    9SAPS  H17S 1138   0.441   1.174   8.256 -0.7378 -0.4679 -2.7639
    9SAPS  C218 1139   0.638   1.138   8.320 -0.5518  0.4953 -1.2162
    9SAPS  H18R 1140   0.659   1.244   8.345  1.3225 -0.1963  0.2367
    9SAPS  H18S 1141   0.727   1.088   8.276 -1.8991 -1.3721 -1.8661
    9SAPS  C219 1142   0.612   1.078   8.453  0.2748  0.9684  0.0705
    9SAPS  H19R 1143   0.595   0.969   8.450  0.3483  0.9171  1.4734
    9SAPS  H19S 1144   0.520   1.131   8.487 -0.7428 -0.9667  0.4014
    9SAPS  C220 1145   0.719   1.101   8.555 -0.5558 -0.3480 -0.0889
    9SAPS  H20R 1146   0.685   1.090   8.660 -2.2487  3.2225 -0.1801
    9SAPS  H20S 1147   0.758   1.204   8.536 -0.2748 -0.1913  1.3239
    9SAPS  H20T 1148   0.809   1.040   8.537 -0.6037 -0.3537 -0.3198
    9SAPS   C33 1149   0.396   1.683   7.078 -0.2076  0.1650  0.4288
    9SAPS   H3X 1150   0.504   1.705   7.096 -0.4556  1.1409  0.7775
    9SAPS   H3Y 1151   0.402   1.574   7.056 -2.4879  0.1845 -0.4113
    9SAPS   C34 1152   0.326   1.729   7.195 -0.3375 -0.3033 -0.5642
    9SAPS   H4X 1153   0.221   1.703   7.168 -1.7267  2.4201  1.9245
    9SAPS   H4Y 1154   0.349   1.838   7.201  0.4983 -0.3861 -2.1334
    9SAPS   C35 1155   0.367   1.677   7.333  0.0838  0.1342 -0.1303
    9SAPS   H5X 1156   0.473   1.707   7.337  0.3083 -0.6015 -0.4556
    9SAPS   H5Y 1157   0.366   1.566   7.328  1.9558  0.1605 -1.4492
    9SAPS   C36 1158   0.278   1.723   7.448  0.1728 -0.1672  0.0555
    9SAPS   H6X 1159   0.330   1.699   7.542  0.6614  1.9571  0.3600
    9SAPS   H6Y 1160   0.177   1.676   7.446  0.6683 -1.3107  1.5038
    9SAPS   C37 1161   0.261   1.875   7.459  0.1469  0.0379 -0.4832
    9SAPS   H7X 1162   0.226   1.913   7.361 -0.2481 -2.0943 -1.2021
    9SAPS   H7Y 1163   0.365   1.910   7.477  1.8139 -3.3325 -2.9032
    9SAPS   C38 1164   0.172   1.927   7.565 -0.3695 -0.0307  0.3546
    9SAPS   H8X 1165   0.209   1.892   7.664  0.7311 -1.4212 -0.5292
    9SAPS   H8Y 1166   0.073   1.880   7.548  0.2014 -0.6351 -1.3499
    9SAPS   C39 1167   0.152   2.079   7.551 -0.8055  0.2142 -0.0450
    9SAPS   H9X 1168   0.143   2.090   7.440  1.8948 -2.8156 -0.6498
    9SAPS   H9Y 1169   0.242   2.135   7.582  0.9962 -3.1256  1.0489
    9SAPS  C310 1170   0.043   2.134   7.627 -0.0571  0.3535 -0.5085
    9SAPS  H10X 1171  -0.046   2.069   7.608  0.5054 -0.7170  0.4483
    9SAPS  H10Y 1172   0.020   2.236   7.591 -2.2493  0.8209  2.0286
    9SAPS  C311 1173   0.067   2.138   7.779 -0.6792 -0.2388 -0.5031
    9SAPS  H11X 1174   0.104   2.037   7.808  0.0057  0.9488  3.0257
    9SAPS  H11Y 1175  -0.037   2.155   7.815 -0.3601  0.4862  0.0882
    9SAPS  C312 1176   0.153   2.254   7.817  0.0563 -0.2061 -0.5999
    9SAPS  H12X 1177   0.106   2.337   7.760  2.2942  1.5573  0.0414
    9SAPS  H12Y 1178   0.259   2.242   7.784  0.0159  1.8850 -1.5632
    9SAPS  C313 1179   0.141   2.292   7.968 -0.0069 -0.2045  0.0363
    9SAPS  H13X 1180   0.037   2.313   8.002 -0.1707  0.0457 -0.6176
    9SAPS  H13Y 1181   0.207   2.380   7.988  1.2335 -1.5579  2.0859
    9SAPS  C314 1182   0.196   2.190   8.067 -0.2130 -1.3447 -0.1184
    9SAPS  H14X 1183   0.300   2.164   8.041 -0.8619 -3.7294 -0.3898
    9SAPS  H14Y 1184   0.138   2.096   8.060 -1.6585 -0.3460 -2.0640
    9SAPS  C315 1185   0.189   2.242   8.215  0.0276  0.1858 -0.1288
    9SAPS  H15X 1186   0.085   2.275   8.239  0.0467  0.1584 -0.0076
    9SAPS  H15Y 1187   0.255   2.331   8.227 -1.1188  1.1290 -0.6643
    9SAPS  C316 1188   0.225   2.139   8.318 -0.3886  0.0038  0.2201
    9SAPS  H16X 1189   0.210   2.180   8.420 -0.3559  1.0799 -0.2088
    9SAPS  H16Y 1190   0.333   2.114   8.312 -0.0363  1.9670 -2.4634
    9SAPS  C317 1191   0.155   2.003   8.308 -0.1095  0.1536  0.1823
    9SAPS  H17X 1192   0.211   1.939   8.380 -0.9614 -1.4568 -0.5532
    9SAPS  H17Y 1193   0.183   1.949   8.215 -0.9762  1.5207 -0.8899
    9SAPS  C318 1194   0.003   1.980   8.333 -0.2852  0.0029  0.4487
    9SAPS  H18X 1195  -0.027   1.877   8.303  1.6808 -0.3148 -0.4720
    9SAPS  H18Y 1196  -0.048   2.034   8.251  0.5995  0.6138  0.2959
    9SAPS  H18Z 1197  -0.028   2.006   8.437 -0.6278 -0.1633  0.3892
   10SAPS     N 1198   0.493   0.482   6.317 -0.4236 -0.7104 -0.5691
   10SAPS   HN1 1199   0.437   0.569   6.331  0.2222 -0.3020 -0.5494
   10SAPS   HN2 1200   0.484   0.433   6.226 -0.9818 -1.9908  0.1625
   10SAPS   HN3 1201   0.460   0.405   6.379 -2.5491 -1.2401 -2.2881
   10SAPS   C12 1202   0.638   0.512   6.347 -0.7808  0.0683 -0.0337
   10SAPS  H12A 1203   0.674   0.412   6.326 -0.6303  0.3724 -1.2576
   10SAPS   C13 1204   0.712   0.611   6.250 -0.3877 -0.4939  0.0741
   10SAPS  O13A 1205   0.646   0.678   6.166  0.0970  0.6792 -0.1438
   10SAPS  O13B 1206   0.839   0.615   6.252  0.3213 -0.0894  0.1663
   10SAPS   C11 1207   0.658   0.547   6.494  0.6161  0.3272  0.2135
   10SAPS  H11A 1208   0.765   0.536   6.522  0.5772 -1.0133 -0.1455
   10SAPS  H11B 1209   0.600   0.473   6.553  1.3276  0.6502  1.3371
   10SAPS     P 1210   0.518   0.732   6.618  0.1122  0.1430 -0.2766
   10SAPS   O13 1211   0.503   0.875   6.595 -0.0742 -0.5963 -0.3227
   10SAPS   O14 1212   0.393   0.647   6.611  0.5745 -0.1633 -0.2284
   10SAPS   O12 1213   0.618   0.679   6.518 -0.1106  0.1243  0.0385
   10SAPS   O11 1214   0.582   0.708   6.755 -0.0294  0.7520 -0.4209
   10SAPS    C1 1215   0.723   0.701   6.784 -0.5895  0.3697 -0.9111
   10SAPS    HA 1216   0.770   0.606   6.751  0.6147 -0.7152  3.4948
   10SAPS    HB 1217   0.776   0.776   6.721  1.3891  0.5970  0.9422
   10SAPS    C2 1218   0.750   0.710   6.936  0.6463 -0.4229  0.7068
   10SAPS    HS 1219   0.857   0.693   6.960  1.3783  1.2029 -1.2763
   10SAPS   O21 1220   0.674   0.610   7.000  0.2800  0.3417  0.2983
   10SAPS   C21 1221   0.706   0.484   6.972 -1.1164  0.3582 -0.4780
   10SAPS   O22 1222   0.810   0.453   6.916 -0.2767  0.2012 -0.2643
   10SAPS   C22 1223   0.595   0.377   7.007 -0.0383 -0.0440 -0.2239
   10SAPS   H2R 1224   0.503   0.427   7.045  0.8448  1.6807 -0.3423
   10SAPS   H2S 1225   0.575   0.318   6.915  2.9584  0.0289 -0.9587
   10SAPS    C3 1226   0.710   0.850   6.986  0.1937 -0.2888  0.4987
   10SAPS    HX 1227   0.602   0.861   6.963  0.3599 -2.9454 -1.7304
   10SAPS    HY 1228   0.761   0.928   6.925  0.5316 -0.2876  0.7788
   10SAPS   O31 1229   0.749   0.879   7.126 -0.1764  0.2655 -0.7273
   10SAPS   C31 1230   0.658   0.911   7.208 -0.3054  0.6754  0.7117
   10SAPS   O32 1231   0.540   0.946   7.189  0.1332  0.6277 -0.0541
   10SAPS   C32 1232   0.713   0.904   7.351 -0.1855 -0.7872 -0.1319
   10SAPS   H2X 1233   0.777   0.992   7.373 -0.1464 -1.5372  3.0669
   10SAPS   H2Y 1234   0.782   0.817   7.353  0.3636 -0.3510  0.0631
   10SAPS   C23 1235   0.652   0.274   7.112  0.2976  0.2380 -0.7664
   10SAPS   H3R 1236   0.722   0.208   7.057  0.3784 -1.0996  0.8997
   10SAPS   H3S 1237   0.585   0.188   7.134  1.7830 -0.7258  0.0829
   10SAPS   C24 1238   0.725   0.336   7.233 -0.1116  0.1869  0.6062
   10SAPS   H4R 1239   0.814   0.401   7.219 -0.7743  0.9176 -0.2727
   10SAPS   H4S 1240   0.775   0.247   7.278  0.9860  0.3939 -0.1869
   10SAPS   C25 1241   0.619   0.397   7.330 -0.0619 -0.4127 -0.7663
   10SAPS   H5R 1242   0.541   0.459   7.284 -2.0482 -1.7197  0.7806
   10SAPS   C26 1243   0.609   0.362   7.458 -0.8298  0.2919 -0.3018
   10SAPS   H6R 1244   0.533   0.411   7.522 -0.3003  1.6613 -0.7136
   10SAPS   C27 1245   0.704   0.267   7.535  0.2028 -0.0026  0.2065
   10SAPS   H7R 1246   0.774   0.216   7.465 -0.7917  0.3871 -1.1025
   10SAPS   H7S 1247   0.637   0.189   7.576  2.5952 -2.3908 -0.2851
   10SAPS   C28 1248   0.771   0.340   7.651 -1.0263  1.0034 -0.1606
   10SAPS   H8R 1249   0.849   0.406   7.613 -0.7769 -0.1671 -1.7441
   10SAPS   C29 1250   0.751   0.320   7.784  0.4541 -0.4622  0.4390
   10SAPS   H9R 1251   0.809   0.377   7.858  1.9578 -0.0971 -0.9812
   10SAPS  C210 1252   0.661   0.222   7.855  0.8549  0.0873 -0.3833
   10SAPS  H10R 1253   0.722   0.156   7.921 -2.4246 -0.6872  2.0081
   10SAPS  H10S 1254   0.585   0.167   7.796 -3.0167  0.9609  3.4860
   10SAPS  C211 1255   0.572   0.316   7.933 -0.4128  0.1206 -0.8249
   10SAPS  H11R 1256   0.484   0.355   7.880 -1.3609 -1.0554 -0.1476
   10SAPS  C212 1257   0.592   0.339   8.064 -1.1345  0.5098 -0.0351
   10SAPS  H12R 1258   0.527   0.407   8.121  0.2408  2.5298 -0.8339
   10SAPS  C213 1259   0.706   0.283   8.148 -0.2912  0.4267  0.0935
   10SAPS  H13R 1260   0.726   0.351   8.234  2.5169 -1.9218  1.4096
   10SAPS  H13S 1261   0.797   0.264   8.088 -0.3397  0.9670 -0.1548
   10SAPS  C214 1262   0.684   0.144   8.199  0.4422 -0.4281  0.0370
   10SAPS  H14R 1263   0.716   0.062   8.134 -1.8480 -0.6492 -0.8795
   10SAPS  C215 1264   0.622   0.109   8.315  0.8783 -0.2543 -0.4151
   10SAPS  H15R 1265   0.609   0.003   8.343  0.4873 -0.1548 -0.2239
   10SAPS  C216 1266   0.548   0.204   8.403 -0.4033 -0.1476  0.5676
   10SAPS  H16R 1267   0.542   0.307   8.361  0.9689 -0.1785  0.2657
   10SAPS  H16S 1268   0.602   0.217   8.500 -2.9593  0.1311  2.0025
   10SAPS  C217 1269   0.394   0.174   8.405  0.2066  0.3552  0.4168
   10SAPS  H17R 1270   0.371   0.165   8.297  2.9738 -3.0991  0.0233
   10SAPS  H17S 1271   0.344   0.261   8.452 -0.1289  0.2311  0.2838
   10SAPS  C218 1272   0.361   0.037   8.478 -0.3327 -0.4131  0.0136
   10SAPS  H18R 1273   0.385  -0.053   8.417  0.1644 -1.1227  1.2453
   10SAPS  H18S 1274   0.250   0.036   8.479 -0.3491 -2.9057  2.5104
   10SAPS  C219 1275   0.415   0.026   8.618  0.6132  0.1408 -0.4517
   10SAPS  H19R 1276   0.375   0.101   8.689 -3.4217 -2.9508  0.7744
   10SAPS  H19S 1277   0.526   0.026   8.621  0.6412 -1.7435 -0.5106
   10SAPS  C220 1278   0.371  -0.108   8.679 -0.3222  0.5724 -0.1195
   10SAPS  H20R 1279   0.260  -0.115   8.679 -0.3297  0.4757  0.9997
   10SAPS  H20S 1280   0.383  -0.115   8.790 -1.2055  3.6341  0.2256
   10SAPS  H20T 1281   0.411  -0.193   8.619  0.0369  1.0213 -0.5130
   10SAPS   C33 1282   0.613   0.879   7.465 -0.6070 -0.5227 -0.1804
   10SAPS   H3X 1283   0.532   0.827   7.409  1.2772 -2.1755 -1.4726
   10SAPS   H3Y 1284   0.568   0.973   7.501 -1.0478 -0.5408 -0.6681
   10SAPS   C34 1285   0.660   0.799   7.588 -0.3972  0.5041  0.0510
   10SAPS   H4X 1286   0.754   0.840   7.632  1.4038 -4.7729  1.5509
   10SAPS   H4Y 1287   0.675   0.692   7.563  0.2102  0.7468 -0.6424
   10SAPS   C35 1288   0.545   0.811   7.693  0.0232 -0.8215  1.1345
   10SAPS   H5X 1289   0.444   0.774   7.665  0.1816 -0.4597  0.0594
   10SAPS   H5Y 1290   0.539   0.919   7.717 -1.0466 -0.7897  0.7675
   10SAPS   C36 1291   0.576   0.724   7.823 -0.6651  0.7238 -0.4270
   10SAPS   H6X 1292   0.620   0.625   7.798 -1.7330 -0.0791  0.8131
   10SAPS   H6Y 1293   0.481   0.693   7.873 -0.9483  1.2387 -0.6392
   10SAPS   C37 1294   0.677   0.787   7.919  0.1514 -0.2809  0.5508
   10SAPS   H7X 1295   0.631   0.881   7.955 -0.7212 -1.0371  1.4532
   10SAPS   H7Y 1296   0.780   0.797   7.878 -0.5368 -1.8709 -1.6884
   10SAPS   C38 1297   0.690   0.700   8.045 -0.4470 -0.3909 -0.8542
   10SAPS   H8X 1298   0.725   0.598   8.017 -0.2346 -0.2066 -1.2743
   10SAPS   H8Y 1299   0.599   0.678   8.105  0.6289 -1.8382  0.2771
   10SAPS   C39 1300   0.790   0.764   8.143  0.8687  0.6011 -0.1347
   10SAPS   H9X 1301   0.733   0.849   8.185 -1.8047 -0.8663 -0.6804
   10SAPS   H9Y 1302   0.874   0.812   8.088  2.3830 -1.2838  0.4687
   10SAPS  C310 1303   0.844   0.659   8.240  0.3441 -0.3716 -0.1287
   10SAPS  H10X 1304   0.933   0.692   8.299  0.3055  0.7264 -0.6630
   10SAPS  H10Y 1305   0.887   0.571   8.188  0.1127 -1.2031  1.0575
   10SAPS  C311 1306   0.738   0.631   8.345  0.8735 -0.4182 -0.3910
   10SAPS  H11X 1307   0.655   0.585   8.287  0.4235  0.2807 -0.3056
   10SAPS  H11Y 1308   0.697   0.727   8.383 -3.5750 -2.0678 -0.7512
   10SAPS  C312 1309   0.799   0.557   8.471 -0.1423 -0.1453 -0.5221
   10SAPS  H12X 1310   0.860   0.625   8.535 -3.6241  0.0448  2.8222
   10SAPS  H12Y 1311   0.860   0.477   8.424 -0.5297  0.6307 -2.3547
   10SAPS  C313 1312   0.706   0.498   8.577  0.0652 -0.5060 -0.6386
   10SAPS  H13X 1313   0.642   0.419   8.532 -1.2261  0.0877  0.1082
   10SAPS  H13Y 1314   0.642   0.576   8.623 -0.5783  0.1080 -2.5593
   10SAPS  C314 1315   0.778   0.432   8.693  0.6600  0.0715 -0.3122
   10SAPS  H14X 1316   0.868   0.493   8.714 -0.1987  0.9106  1.0276
   10SAPS  H14Y 1317   0.810   0.326   8.683  1.4900  0.1555  1.3708
   10SAPS  C315 1318   0.692   0.429   8.825  0.2474 -0.1526  0.0627
   10SAPS  H15X 1319   0.653   0.530   8.850  0.0345 -0.6654  1.8615
   10SAPS  H15Y 1320   0.760   0.392   8.905  0.7681 -1.4890 -0.9923
   10SAPS  C316 1321   0.574   0.329   8.834 -0.7105 -0.1799  0.5550
   10SAPS  H16X 1322   0.583   0.238   8.772 -0.9450  0.7268 -0.8306
   10SAPS  H16Y 1323   0.487   0.368   8.777 -1.7193 -1.9597  0.8101
   10SAPS  C317 1324   0.532   0.297   8.978 -0.1194 -0.1540  0.0689
   10SAPS  H17X 1325   0.609   0.230   9.024  1.0855 -0.1823 -1.9333
   10SAPS  H17Y 1326   0.444   0.230   8.977  0.7360 -1.3166  0.5082
   10SAPS  C318 1327   0.514   0.413   9.074  0.2121 -0.0418  0.2801
   10SAPS  H18X 1328   0.442   0.384   9.154 -1.1747  0.2658 -0.8504
   10SAPS  H18Y 1329   0.460   0.499   9.028 -1.3853  1.4901  4.7240
   10SAPS  H18Z 1330   0.608   0.453   9.116  0.3026 -0.9945  0.9949
   11SAPS     N 1331   2.369   3.954   5.922 -0.1273  0.2177  0.4206
   11SAPS   HN1 1332   2.425   4.000   5.847  1.5397  0.5333  1.8144
   11SAPS   HN2 1333   2.436   3.923   5.995 -0.4453  1.2398  1.1486
   11SAPS   HN3 1334   2.316   3.877   5.877 -0.6618  0.7465  0.1381
   11SAPS   C12 1335   2.274   4.056   5.982  0.4264  0.4786  0.4230
   11SAPS  H12A 1336   2.263   4.140   5.915 -1.9065 -0.0530  0.0979
   11SAPS   C13 1337   2.129   4.016   5.994 -0.2126  0.1762  0.1906
   11SAPS  O13A 1338   2.096   3.909   5.935  0.0603  0.2786  1.4605
   11SAPS  O13B 1339   2.037   4.100   6.032  0.8262  0.0252 -0.3801
   11SAPS   C11 1340   2.334   4.110   6.115 -0.1935 -0.2910 -0.1155
   11SAPS  H11A 1341   2.348   4.026   6.186  2.3578 -0.4824 -0.7929
   11SAPS  H11B 1342   2.261   4.175   6.168 -0.2801  0.7682 -1.4991
   11SAPS     P 1343   2.491   4.314   6.155 -0.3999 -0.1376  0.0123
   11SAPS   O13 1344   2.641   4.352   6.159 -0.6720 -0.1759  0.3337
   11SAPS   O14 1345   2.387   4.414   6.116 -0.0192  0.5453  0.2050
   11SAPS   O12 1346   2.464   4.172   6.088  0.2840  0.1847  0.0668
   11SAPS   O11 1347   2.454   4.283   6.304 -0.3613  0.5600  0.0524
   11SAPS    C1 1348   2.553   4.201   6.372 -0.0571  0.1672  0.6911
   11SAPS    HA 1349   2.553   4.105   6.316 -2.2674  0.5673 -0.0223
   11SAPS    HB 1350   2.655   4.244   6.371 -1.0664  2.5804 -1.1642
   11SAPS    C2 1351   2.504   4.165   6.517  0.0624  0.4585  0.3852
   11SAPS    HS 1352   2.564   4.086   6.566  1.6610  0.1539 -1.9858
   11SAPS   O21 1353   2.362   4.138   6.520 -0.4141 -0.0040  0.1344
   11SAPS   C21 1354   2.342   4.010   6.484 -0.7595  0.9636  0.2244
   11SAPS   O22 1355   2.419   3.926   6.442 -0.2845  0.2256 -0.4414
   11SAPS   C22 1356   2.199   3.983   6.526 -0.1909  0.5935 -0.3058
   11SAPS   H2R 1357   2.145   4.050   6.455 -1.5263 -0.0797  0.0591
   11SAPS   H2S 1358   2.178   3.876   6.507  1.1502  0.2417  0.1496
   11SAPS    C3 1359   2.536   4.286   6.610  0.2892 -0.0380 -0.4298
   11SAPS    HX 1360   2.487   4.371   6.558 -1.3982 -0.9821 -0.4107
   11SAPS    HY 1361   2.647   4.293   6.607  0.3283 -0.1668  0.4768
   11SAPS   O31 1362   2.487   4.253   6.742  0.0415 -0.0528  0.8197
   11SAPS   C31 1363   2.388   4.324   6.798  0.8872 -0.0293 -0.0474
   11SAPS   O32 1364   2.323   4.403   6.738  0.3920  0.2383 -1.1137
   11SAPS   C32 1365   2.368   4.275   6.944  0.4782 -0.4669 -0.1646
   11SAPS   H2X 1366   2.446   4.323   7.006 -1.1923  0.5767  1.2075
   11SAPS   H2Y 1367   2.376   4.164   6.940  2.5514 -0.2811 -1.6186
   11SAPS   C23 1368   2.159   4.015   6.678  0.2473 -0.1325 -0.7194
   11SAPS   H3R 1369   2.166   4.124   6.702 -2.4821 -0.4281  1.7295
   11SAPS   H3S 1370   2.233   3.958   6.739  2.3663  2.2555 -0.9704
   11SAPS   C24 1371   2.018   3.966   6.705  0.6686  0.7842 -0.0996
   11SAPS   H4R 1372   2.001   3.943   6.813 -3.3554 -0.0796 -0.8210
   11SAPS   H4S 1373   2.000   3.865   6.662  1.7139  1.1780 -1.4905
   11SAPS   C25 1374   1.911   4.072   6.668 -0.3692 -0.3896 -0.0384
   11SAPS   H5R 1375   1.914   4.089   6.560  2.0438 -0.8507 -0.0608
   11SAPS   C26 1376   1.828   4.142   6.750 -0.6553 -1.3285  0.7777
   11SAPS   H6R 1377   1.767   4.221   6.704  0.6038 -0.7831  0.0173
   11SAPS   C27 1378   1.816   4.144   6.902  0.7759  0.3013  0.3873
   11SAPS   H7R 1379   1.773   4.243   6.929 -0.0777 -0.5140  2.0650
   11SAPS   H7S 1380   1.920   4.137   6.942  1.0830 -0.8055 -0.5747
   11SAPS   C28 1381   1.729   4.036   6.960  0.5546  0.5908  0.0779
   11SAPS   H8R 1382   1.681   3.967   6.888 -2.0343  0.8445  1.5151
   11SAPS   C29 1383   1.725   4.009   7.090  0.8483  0.2054 -0.2559
   11SAPS   H9R 1384   1.656   3.929   7.120  0.8577  0.6787  1.0653
   11SAPS  C210 1385   1.800   4.070   7.202 -0.5452  0.2945 -0.4136
   11SAPS  H10R 1386   1.721   4.109   7.270 -2.0417 -2.9017 -0.2422
   11SAPS  H10S 1387   1.868   4.156   7.185  1.0264 -0.4903  1.6813
   11SAPS  C211 1388   1.890   3.966   7.279 -0.3653 -1.0378 -0.1955
   11SAPS  H11R 1389   1.975   3.928   7.219  1.0790 -0.1367  1.2400
   11SAPS  C212 1390   1.873   3.922   7.408 -0.0280  0.0277 -0.2340
   11SAPS  H12R 1391   1.950   3.855   7.450 -0.3092 -0.9828 -1.2820
   11SAPS  C213 1392   1.766   3.975   7.501 -0.6936  0.3190 -0.3098
   11SAPS  H13R 1393   1.678   4.005   7.440  0.7586 -1.8096 -3.6201
   11SAPS  H13S 1394   1.812   4.064   7.550  1.1472 -0.3590 -0.7436
   11SAPS  C214 1395   1.717   3.879   7.601 -0.2876  0.4437 -0.7059
   11SAPS  H14R 1396   1.608   3.874   7.604 -0.1866 -1.3000  0.5067
   11SAPS  C215 1397   1.783   3.833   7.710  0.3718  0.7280  0.4071
   11SAPS  H15R 1398   1.733   3.775   7.788  1.3359  1.2295  1.4189
   11SAPS  C216 1399   1.924   3.878   7.740 -0.1653  0.0551 -0.9919
   11SAPS  H16R 1400   1.965   3.942   7.659 -0.1565 -0.7418 -1.6236
   11SAPS  H16S 1401   1.991   3.790   7.740 -1.5935 -1.0476 -0.4358
   11SAPS  C217 1402   1.922   3.937   7.884  0.0342  0.4375  0.0353
   11SAPS  H17R 1403   1.859   4.029   7.879 -2.2645 -1.1388 -0.6152
   11SAPS  H17S 1404   2.024   3.979   7.899  0.3211 -0.5331  0.7788
   11SAPS  C218 1405   1.877   3.844   7.988  0.3854  0.7445  0.2516
   11SAPS  H18R 1406   1.916   3.741   7.974  0.0655  0.4874  1.2820
   11SAPS  H18S 1407   1.767   3.842   7.994  0.5324  1.2314  3.6965
   11SAPS  C219 1408   1.924   3.889   8.128  0.6413  0.2567  0.6037
   11SAPS  H19R 1409   1.876   3.987   8.148 -0.2549 -0.3994  1.7211
   11SAPS  H19S 1410   2.035   3.901   8.133  0.6362  1.8694 -2.2215
   11SAPS  C220 1411   1.863   3.792   8.226 -0.2725  0.9606  0.6444
   11SAPS  H20R 1412   1.894   3.822   8.328  1.8362 -3.8262  1.5577
   11SAPS  H20S 1413   1.904   3.694   8.194  0.4774  1.4778  0.0156
   11SAPS  H20T 1414   1.753   3.792   8.210 -0.3155 -0.9096  0.8221
   11SAPS   C33 1415   2.229   4.319   6.991  0.1446 -0.3622 -1.0467
   11SAPS   H3X 1416   2.149   4.289   6.920  2.2386  0.8032 -3.9907
   11SAPS   H3Y 1417   2.221   4.430   6.993 -0.6403 -0.4249 -0.1766
   11SAPS   C34 1418   2.185   4.240   7.119 -0.6391 -0.6504 -0.6456
   11SAPS   H4X 1419   2.194   4.131   7.102 -1.7896 -0.9312  0.4528
   11SAPS   H4Y 1420   2.077   4.263   7.122 -0.4835 -0.0114  0.2001
   11SAPS   C35 1421   2.243   4.293   7.247 -1.3379 -0.5810 -0.6789
   11SAPS   H5X 1422   2.200   4.395   7.260 -1.4744 -0.3797 -2.4888
   11SAPS   H5Y 1423   2.352   4.307   7.229 -1.4347 -0.0621 -0.8934
   11SAPS   C36 1424   2.229   4.208   7.370  0.2131  0.3833 -0.3417
   11SAPS   H6X 1425   2.291   4.117   7.354 -0.3736 -0.0624 -0.1169
   11SAPS   H6Y 1426   2.119   4.189   7.373  0.3256 -0.2618 -0.2343
   11SAPS   C37 1427   2.278   4.269   7.505  0.7302 -0.8904  0.0724
   11SAPS   H7X 1428   2.252   4.377   7.503 -0.7473 -1.2323  0.3329
   11SAPS   H7Y 1429   2.389   4.267   7.509  0.7163 -1.0407  0.4119
   11SAPS   C38 1430   2.205   4.220   7.627 -0.3928  0.2491 -0.3687
   11SAPS   H8X 1431   2.217   4.112   7.650 -0.2332  0.4068  0.3053
   11SAPS   H8Y 1432   2.097   4.244   7.621 -0.2260  0.5700 -2.5237
   11SAPS   C39 1433   2.266   4.288   7.753  0.6078  0.2623 -0.6878
   11SAPS   H9X 1434   2.224   4.390   7.761  0.8526  0.1677  2.2109
   11SAPS   H9Y 1435   2.376   4.303   7.754  0.5048  1.1197 -1.2762
   11SAPS  C310 1436   2.219   4.210   7.877  0.1046 -0.0577 -0.2613
   11SAPS  H10X 1437   2.258   4.106   7.878 -0.8804 -0.4195  0.6142
   11SAPS  H10Y 1438   2.109   4.221   7.887 -0.1579 -1.2452 -1.6556
   11SAPS  C311 1439   2.268   4.285   8.002 -0.2363 -0.1667  0.1295
   11SAPS  H11X 1440   2.226   4.386   8.018  2.0905  0.6451  1.3832
   11SAPS  H11Y 1441   2.374   4.303   7.972 -0.4884  0.3409 -0.4719
   11SAPS  C312 1442   2.252   4.214   8.144 -0.1567  0.4479 -0.2115
   11SAPS  H12X 1443   2.303   4.270   8.225 -0.2273 -1.3142  1.0946
   11SAPS  H12Y 1444   2.304   4.116   8.134  0.6713  0.6062  2.2111
   11SAPS  C313 1445   2.102   4.201   8.182 -0.0265 -0.7375  0.2596
   11SAPS  H13X 1446   2.103   4.150   8.281  1.0399  2.2523  1.8738
   11SAPS  H13Y 1447   2.046   4.134   8.114  1.2599 -1.8840  0.3319
   11SAPS  C314 1448   2.021   4.333   8.198  0.1892  0.1397  0.3271
   11SAPS  H14X 1449   2.005   4.390   8.104  1.0310 -1.3109 -0.7251
   11SAPS  H14Y 1450   2.084   4.402   8.259  0.2385  0.3867 -0.0040
   11SAPS  C315 1451   1.894   4.317   8.277  0.1391  0.3268  0.5144
   11SAPS  H15X 1452   1.921   4.266   8.372 -0.6624 -2.2551 -0.6001
   11SAPS  H15Y 1453   1.820   4.259   8.219  1.3264  1.5642 -2.3884
   11SAPS  C316 1454   1.841   4.448   8.313 -0.0600  0.1883 -0.2359
   11SAPS  H16X 1455   1.824   4.510   8.222  1.0958 -0.4485 -0.9083
   11SAPS  H16Y 1456   1.905   4.514   8.375  0.6622 -0.2483 -0.5085
   11SAPS  C317 1457   1.700   4.438   8.384  0.6255  0.1189 -0.5264
   11SAPS  H17X 1458   1.709   4.357   8.461  0.3669  0.7757  0.1973
   11SAPS  H17Y 1459   1.629   4.411   8.303  0.9495 -1.5954 -0.2656
   11SAPS  C318 1460   1.666   4.572   8.434 -0.2033 -0.8566 -0.2191
   11SAPS  H18X 1461   1.742   4.596   8.512 -0.8835  0.7879 -0.0473
   11SAPS  H18Y 1462   1.565   4.569   8.481  0.0948 -2.6471  0.3449
   11SAPS  H18Z 1463   1.656   4.640   8.347  0.3991  1.4059  1.4218
   12SAPS     N 1464   1.747   5.503   6.009  0.0406  0.2511 -0.2574
   12SAPS   HN1 1465   1.700   5.459   6.091  0.7850  0.4862  0.2989
   12SAPS   HN2 1466   1.760   5.606   6.022  3.1309  0.0582 -1.5673
   12SAPS   HN3 1467   1.692   5.483   5.923  0.3518 -0.1195 -0.3712
   12SAPS   C12 1468   1.881   5.441   5.980 -0.7357  0.3813 -0.4348
   12SAPS  H12A 1469   1.873   5.333   5.987 -2.2295  0.5531  0.9398
   12SAPS   C13 1470   1.924   5.472   5.834  0.5460  0.0446 -0.1639
   12SAPS  O13A 1471   1.865   5.557   5.759  0.0035 -0.1804 -0.6317
   12SAPS  O13B 1472   2.021   5.407   5.787  0.0928  0.3983 -0.6950
   12SAPS   C11 1473   1.998   5.495   6.080 -1.0837 -0.2002 -0.4800
   12SAPS  H11A 1474   2.010   5.603   6.062 -0.0180  0.0169  1.3440
   12SAPS  H11B 1475   2.091   5.437   6.062 -0.5663 -0.2552  2.1284
   12SAPS     P 1476   1.985   5.342   6.291  0.1954  0.1685  0.4306
   12SAPS   O13 1477   1.945   5.232   6.200  0.0100  0.3551 -0.6069
   12SAPS   O14 1478   2.126   5.332   6.344  0.1813 -0.2777 -0.3934
   12SAPS   O12 1479   1.958   5.475   6.214 -0.0382 -0.5492 -0.0679
   12SAPS   O11 1480   1.891   5.342   6.413  0.2225 -0.1272 -0.2186
   12SAPS    C1 1481   1.869   5.467   6.477  0.0244  0.5602 -0.8022
   12SAPS    HA 1482   1.873   5.557   6.411  1.1439  0.6871 -0.5743
   12SAPS    HB 1483   1.768   5.469   6.522  0.2228  0.3814 -0.3475
   12SAPS    C2 1484   1.969   5.503   6.589 -0.1058 -0.5523  0.4078
   12SAPS    HS 1485   2.054   5.559   6.544 -0.6884 -0.1319 -0.1788
   12SAPS   O21 1486   2.022   5.381   6.646  0.4108  0.1245  0.6689
   12SAPS   C21 1487   2.141   5.393   6.707  0.5931  0.6711  0.2395
   12SAPS   O22 1488   2.216   5.492   6.691  0.7335 -0.7657 -0.4856
   12SAPS   C22 1489   2.173   5.258   6.773 -0.3314 -0.4908 -0.1529
   12SAPS   H2R 1490   2.082   5.229   6.830 -0.2091 -0.5960 -0.0126
   12SAPS   H2S 1491   2.191   5.184   6.692  0.3550 -0.2161 -0.2558
   12SAPS    C3 1492   1.908   5.602   6.699  0.5974 -0.0251  0.5459
   12SAPS    HX 1493   1.844   5.538   6.764  0.2566  0.9995  1.2301
   12SAPS    HY 1494   1.838   5.674   6.651  0.2689 -1.1922 -0.7643
   12SAPS   O31 1495   1.998   5.690   6.771  0.1460  0.1285 -0.1649
   12SAPS   C31 1496   2.033   5.648   6.889 -0.7269 -1.0568  0.3428
   12SAPS   O32 1497   1.989   5.556   6.951  0.3760 -0.3106  0.2633
   12SAPS   C32 1498   2.146   5.738   6.955  0.3886  0.1966  0.4661
   12SAPS   H2X 1499   2.112   5.842   6.936 -1.3110 -0.3286  0.5211
   12SAPS   H2Y 1500   2.237   5.715   6.896  0.8921 -1.3689  1.8128
   12SAPS   C23 1501   2.301   5.267   6.860  0.4696  0.0332  0.4207
   12SAPS   H3R 1502   2.382   5.290   6.788 -0.6066  3.3700  0.1899
   12SAPS   H3S 1503   2.334   5.171   6.905  0.9067 -0.0982 -0.1812
   12SAPS   C24 1504   2.301   5.374   6.974  0.2658 -0.3109  0.1998
   12SAPS   H4R 1505   2.265   5.467   6.926 -1.7800 -0.9796  0.3992
   12SAPS   H4S 1506   2.406   5.396   7.001  0.8335  0.3587 -2.4187
   12SAPS   C25 1507   2.204   5.345   7.096 -0.2510  0.3708  0.2421
   12SAPS   H5R 1508   2.094   5.350   7.088 -0.3546 -0.9718  0.6937
   12SAPS   C26 1509   2.248   5.320   7.219  0.0496  0.2524  0.1290
   12SAPS   H6R 1510   2.174   5.269   7.283  0.1751 -0.0614  0.0230
   12SAPS   C27 1511   2.393   5.298   7.256 -0.0841  0.1134 -0.2776
   12SAPS   H7R 1512   2.419   5.380   7.327  1.2660  0.3768 -1.0582
   12SAPS   H7S 1513   2.461   5.301   7.168 -0.7516  1.4078 -0.7514
   12SAPS   C28 1514   2.395   5.164   7.328 -0.1695  1.1973 -0.6847
   12SAPS   H8R 1515   2.434   5.083   7.264 -0.2345 -1.2776  2.2918
   12SAPS   C29 1516   2.360   5.133   7.458  0.2380 -0.1515 -0.4532
   12SAPS   H9R 1517   2.362   5.027   7.489  0.7750 -0.9133 -2.9466
   12SAPS  C210 1518   2.302   5.229   7.563 -0.8831  0.0394  0.6071
   12SAPS  H10R 1519   2.213   5.175   7.602 -2.6824  1.0574 -1.9053
   12SAPS  H10S 1520   2.264   5.323   7.516  1.7422  0.9269  0.1777
   12SAPS  C211 1521   2.400   5.260   7.671 -0.3720  0.0924  0.1710
   12SAPS  H11R 1522   2.477   5.331   7.636 -2.1916  1.5703 -0.9557
   12SAPS  C212 1523   2.396   5.217   7.798  0.3081 -0.0125  0.5528
   12SAPS  H12R 1524   2.473   5.253   7.869  0.0275 -1.8096  1.8095
   12SAPS  C213 1525   2.290   5.119   7.848  0.1663 -0.5568 -0.5333
   12SAPS  H13R 1526   2.313   5.020   7.804  0.4624 -0.1927 -1.1918
   12SAPS  H13S 1527   2.191   5.142   7.804 -0.6890 -0.4777  1.3604
   12SAPS  C214 1528   2.284   5.093   8.000 -0.4146 -0.0235 -0.3672
   12SAPS  H14R 1529   2.329   4.994   8.020  2.1745  1.4596  1.4458
   12SAPS  C215 1530   2.256   5.177   8.100  0.4844  0.4166  0.1463
   12SAPS  H15R 1531   2.273   5.144   8.204  0.9742  0.0933 -0.0347
   12SAPS  C216 1532   2.231   5.327   8.085 -0.3744  0.3255 -0.5405
   12SAPS  H16R 1533   2.142   5.345   8.150 -1.4386  0.6797 -2.0754
   12SAPS  H16S 1534   2.182   5.351   7.989 -0.6956  0.0600 -0.4439
   12SAPS  C217 1535   2.347   5.411   8.109 -0.7832  0.6175  0.1820
   12SAPS  H17R 1536   2.375   5.457   8.011  1.6444  0.9536  1.0132
   12SAPS  H17S 1537   2.436   5.356   8.145 -1.0383 -1.5850 -2.3649
   12SAPS  C218 1538   2.329   5.520   8.207  0.2590  0.0042 -0.0723
   12SAPS  H18R 1539   2.285   5.486   8.304  0.7701 -0.1846  0.0940
   12SAPS  H18S 1540   2.241   5.575   8.167 -0.2642 -1.0929 -0.4378
   12SAPS  C219 1541   2.458   5.603   8.226  0.0053 -0.5206  0.7660
   12SAPS  H19R 1542   2.490   5.625   8.122 -2.9975 -0.3574 -0.1702
   12SAPS  H19S 1543   2.540   5.546   8.275 -0.2357 -0.3182  1.4072
   12SAPS  C220 1544   2.445   5.737   8.297  0.5918 -0.1524 -0.1606
   12SAPS  H20R 1545   2.547   5.775   8.316  0.1361  1.0604 -0.1375
   12SAPS  H20S 1546   2.383   5.716   8.387  0.0149 -0.4460 -0.6206
   12SAPS  H20T 1547   2.388   5.808   8.234  0.4517 -0.1160  0.0053
   12SAPS   C33 1548   2.177   5.718   7.110  0.1350 -0.3477 -0.1591
   12SAPS   H3X 1549   2.243   5.633   7.135 -0.1212  0.1857  2.5527
   12SAPS   H3Y 1550   2.082   5.684   7.158 -0.0069 -2.1301 -1.6659
   12SAPS   C34 1551   2.216   5.847   7.182 -1.1116  1.3715 -0.5319
   12SAPS   H4X 1552   2.311   5.897   7.155 -1.6044  1.7992 -1.5167
   12SAPS   H4Y 1553   2.233   5.806   7.283  0.2986 -2.0924 -2.1266
   12SAPS   C35 1554   2.095   5.942   7.183  0.5094 -0.3713  1.2036
   12SAPS   H5X 1555   2.006   5.894   7.230 -0.4336  1.5434  1.4429
   12SAPS   H5Y 1556   2.076   5.972   7.078 -2.3270 -0.4486  1.6665
   12SAPS   C36 1557   2.107   6.064   7.275  0.3740  0.0086  0.1908
   12SAPS   H6X 1558   2.022   6.134   7.255 -1.3893 -1.9718  0.5289
   12SAPS   H6Y 1559   2.194   6.128   7.247  0.7306 -0.5147  0.1102
   12SAPS   C37 1560   2.110   6.021   7.422  0.6748  0.4969 -0.2264
   12SAPS   H7X 1561   2.201   5.962   7.446 -0.5685 -0.7268  1.6915
   12SAPS   H7Y 1562   2.016   5.970   7.454 -0.0915  1.9843 -0.0360
   12SAPS   C38 1563   2.128   6.151   7.507  0.4876 -0.4917  0.8218
   12SAPS   H8X 1564   2.035   6.211   7.493  1.0804  0.0864 -0.6886
   12SAPS   H8Y 1565   2.216   6.207   7.470 -0.1455  0.2429  0.4235
   12SAPS   C39 1566   2.135   6.124   7.657 -0.0711 -0.8287 -0.6301
   12SAPS   H9X 1567   2.235   6.076   7.666 -0.9405 -3.0147 -1.9979
   12SAPS   H9Y 1568   2.051   6.055   7.681 -0.4352  0.0721  0.7439
   12SAPS  C310 1569   2.118   6.257   7.737 -0.9190  0.1521  0.6296
   12SAPS  H10X 1570   2.019   6.301   7.711 -0.1622 -0.0735 -2.8690
   12SAPS  H10Y 1571   2.192   6.334   7.706 -2.2339  0.5393 -1.7066
   12SAPS  C311 1572   2.113   6.246   7.889  0.2520 -0.3140 -0.3837
   12SAPS  H11X 1573   2.213   6.224   7.933 -0.2541  0.3783  1.1351
   12SAPS  H11Y 1574   2.052   6.160   7.924  1.2302 -1.0803 -0.5384
   12SAPS  C312 1575   2.083   6.383   7.947  0.2538 -0.1715  0.7239
   12SAPS  H12X 1576   1.981   6.409   7.910  0.3160  1.9846  1.9644
   12SAPS  H12Y 1577   2.156   6.454   7.903  0.9655 -0.1814  1.8605
   12SAPS  C313 1578   2.079   6.382   8.103  0.4427 -0.0196 -0.4388
   12SAPS  H13X 1579   1.999   6.309   8.129  2.5643 -2.1113  0.4438
   12SAPS  H13Y 1580   2.041   6.480   8.138 -0.9465 -1.4793  2.3714
   12SAPS  C314 1581   2.206   6.327   8.177 -0.0543 -0.5138  0.0388
   12SAPS  H14X 1582   2.219   6.391   8.266 -0.2153 -1.2571  0.5967
   12SAPS  H14Y 1583   2.292   6.348   8.111 -0.7875 -1.7382 -1.3485
   12SAPS  C315 1584   2.212   6.186   8.227 -0.6507 -0.0697  0.1447
   12SAPS  H15X 1585   2.316   6.169   8.264  0.4395  0.6235 -2.4923
   12SAPS  H15Y 1586   2.204   6.117   8.141 -1.9386 -0.2744  0.4170
   12SAPS  C316 1587   2.112   6.156   8.338  0.3418 -1.0719  0.4749
   12SAPS  H16X 1588   2.010   6.197   8.322  1.0134  0.8818  1.0567
   12SAPS  H16Y 1589   2.147   6.216   8.425 -2.9751  1.3856  0.2189
   12SAPS  C317 1590   2.082   6.013   8.391  0.0771 -0.4505  0.3342
   12SAPS  H17X 1591   2.059   5.945   8.306 -2.7698  0.9897 -0.0982
   12SAPS  H17Y 1592   1.988   6.026   8.449  0.1566 -0.7382  0.5301
   12SAPS  C318 1593   2.194   5.966   8.482  0.3506 -0.1489 -0.0412
   12SAPS  H18X 1594   2.290   5.999   8.437  1.2677 -2.5307  0.0898
   12SAPS  H18Y 1595   2.203   5.856   8.497  2.9341  0.2392  1.8217
   12SAPS  H18Z 1596   2.182   6.013   8.582 -1.6632 -0.5641 -0.0667
   13SAPS     N 1597   2.615   1.905   5.911 -0.0892  0.1230  0.4777
   13SAPS   HN1 1598   2.690   1.843   5.874 -1.8993 -2.3650  0.7702
   13SAPS   HN2 1599   2.530   1.860   5.951 -1.4256  1.3815 -0.9056
   13SAPS   HN3 1600   2.578   1.966   5.836  0.3156  0.1860  0.3311
   13SAPS   C12 1601   2.687   1.985   6.015 -0.3544 -0.7063 -0.1987
   13SAPS  H12A 1602   2.739   1.910   6.072  0.1867 -1.2845 -1.4349
   13SAPS   C13 1603   2.791   2.081   5.961 -0.3565 -0.0455  0.4476
   13SAPS  O13A 1604   2.792   2.117   5.844 -0.1899 -0.0228 -0.0422
   13SAPS  O13B 1605   2.887   2.116   6.033  0.3524  0.4620 -0.5092
   13SAPS   C11 1606   2.590   2.082   6.093  0.8032 -1.0377 -0.3460
   13SAPS  H11A 1607   2.656   2.153   6.147 -0.4186 -0.5525  0.5176
   13SAPS  H11B 1608   2.548   2.027   6.179 -0.7938 -1.9872 -1.6941
   13SAPS     P 1609   2.350   2.095   6.015 -0.1978 -0.0882  0.6470
   13SAPS   O13 1610   2.289   2.166   5.902  0.1510 -0.1972 -0.3151
   13SAPS   O14 1611   2.348   1.944   6.018  0.3187  0.2574 -0.5384
   13SAPS   O12 1612   2.498   2.151   6.011  0.1086  0.5900 -0.9746
   13SAPS   O11 1613   2.301   2.144   6.157  0.0073 -0.4601  0.6425
   13SAPS    C1 1614   2.264   2.277   6.193  0.3527 -0.6704  0.0804
   13SAPS    HA 1615   2.322   2.354   6.138  0.5140 -0.8838 -0.0519
   13SAPS    HB 1616   2.158   2.307   6.177  0.0240 -0.7978  1.9079
   13SAPS    C2 1617   2.286   2.289   6.347  0.5326 -0.9473 -0.9881
   13SAPS    HS 1618   2.224   2.209   6.394 -0.1610 -0.4766 -1.1025
   13SAPS   O21 1619   2.232   2.422   6.394 -0.3371  0.4255  0.5185
   13SAPS   C21 1620   2.099   2.434   6.397  0.5589  0.3870  0.2911
   13SAPS   O22 1621   2.011   2.354   6.369 -0.1989 -0.0894 -0.5352
   13SAPS   C22 1622   2.064   2.582   6.441  0.3268  0.6493 -0.2849
   13SAPS   H2R 1623   2.154   2.634   6.477 -0.6815  1.4394  1.1221
   13SAPS   H2S 1624   2.038   2.635   6.347  3.5159  1.3158 -0.8240
   13SAPS    C3 1625   2.434   2.271   6.389 -0.9201  0.2137  0.1139
   13SAPS    HX 1626   2.495   2.312   6.306 -0.8010  1.0681  0.6144
   13SAPS    HY 1627   2.442   2.161   6.393 -1.1331  0.2192  0.7009
   13SAPS   O31 1628   2.470   2.331   6.513 -1.0895  0.7779  0.0871
   13SAPS   C31 1629   2.572   2.278   6.578  0.0411  1.4169  0.1418
   13SAPS   O32 1630   2.639   2.182   6.549 -0.4050  0.5028  0.6459
   13SAPS   C32 1631   2.587   2.348   6.718 -0.1976 -0.5907 -0.1252
   13SAPS   H2X 1632   2.488   2.381   6.755  0.0320  0.4132 -0.3887
   13SAPS   H2Y 1633   2.642   2.440   6.690  2.1444 -1.9415 -0.0436
   13SAPS   C23 1634   1.944   2.575   6.548  1.0514 -0.8113 -0.2637
   13SAPS   H3R 1635   1.849   2.529   6.512  1.2197 -0.8662 -0.6484
   13SAPS   H3S 1636   1.923   2.679   6.579  0.3591 -0.2599 -2.4944
   13SAPS   C24 1637   1.988   2.501   6.674 -0.1410 -0.5970  0.2721
   13SAPS   H4R 1638   2.024   2.405   6.631 -2.0261 -0.7682 -1.0045
   13SAPS   H4S 1639   1.903   2.471   6.738 -0.5259  2.9430  1.5187
   13SAPS   C25 1640   2.086   2.581   6.750 -0.6613  0.0196  0.1337
   13SAPS   H5R 1641   2.167   2.614   6.684 -0.5114 -0.6874 -0.0464
   13SAPS   C26 1642   2.087   2.624   6.878 -0.1414 -0.0714 -0.8181
   13SAPS   H6R 1643   2.180   2.663   6.922  1.1676  0.2734 -3.7986
   13SAPS   C27 1644   1.982   2.604   6.984  0.2145 -0.1063  0.1084
   13SAPS   H7R 1645   1.889   2.561   6.942 -0.5049 -2.5144  3.8931
   13SAPS   H7S 1646   1.951   2.706   7.014 -0.7829 -0.5566  0.6364
   13SAPS   C28 1647   2.047   2.508   7.085 -0.3558  0.0414  0.2990
   13SAPS   H8R 1648   2.092   2.419   7.039 -0.6421 -0.5641  1.1818
   13SAPS   C29 1649   2.072   2.537   7.216  0.1479  0.2822 -0.3993
   13SAPS   H9R 1650   2.110   2.450   7.271 -1.3597 -0.5029 -0.5715
   13SAPS  C210 1651   2.036   2.653   7.299 -0.4960 -0.9579 -0.1688
   13SAPS  H10R 1652   2.002   2.627   7.402  1.8940  0.2068  0.9625
   13SAPS  H10S 1653   1.947   2.710   7.265 -0.4146 -1.6531 -1.5632
   13SAPS  C211 1654   2.157   2.738   7.295 -0.7559 -0.0447 -0.6054
   13SAPS  H11R 1655   2.201   2.754   7.195  0.8321  1.1447  0.2635
   13SAPS  C212 1656   2.233   2.785   7.395 -0.8987  0.2279  0.9440
   13SAPS  H12R 1657   2.302   2.864   7.364 -0.2832 -0.0636  1.5573
   13SAPS  C213 1658   2.202   2.759   7.543 -0.1436  0.1034 -0.6678
   13SAPS  H13R 1659   2.296   2.749   7.601  0.4009 -2.0013 -1.8338
   13SAPS  H13S 1660   2.155   2.658   7.545  0.2729 -0.1877 -3.4344
   13SAPS  C214 1661   2.107   2.855   7.610 -0.4315 -0.5259 -0.2272
   13SAPS  H14R 1662   2.081   2.945   7.552  2.8397  0.6590  0.0766
   13SAPS  C215 1663   2.067   2.850   7.741 -0.6305  0.0139  0.4313
   13SAPS  H15R 1664   2.003   2.932   7.779 -0.7185 -0.6065  1.6331
   13SAPS  C216 1665   2.106   2.753   7.849  0.5972  0.0413  0.7159
   13SAPS  H16R 1666   2.138   2.816   7.935 -1.5787  1.6565  0.3844
   13SAPS  H16S 1667   2.194   2.690   7.826 -1.9887 -2.6258 -2.3553
   13SAPS  C217 1668   1.992   2.657   7.888  0.5327  0.3730 -0.4895
   13SAPS  H17R 1669   1.952   2.611   7.796  0.1258  0.5319 -0.3931
   13SAPS  H17S 1670   1.909   2.718   7.930  1.1726 -1.0377  3.0187
   13SAPS  C218 1671   2.029   2.545   7.990 -0.1605  0.0336 -0.9713
   13SAPS  H18R 1672   2.113   2.484   7.951 -1.4781 -1.0463 -2.2002
   13SAPS  H18S 1673   1.940   2.478   7.997  0.1667 -0.2254  1.4931
   13SAPS  C219 1674   2.057   2.592   8.133 -0.2814 -0.3373  0.5329
   13SAPS  H19R 1675   1.961   2.631   8.174  0.3835 -0.1211  1.9039
   13SAPS  H19S 1676   2.132   2.673   8.125 -1.3213  0.4325 -1.9977
   13SAPS  C220 1677   2.111   2.479   8.225  0.0380 -0.0170  0.2117
   13SAPS  H20R 1678   2.201   2.443   8.171 -0.5073  1.3092 -1.6181
   13SAPS  H20S 1679   2.041   2.394   8.240 -2.0545  1.8430  1.3784
   13SAPS  H20T 1680   2.152   2.518   8.321 -3.6023  1.1735  1.3557
   13SAPS   C33 1681   2.660   2.261   6.823  1.1551 -0.0967 -0.2024
   13SAPS   H3X 1682   2.770   2.269   6.808  1.4191 -2.5030  0.1616
   13SAPS   H3Y 1683   2.628   2.155   6.834 -1.8900  0.9074  1.3009
   13SAPS   C34 1684   2.646   2.329   6.959 -0.4322 -0.1774 -0.3619
   13SAPS   H4X 1685   2.652   2.440   6.962 -0.2249 -0.1821 -0.6647
   13SAPS   H4Y 1686   2.725   2.278   7.019 -0.1804  0.0079 -0.5375
   13SAPS   C35 1687   2.510   2.297   7.028 -0.2232  0.1816  0.2357
   13SAPS   H5X 1688   2.479   2.190   7.019  2.0614 -0.3342 -2.0097
   13SAPS   H5Y 1689   2.431   2.357   6.978 -2.0185 -1.5983  0.8218
   13SAPS   C36 1690   2.514   2.329   7.179 -0.8177 -0.3209  0.1517
   13SAPS   H6X 1691   2.599   2.281   7.231  0.2331 -0.6275 -1.8033
   13SAPS   H6Y 1692   2.423   2.287   7.226 -0.4294 -0.7964  0.4767
   13SAPS   C37 1693   2.517   2.478   7.206  0.2846  0.2476  0.6121
   13SAPS   H7X 1694   2.442   2.521   7.136 -1.0151 -1.1526  1.1253
   13SAPS   H7Y 1695   2.621   2.515   7.195  0.2332  0.2879  0.2575
   13SAPS   C38 1696   2.456   2.507   7.347 -0.0755 -0.2559  0.4348
   13SAPS   H8X 1697   2.352   2.470   7.338 -0.3191  0.3727  0.6839
   13SAPS   H8Y 1698   2.452   2.617   7.363  1.7753 -0.2257  0.8143
   13SAPS   C39 1699   2.519   2.435   7.470 -0.3592  0.0976  0.1629
   13SAPS   H9X 1700   2.628   2.448   7.455  0.3651 -3.7445  1.6065
   13SAPS   H9Y 1701   2.491   2.327   7.468  2.6614 -0.7334 -0.2744
   13SAPS  C310 1702   2.482   2.503   7.600  0.7366  0.1775  0.5849
   13SAPS  H10X 1703   2.372   2.493   7.614  0.8011 -1.8599 -0.1934
   13SAPS  H10Y 1704   2.502   2.613   7.599 -1.0597  0.5397  1.6289
   13SAPS  C311 1705   2.535   2.427   7.715  0.4366 -1.0376  0.1101
   13SAPS  H11X 1706   2.646   2.417   7.712  0.7887  2.1013  1.2618
   13SAPS  H11Y 1707   2.498   2.322   7.722 -1.8587 -0.2736 -0.0377
   13SAPS  C312 1708   2.484   2.484   7.853 -0.3551 -0.3358  0.5224
   13SAPS  H12X 1709   2.540   2.435   7.936  0.6579 -1.3814 -0.7496
   13SAPS  H12Y 1710   2.378   2.450   7.861  0.4695 -2.8637  1.3662
   13SAPS  C313 1711   2.483   2.641   7.877 -0.3839 -0.0181 -0.1382
   13SAPS  H13X 1712   2.412   2.673   7.797  0.8454 -2.6537 -2.3496
   13SAPS  H13Y 1713   2.589   2.671   7.863 -0.1454 -1.2190 -0.9261
   13SAPS  C314 1714   2.417   2.671   8.012 -0.2074 -0.1865  0.2640
   13SAPS  H14X 1715   2.309   2.643   8.010 -0.0687 -0.7029 -0.1810
   13SAPS  H14Y 1716   2.412   2.781   8.027  0.0793 -0.1528  0.1278
   13SAPS  C315 1717   2.485   2.606   8.141  0.6082  0.1515  0.1090
   13SAPS  H15X 1718   2.594   2.613   8.121  0.6280 -0.2216  0.0822
   13SAPS  H15Y 1719   2.455   2.500   8.158 -1.7369  0.4740 -1.7296
   13SAPS  C316 1720   2.459   2.694   8.265  0.0434  0.1083  0.2215
   13SAPS  H16X 1721   2.354   2.679   8.297  0.2838 -0.4567  0.7469
   13SAPS  H16Y 1722   2.479   2.801   8.242 -4.4869  1.0975  0.4004
   13SAPS  C317 1723   2.559   2.654   8.380 -0.4885 -0.5949 -0.3231
   13SAPS  H17X 1724   2.570   2.743   8.445  2.2372 -1.1415  0.0390
   13SAPS  H17Y 1725   2.657   2.637   8.330 -0.6031 -2.0524 -0.0685
   13SAPS  C318 1726   2.518   2.550   8.479 -0.7494 -0.7197 -0.2746
   13SAPS  H18X 1727   2.604   2.530   8.546  0.1092  3.6586  0.0621
   13SAPS  H18Y 1728   2.496   2.455   8.426  3.5938 -1.8350 -0.2292
   13SAPS  H18Z 1729   2.429   2.578   8.540 -0.8440 -1.1886 -0.1908
   14SAPS     N 1730   2.178   4.583   6.161 -0.1330 -0.4981 -0.0460
   14SAPS   HN1 1731   2.111   4.511   6.126  0.0529  0.0421 -1.5454
   14SAPS   HN2 1732   2.277   4.554   6.150  0.1049  0.8339 -1.5157
   14SAPS   HN3 1733   2.163   4.609   6.261 -0.2461 -1.4228  0.1901
   14SAPS   C12 1734   2.158   4.694   6.063 -0.2178 -0.0471 -0.1723
   14SAPS  H12A 1735   2.166   4.652   5.964 -3.3223  0.0538 -0.5236
   14SAPS   C13 1736   2.023   4.774   6.075  1.0619 -0.0958  0.1411
   14SAPS  O13A 1737   1.961   4.782   6.185  0.4771  0.3152 -0.3005
   14SAPS  O13B 1738   2.013   4.865   5.988  0.1425  0.4606  0.6536
   14SAPS   C11 1739   2.288   4.780   6.086 -0.5048  0.2855  0.1391
   14SAPS  H11A 1740   2.296   4.813   6.192 -1.8012 -0.5941  0.5169
   14SAPS  H11B 1741   2.281   4.874   6.027 -1.2421 -1.4631 -2.6305
   14SAPS     P 1742   2.545   4.784   6.015 -0.3459 -0.4818 -0.3159
   14SAPS   O13 1743   2.633   4.702   5.934 -0.2739 -0.2875  0.2617
   14SAPS   O14 1744   2.514   4.921   5.957  0.1587 -0.2806  0.3021
   14SAPS   O12 1745   2.402   4.708   6.035 -0.4324 -0.1671 -0.0490
   14SAPS   O11 1746   2.588   4.809   6.167  0.0015 -0.5649  0.6678
   14SAPS    C1 1747   2.604   4.712   6.269 -0.7059  0.0862 -0.0907
   14SAPS    HA 1748   2.561   4.615   6.236 -0.3693 -0.8597  2.1294
   14SAPS    HB 1749   2.711   4.702   6.298  0.0920  1.5976 -2.3258
   14SAPS    C2 1750   2.523   4.753   6.400  1.1272 -0.2755 -0.0389
   14SAPS    HS 1751   2.432   4.808   6.369  1.0979 -0.5413 -0.4306
   14SAPS   O21 1752   2.613   4.831   6.481 -0.4570 -0.0875  0.2117
   14SAPS   C21 1753   2.565   4.942   6.532  0.1533 -0.2042 -0.7270
   14SAPS   O22 1754   2.449   4.983   6.521 -0.6737 -0.2362  0.3709
   14SAPS   C22 1755   2.685   5.008   6.603 -0.4599 -0.3480 -0.3961
   14SAPS   H2R 1756   2.761   4.933   6.637  1.3933  2.5780  2.2636
   14SAPS   H2S 1757   2.735   5.072   6.528  0.0446 -0.8097 -0.4545
   14SAPS    C3 1758   2.482   4.631   6.480 -0.3943  0.8126 -0.0820
   14SAPS    HX 1759   2.569   4.586   6.532 -2.0737 -0.8642  1.3215
   14SAPS    HY 1760   2.435   4.551   6.419 -2.4088  1.4450  0.6118
   14SAPS   O31 1761   2.386   4.658   6.584 -0.1115  0.1549  0.1509
   14SAPS   C31 1762   2.259   4.689   6.542  0.2841  0.5213  0.0676
   14SAPS   O32 1763   2.224   4.689   6.425  0.0312  0.5179  0.0136
   14SAPS   C32 1764   2.161   4.704   6.667  0.6570  0.0857 -0.1846
   14SAPS   H2X 1765   2.200   4.623   6.732  2.5880 -1.6157 -3.2977
   14SAPS   H2Y 1766   2.060   4.674   6.631  0.7218  1.2777 -1.4236
   14SAPS   C23 1767   2.655   5.094   6.731 -0.6868 -0.7341 -0.1307
   14SAPS   H3R 1768   2.647   5.032   6.823 -1.9056 -1.4193 -0.6852
   14SAPS   H3S 1769   2.560   5.150   6.717  0.6903  2.0774  1.3141
   14SAPS   C24 1770   2.768   5.202   6.753  0.4491 -0.0187 -0.1081
   14SAPS   H4R 1771   2.744   5.258   6.846  0.2755 -1.0909  0.5114
   14SAPS   H4S 1772   2.747   5.268   6.666 -4.1828 -0.9011  0.2150
   14SAPS   C25 1773   2.903   5.154   6.737 -0.7603  0.7385 -0.2134
   14SAPS   H5R 1774   2.953   5.177   6.642 -0.7105 -2.4732 -1.0070
   14SAPS   C26 1775   2.973   5.099   6.843 -0.2189  0.2131  0.2960
   14SAPS   H6R 1776   3.071   5.060   6.812 -0.9202 -2.0809  0.9374
   14SAPS   C27 1777   2.931   5.082   6.985 -0.1373 -0.5841  0.5657
   14SAPS   H7R 1778   2.849   5.010   7.006  1.8798 -2.2482  3.0323
   14SAPS   H7S 1779   2.914   5.184   7.025  2.8945  0.4940 -0.7455
   14SAPS   C28 1780   3.052   5.021   7.053 -0.3768 -0.3199  1.4117
   14SAPS   H8R 1781   3.154   5.046   7.019 -1.2505 -3.5413 -4.2072
   14SAPS   C29 1782   3.032   4.957   7.173  0.1103  0.4809 -0.4356
   14SAPS   H9R 1783   3.122   4.909   7.214 -0.6837 -1.7738 -1.2520
   14SAPS  C210 1784   2.905   4.934   7.254  0.2502 -0.6671 -0.6856
   14SAPS  H10R 1785   2.935   4.860   7.331  1.0035  2.5824  2.2761
   14SAPS  H10S 1786   2.816   4.889   7.204 -2.0324  0.3369  2.3647
   14SAPS  C211 1787   2.859   5.066   7.310 -0.4471  0.2825  0.5020
   14SAPS  H11R 1788   2.853   5.144   7.233  0.5775  1.6867  1.8186
   14SAPS  C212 1789   2.817   5.090   7.439 -0.2126 -0.0538  0.5777
   14SAPS  H12R 1790   2.789   5.193   7.467  0.4837  0.0740  0.8286
   14SAPS  C213 1791   2.813   4.992   7.557 -0.0178  1.0512  0.1567
   14SAPS  H13R 1792   2.838   4.893   7.513 -0.7423  0.8921  0.1015
   14SAPS  H13S 1793   2.708   4.992   7.591 -0.1688  1.3943 -0.3119
   14SAPS  C214 1794   2.919   5.025   7.655 -0.3710 -0.3152 -0.5317
   14SAPS  H14R 1795   3.022   5.010   7.619 -0.2166  0.0922 -0.2749
   14SAPS  C215 1796   2.903   5.071   7.781  0.0879 -0.5064 -0.2204
   14SAPS  H15R 1797   2.993   5.088   7.842  1.1544  1.5227 -2.3009
   14SAPS  C216 1798   2.784   5.105   7.854  0.5639  0.0229 -0.1005
   14SAPS  H16R 1799   2.704   5.031   7.831 -0.1362  1.0897 -1.1458
   14SAPS  H16S 1800   2.758   5.212   7.846  2.0467  0.2945 -1.6459
   14SAPS  C217 1801   2.803   5.079   8.010 -0.0289  0.0221  0.7405
   14SAPS  H17R 1802   2.877   5.155   8.043  1.5540 -1.1592 -0.0491
   14SAPS  H17S 1803   2.849   4.980   8.030  2.1347  0.9944  0.7305
   14SAPS  C218 1804   2.685   5.115   8.095  0.7282 -1.0406  0.2105
   14SAPS  H18R 1805   2.607   5.037   8.083  0.5488 -0.9188  0.5855
   14SAPS  H18S 1806   2.650   5.215   8.060  0.7735 -0.5443  1.5460
   14SAPS  C219 1807   2.723   5.137   8.237 -0.3919 -0.2367  0.1224
   14SAPS  H19R 1808   2.806   5.209   8.254 -0.1780 -0.8750  1.9212
   14SAPS  H19S 1809   2.764   5.041   8.274  0.2291  0.1620  0.4742
   14SAPS  C220 1810   2.596   5.174   8.311 -1.1438 -0.1583 -0.5576
   14SAPS  H20R 1811   2.562   5.279   8.302 -0.0169  0.5310  2.4920
   14SAPS  H20S 1812   2.605   5.163   8.421  0.1470  1.2736 -0.4954
   14SAPS  H20T 1813   2.513   5.108   8.278  0.5437 -2.6943  0.0974
   14SAPS   C33 1814   2.158   4.840   6.741  0.0661  0.4359 -0.7964
   14SAPS   H3X 1815   2.081   4.849   6.821  0.5583 -0.5543 -0.2018
   14SAPS   H3Y 1816   2.120   4.908   6.662 -0.2304  0.3240 -0.7513
   14SAPS   C34 1817   2.297   4.874   6.807  0.6284 -0.4646 -0.6593
   14SAPS   H4X 1818   2.293   4.983   6.828 -3.1214 -0.5783 -0.5280
   14SAPS   H4Y 1819   2.371   4.860   6.725  0.9156  0.2199 -0.5170
   14SAPS   C35 1820   2.326   4.804   6.940 -0.0361  0.9728 -0.1642
   14SAPS   H5X 1821   2.427   4.837   6.972 -0.5587  1.4599  1.0230
   14SAPS   H5Y 1822   2.330   4.694   6.922  0.4913  1.1303 -1.0310
   14SAPS   C36 1823   2.229   4.841   7.053  0.1198  0.5448  0.2726
   14SAPS   H6X 1824   2.124   4.846   7.017 -0.0022 -0.5225  0.4627
   14SAPS   H6Y 1825   2.264   4.941   7.086 -0.2489  0.5771  0.5768
   14SAPS   C37 1826   2.239   4.756   7.181  0.2808 -0.4069  0.2374
   14SAPS   H7X 1827   2.346   4.756   7.211  0.8066 -4.5765 -1.2565
   14SAPS   H7Y 1828   2.208   4.650   7.163  0.2391 -0.3778  0.1335
   14SAPS   C38 1829   2.159   4.820   7.289 -0.8587 -0.7085  0.2135
   14SAPS   H8X 1830   2.053   4.786   7.280 -0.6946 -1.2374  0.2594
   14SAPS   H8Y 1831   2.165   4.930   7.283 -2.2658 -0.5817  0.8530
   14SAPS   C39 1832   2.199   4.778   7.430 -0.7574  0.0687 -0.3477
   14SAPS   H9X 1833   2.303   4.796   7.463 -1.7587  0.1810  2.9054
   14SAPS   H9Y 1834   2.186   4.668   7.420 -0.1623 -0.1170  0.7788
   14SAPS  C310 1835   2.094   4.824   7.534 -0.4081  0.3237 -0.1000
   14SAPS  H10X 1836   1.990   4.803   7.503 -0.5648  1.5589 -0.4576
   14SAPS  H10Y 1837   2.114   4.930   7.559 -0.8106  0.1938  0.7767
   14SAPS  C311 1838   2.122   4.755   7.663  0.3580 -0.3354  0.8058
   14SAPS  H11X 1839   2.230   4.775   7.682  0.9232  1.3467 -3.5472
   14SAPS  H11Y 1840   2.118   4.645   7.645  1.1972 -0.0753 -1.1614
   14SAPS  C312 1841   2.041   4.800   7.784  0.3105  0.3206  0.1235
   14SAPS  H12X 1842   1.935   4.785   7.752  0.3335 -1.5374  0.8289
   14SAPS  H12Y 1843   2.058   4.910   7.788  0.4392  0.3720 -1.7641
   14SAPS  C313 1844   2.084   4.730   7.911 -0.2272 -0.3141 -0.1661
   14SAPS  H13X 1845   2.191   4.757   7.925  0.4419 -2.4303 -1.0516
   14SAPS  H13Y 1846   2.083   4.621   7.892 -1.6995 -0.5501  1.1636
   14SAPS  C314 1847   2.013   4.760   8.036 -0.1899 -0.0973 -0.4525
   14SAPS  H14X 1848   2.060   4.844   8.093  2.3875 -0.5122 -1.8959
   14SAPS  H14Y 1849   2.029   4.677   8.108 -1.2462  0.3954  0.3740
   14SAPS  C315 1850   1.861   4.776   8.023 -0.0304 -0.4062 -0.4902
   14SAPS  H15X 1851   1.823   4.681   7.980 -2.6812  0.9652 -1.2881
   14SAPS  H15Y 1852   1.845   4.853   7.945  0.8290  1.4595  1.1346
   14SAPS  C316 1853   1.774   4.806   8.144  0.1038 -0.8955 -0.0874
   14SAPS  H16X 1854   1.788   4.908   8.186 -1.7169 -0.5846 -0.1606
   14SAPS  H16Y 1855   1.803   4.745   8.231 -0.2633 -1.1013 -0.1070
   14SAPS  C317 1856   1.621   4.796   8.115 -0.9536 -0.6797  0.7430
   14SAPS  H17X 1857   1.567   4.794   8.212 -1.0248  0.5075  0.7441
   14SAPS  H17Y 1858   1.602   4.706   8.053  0.6060  1.2997 -2.7594
   14SAPS  C318 1859   1.576   4.924   8.037 -0.4131  0.2999 -0.2358
   14SAPS  H18X 1860   1.596   5.014   8.099 -3.2256  2.5703 -2.4505
   14SAPS  H18Y 1861   1.467   4.913   8.016 -1.0193 -0.3852  3.0978
   14SAPS  H18Z 1862   1.629   4.920   7.939 -0.2747  1.3691 -0.2069
   15SAPS     N 1863   2.818   4.501   5.969 -0.5317 -0.0768 -0.6659
   15SAPS   HN1 1864   2.861   4.488   5.875 -0.2973  0.4201 -0.6261
   15SAPS   HN2 1865   2.755   4.421   5.991  0.6669 -1.1430 -1.1050
   15SAPS   HN3 1866   2.766   4.589   5.948 -0.3194  0.8111  2.2575
   15SAPS   C12 1867   2.929   4.526   6.070 -0.3210  0.0959 -0.1764
   15SAPS  H12A 1868   2.874   4.553   6.158  0.6710  1.2853  0.0847
   15SAPS   C13 1869   3.012   4.404   6.098 -0.0406  0.2235 -0.6453
   15SAPS  O13A 1870   3.014   4.307   6.013  0.1964  0.4203 -0.1790
   15SAPS  O13B 1871   3.098   4.408   6.187 -0.0664  0.1357  0.1544
   15SAPS   C11 1872   3.014   4.652   6.019 -0.4966 -0.2915 -0.4232
   15SAPS  H11A 1873   3.059   4.625   5.921  3.9420 -0.0310  1.4147
   15SAPS  H11B 1874   3.089   4.655   6.101 -0.8167  0.8892 -0.1690
   15SAPS     P 1875   2.989   4.900   6.045  0.0391 -0.2639  0.0031
   15SAPS   O13 1876   3.102   4.931   5.952 -0.6342  0.5118 -0.0566
   15SAPS   O14 1877   2.885   5.009   6.059 -0.2557  0.4737  0.1220
   15SAPS   O12 1878   2.922   4.764   6.007 -0.1065  0.2916  0.4439
   15SAPS   O11 1879   3.040   4.878   6.197 -0.1951 -0.0867  0.5800
   15SAPS    C1 1880   2.944   4.827   6.290 -0.0244  0.1086  0.6109
   15SAPS    HA 1881   2.872   4.907   6.318 -2.0924 -0.9866 -1.3930
   15SAPS    HB 1882   2.891   4.741   6.243  3.9900 -1.3947 -1.4030
   15SAPS    C2 1883   3.017   4.786   6.422 -0.0859 -0.4547 -0.4438
   15SAPS    HS 1884   3.073   4.694   6.395 -0.1514 -0.1860 -1.5194
   15SAPS   O21 1885   2.924   4.762   6.531 -0.2245  0.8638  0.3021
   15SAPS   C21 1886   2.893   4.638   6.565  0.1195  1.0955 -0.3009
   15SAPS   O22 1887   2.927   4.532   6.500  0.4805 -1.3252 -0.1743
   15SAPS   C22 1888   2.818   4.642   6.700 -0.0347  0.0952 -0.2612
   15SAPS   H2R 1889   2.843   4.740   6.745  0.0063  0.2903 -0.7040
   15SAPS   H2S 1890   2.709   4.659   6.690  0.0757  0.7201 -0.4036
   15SAPS    C3 1891   3.115   4.901   6.467  0.4313  0.5960  0.6692
   15SAPS    HX 1892   3.073   5.002   6.448  2.7054  1.3621 -0.3964
   15SAPS    HY 1893   3.200   4.895   6.396  0.4174  0.5456  0.6566
   15SAPS   O31 1894   3.164   4.886   6.604  0.4961 -0.1611  0.4633
   15SAPS   C31 1895   3.250   4.786   6.620  0.1014  0.5240 -0.0183
   15SAPS   O32 1896   3.306   4.720   6.537  0.1998 -0.2692  0.0493
   15SAPS   C32 1897   3.290   4.786   6.774 -0.0041 -0.2519 -0.0504
   15SAPS   H2X 1898   3.240   4.870   6.827  0.3105  0.4272 -0.8223
   15SAPS   H2Y 1899   3.401   4.784   6.772 -0.0220 -0.9089 -0.6233
   15SAPS   C23 1900   2.837   4.511   6.785 -0.1988 -0.2714 -0.0161
   15SAPS   H3R 1901   2.940   4.469   6.780 -0.1042  0.1207 -1.7533
   15SAPS   H3S 1902   2.774   4.430   6.742 -0.7936 -1.0594  2.2282
   15SAPS   C24 1903   2.785   4.524   6.930 -0.0454  0.3465  0.9470
   15SAPS   H4R 1904   2.847   4.600   6.983  0.8304  0.8202 -0.7101
   15SAPS   H4S 1905   2.817   4.425   6.969 -1.6985 -0.2364  0.8552
   15SAPS   C25 1906   2.635   4.548   6.945 -0.4343 -0.0166 -0.5631
   15SAPS   H5R 1907   2.588   4.553   6.846 -1.2426  1.5478 -0.0975
   15SAPS   C26 1908   2.576   4.588   7.064 -0.2312 -0.4945 -0.1780
   15SAPS   H6R 1909   2.468   4.608   7.070  0.1772  1.8494  0.1403
   15SAPS   C27 1910   2.653   4.608   7.198 -0.8013 -0.1017 -0.4893
   15SAPS   H7R 1911   2.628   4.708   7.241  0.9150 -0.6647  1.8930
   15SAPS   H7S 1912   2.763   4.606   7.179 -1.0977 -2.4424 -2.2024
   15SAPS   C28 1913   2.616   4.503   7.305 -0.0356  0.1483  0.3553
   15SAPS   H8R 1914   2.564   4.416   7.261  0.5851 -0.2916  0.4778
   15SAPS   C29 1915   2.638   4.519   7.438 -0.8376 -0.4233  0.2177
   15SAPS   H9R 1916   2.610   4.435   7.503  1.0967 -1.7183 -0.5802
   15SAPS  C210 1917   2.696   4.636   7.505  0.9171  0.8335 -0.7208
   15SAPS  H10R 1918   2.770   4.683   7.438  0.9997 -0.1659 -1.3474
   15SAPS  H10S 1919   2.752   4.598   7.594 -0.3018 -2.4067 -1.2550
   15SAPS  C211 1920   2.578   4.732   7.528 -0.1850  0.7473  0.4889
   15SAPS  H11R 1921   2.531   4.779   7.440 -0.6522 -0.7725 -0.0870
   15SAPS  C212 1922   2.518   4.733   7.647  0.1496 -0.0261 -0.5578
   15SAPS  H12R 1923   2.443   4.810   7.671  1.0215  0.5990  0.2492
   15SAPS  C213 1924   2.544   4.636   7.758 -0.4693 -0.2419 -0.6721
   15SAPS  H13R 1925   2.642   4.660   7.804 -0.6710 -1.6675  0.5334
   15SAPS  H13S 1926   2.567   4.540   7.707 -0.4124 -0.4577 -0.2468
   15SAPS  C214 1927   2.438   4.613   7.861 -0.1245  0.0048  0.7942
   15SAPS  H14R 1928   2.344   4.584   7.811 -0.2569  1.2178  0.3300
   15SAPS  C215 1929   2.435   4.633   7.993 -0.1244  0.0611  0.6357
   15SAPS  H15R 1930   2.340   4.615   8.044  0.4042 -0.0442  1.6081
   15SAPS  C216 1931   2.552   4.692   8.071  0.0116 -0.3158 -0.6664
   15SAPS  H16R 1932   2.523   4.798   8.086  1.5503  0.1560 -0.8845
   15SAPS  H16S 1933   2.646   4.699   8.012  1.1309  1.3502  1.2316
   15SAPS  C217 1934   2.563   4.614   8.197 -0.0440 -0.8681 -1.1675
   15SAPS  H17R 1935   2.653   4.657   8.247 -0.1720 -1.1642 -0.6693
   15SAPS  H17S 1936   2.587   4.509   8.172  1.5162 -0.5900 -0.8885
   15SAPS  C218 1937   2.440   4.618   8.295 -0.2258  0.4557  0.3760
   15SAPS  H18R 1938   2.353   4.569   8.245  0.5179  0.0300 -0.5128
   15SAPS  H18S 1939   2.413   4.724   8.312  1.2155  0.8991 -0.0636
   15SAPS  C219 1940   2.469   4.554   8.430 -1.5974 -0.0494  0.2034
   15SAPS  H19R 1941   2.558   4.601   8.477  0.4078 -1.1560 -2.3805
   15SAPS  H19S 1942   2.485   4.444   8.421 -0.4171 -0.3532  4.6125
   15SAPS  C220 1943   2.359   4.576   8.522 -0.2209  0.0042  0.0719
   15SAPS  H20R 1944   2.341   4.686   8.526  0.3922  0.1680 -1.3896
   15SAPS  H20S 1945   2.387   4.538   8.623  1.3218  0.8150 -0.0391
   15SAPS  H20T 1946   2.270   4.516   8.493 -0.0240  0.0219 -0.5740
   15SAPS   C33 1947   3.246   4.654   6.850  0.4510  0.2953 -0.8372
   15SAPS   H3X 1948   3.337   4.591   6.850 -0.5801 -1.3336  1.9473
   15SAPS   H3Y 1949   3.166   4.605   6.791  0.7681  0.6748 -1.5806
   15SAPS   C34 1950   3.204   4.680   6.995  0.2911 -0.0775 -0.4744
   15SAPS   H4X 1951   3.107   4.734   6.996  0.8877  0.9833  1.0603
   15SAPS   H4Y 1952   3.279   4.732   7.057 -0.6172 -0.5851  1.0802
   15SAPS   C35 1953   3.174   4.549   7.067  0.1144  0.7321 -0.6176
   15SAPS   H5X 1954   3.273   4.499   7.073  0.5613  1.6456 -0.1905
   15SAPS   H5Y 1955   3.105   4.494   7.001 -1.4651 -0.4130  1.9267
   15SAPS   C36 1956   3.103   4.572   7.194  0.2411  0.6734  0.3506
   15SAPS   H6X 1957   3.001   4.610   7.170  1.2638  2.7953 -0.7938
   15SAPS   H6Y 1958   3.149   4.653   7.254  3.1056 -1.3145  0.9600
   15SAPS   C37 1959   3.091   4.442   7.276  0.2487  0.2467 -0.1514
   15SAPS   H7X 1960   3.191   4.394   7.280  0.3589  0.6046  2.3833
   15SAPS   H7Y 1961   3.026   4.372   7.220  1.5527 -0.1072 -1.2339
   15SAPS   C38 1962   3.014   4.455   7.414 -0.8383  0.2708 -0.3960
   15SAPS   H8X 1963   2.939   4.374   7.428  0.5729 -0.5701  2.5598
   15SAPS   H8Y 1964   2.951   4.547   7.420 -1.4296 -0.1621  0.1733
   15SAPS   C39 1965   3.116   4.460   7.528  0.1383  1.1281 -0.1656
   15SAPS   H9X 1966   3.184   4.546   7.515  0.8800  0.3146 -1.9184
   15SAPS   H9Y 1967   3.175   4.366   7.536  3.0967  2.9592 -0.2061
   15SAPS  C310 1968   3.042   4.469   7.666 -0.0591  0.5189  0.6255
   15SAPS  H10X 1969   2.958   4.397   7.659 -0.0687  0.7078 -1.5411
   15SAPS  H10Y 1970   3.000   4.572   7.670 -0.0336  0.4964  1.6141
   15SAPS  C311 1971   3.136   4.442   7.780  0.4596  0.0459 -0.4682
   15SAPS  H11X 1972   3.220   4.516   7.774  0.6762  0.2998  3.9708
   15SAPS  H11Y 1973   3.178   4.339   7.770 -0.8761 -0.4557 -0.9310
   15SAPS  C312 1974   3.058   4.457   7.904  0.1417  0.6033 -0.7644
   15SAPS  H12X 1975   2.968   4.392   7.898 -0.9064  2.0457 -0.8638
   15SAPS  H12Y 1976   3.028   4.564   7.901  1.2205  0.9380  0.0542
   15SAPS  C313 1977   3.141   4.428   8.029  0.7989 -0.1958  0.6154
   15SAPS  H13X 1978   3.238   4.480   8.015 -0.5203  1.4719 -2.6615
   15SAPS  H13Y 1979   3.156   4.318   8.026  1.9829  0.0011 -1.8469
   15SAPS  C314 1980   3.069   4.453   8.157  0.6507 -0.2185 -0.1769
   15SAPS  H14X 1981   3.122   4.407   8.243 -1.5868  1.5541  2.2357
   15SAPS  H14Y 1982   2.972   4.401   8.147  1.0899 -1.1259  0.2892
   15SAPS  C315 1983   3.043   4.603   8.181  0.4497  0.2247 -0.4094
   15SAPS  H15X 1984   2.983   4.650   8.100 -1.9936 -0.7623  0.7536
   15SAPS  H15Y 1985   3.142   4.651   8.187  1.4666 -1.9251  0.7468
   15SAPS  C316 1986   2.970   4.623   8.310  0.3790  0.1574 -0.5049
   15SAPS  H16X 1987   3.015   4.572   8.398  0.8930 -3.6068 -2.8511
   15SAPS  H16Y 1988   2.864   4.591   8.299  0.0222  1.2360 -0.2427
   15SAPS  C317 1989   2.952   4.773   8.353  0.3378  0.1142  0.6948
   15SAPS  H17X 1990   2.915   4.833   8.266  0.4466 -0.2304  0.4105
   15SAPS  H17Y 1991   3.050   4.816   8.382  0.0484  1.9434 -0.9202
   15SAPS  C318 1992   2.862   4.803   8.477 -0.1645 -0.5542  0.3861
   15SAPS  H18X 1993   2.909   4.743   8.558  0.1992 -2.3155 -1.1001
   15SAPS  H18Y 1994   2.760   4.770   8.448 -1.1210  1.9793  0.7639
   15SAPS  H18Z 1995   2.873   4.910   8.503 -1.9543 -0.5449  1.1702
   16SAPS     N 1996   4.543   6.327   6.314  0.0919 -0.2637  0.0014
   16SAPS   HN1 1997   4.477   6.254   6.348 -0.5111  0.0623 -0.4572
   16SAPS   HN2 1998   4.503   6.419   6.341 -0.9114 -0.4392 -0.8640
   16SAPS   HN3 1999   4.538   6.317   6.211  0.5198 -1.0468  0.0505
   16SAPS   C12 2000   4.688   6.311   6.346  0.0475 -0.4009  0.1038
   16SAPS  H12A 2001   4.708   6.206   6.332 -1.4134 -0.6739 -0.0048
   16SAPS   C13 2002   4.782   6.401   6.253 -0.5763  0.2387 -0.4895
   16SAPS  O13A 2003   4.727   6.447   6.153  0.0375  0.0892  0.6571
   16SAPS  O13B 2004   4.908   6.407   6.269 -0.5033 -0.3397  0.3328
   16SAPS   C11 2005   4.718   6.341   6.493  0.3311  0.5725 -0.0357
   16SAPS  H11A 2006   4.696   6.450   6.501 -1.4972  0.1566  0.9007
   16SAPS  H11B 2007   4.825   6.336   6.522  1.2559  2.5239 -2.9747
   16SAPS     P 2008   4.516   6.336   6.668 -0.1981 -0.1653 -0.0812
   16SAPS   O13 2009   4.433   6.407   6.567 -0.2245 -0.5494 -0.2031
   16SAPS   O14 2010   4.458   6.240   6.765  0.3333 -0.4173  0.5217
   16SAPS   O12 2011   4.628   6.254   6.579  0.1988 -0.0437  0.2668
   16SAPS   O11 2012   4.603   6.439   6.744 -0.6804  0.7331 -0.5444
   16SAPS    C1 2013   4.709   6.406   6.840  0.1199  0.3115 -0.3152
   16SAPS    HA 2014   4.771   6.316   6.817  0.5708  0.4189  0.4739
   16SAPS    HB 2015   4.784   6.487   6.825  0.5849 -0.1906 -0.7114
   16SAPS    C2 2016   4.666   6.417   6.987  0.8147  0.0746 -0.2806
   16SAPS    HS 2017   4.753   6.415   7.057  0.5709  0.3712  0.0323
   16SAPS   O21 2018   4.585   6.302   7.018 -0.6507  0.3817 -0.1014
   16SAPS   C21 2019   4.628   6.181   7.009  0.6292  0.9708 -0.0102
   16SAPS   O22 2020   4.736   6.144   6.970  0.1991 -0.1251 -0.1673
   16SAPS   C22 2021   4.503   6.098   7.041 -0.1283  0.7305  0.2748
   16SAPS   H2R 2022   4.421   6.159   7.085  0.1305  0.3018  1.3841
   16SAPS   H2S 2023   4.464   6.060   6.945 -1.0167  1.7792  0.2094
   16SAPS    C3 2024   4.598   6.542   7.030  0.3204 -0.4089  0.3115
   16SAPS    HX 2025   4.517   6.561   6.956  0.6684  1.3737  0.3791
   16SAPS    HY 2026   4.660   6.634   7.032 -1.6636  0.9959 -0.2389
   16SAPS   O31 2027   4.532   6.529   7.148 -0.3872  0.1592 -0.7598
   16SAPS   C31 2028   4.603   6.523   7.264 -0.3489 -0.1729  0.0553
   16SAPS   O32 2029   4.725   6.523   7.272  0.3234 -0.4369 -0.1826
   16SAPS   C32 2030   4.497   6.502   7.375 -0.5489  0.6034  0.1015
   16SAPS   H2X 2031   4.444   6.406   7.359 -0.1391  0.2368  0.8987
   16SAPS   H2Y 2032   4.429   6.590   7.369 -1.6571 -0.2462 -0.0128
   16SAPS   C23 2033   4.536   5.970   7.126 -0.3355  0.3864 -0.0850
   16SAPS   H3R 2034   4.604   5.899   7.076 -1.2991  0.1933 -1.1269
   16SAPS   H3S 2035   4.438   5.918   7.127  0.3867 -1.2113 -4.5809
   16SAPS   C24 2036   4.579   6.000   7.278  0.4241  0.3408  0.1545
   16SAPS   H4R 2037   4.671   6.062   7.278  1.8684 -1.7670 -0.8018
   16SAPS   H4S 2038   4.601   5.908   7.335  2.2645  0.8525  0.3153
   16SAPS   C25 2039   4.466   6.066   7.350  0.9345 -0.7321  0.7284
   16SAPS   H5R 2040   4.365   6.053   7.309  2.1978 -3.8364 -1.6163
   16SAPS   C26 2041   4.485   6.120   7.472  0.2659  0.2403  0.9073
   16SAPS   H6R 2042   4.406   6.188   7.506 -0.5940  0.1375 -0.8255
   16SAPS   C27 2043   4.621   6.109   7.548  0.3034  0.2160 -0.3243
   16SAPS   H7R 2044   4.708   6.149   7.492 -0.5667 -0.5456 -2.2434
   16SAPS   H7S 2045   4.631   6.002   7.577 -0.8367  0.8198  2.5412
   16SAPS   C28 2046   4.613   6.174   7.684  1.0709 -0.3913  0.0516
   16SAPS   H8R 2047   4.673   6.266   7.691  2.4281 -1.1296 -1.4991
   16SAPS   C29 2048   4.535   6.127   7.785 -0.3798 -0.4115  0.1050
   16SAPS   H9R 2049   4.536   6.177   7.883 -0.9712  0.9374 -0.5579
   16SAPS  C210 2050   4.436   6.009   7.786 -0.0082 -0.7673  0.7068
   16SAPS  H10R 2051   4.455   5.926   7.714 -1.1873 -1.7419  1.4929
   16SAPS  H10S 2052   4.338   6.057   7.764  1.6186  1.2520 -2.5122
   16SAPS  C211 2053   4.421   5.934   7.913  0.1997  0.1905 -0.2917
   16SAPS  H11R 2054   4.485   5.845   7.922  0.1456  0.1490 -0.3144
   16SAPS  C212 2055   4.357   5.972   8.027  0.1605  0.0687 -0.0793
   16SAPS  H12R 2056   4.361   5.895   8.106 -1.8112 -0.0637 -0.0867
   16SAPS  C213 2057   4.277   6.094   8.072 -0.9063 -0.0270 -0.2088
   16SAPS  H13R 2058   4.306   6.183   8.011  1.4854 -0.8616 -0.3255
   16SAPS  H13S 2059   4.307   6.119   8.176 -1.2171  0.1949 -0.1715
   16SAPS  C214 2060   4.126   6.087   8.080  0.1064  0.4169  0.2259
   16SAPS  H14R 2061   4.075   6.103   7.984  0.2016 -1.6197 -0.1830
   16SAPS  C215 2062   4.049   6.060   8.188  0.0638 -0.1250 -0.3139
   16SAPS  H15R 2063   3.939   6.062   8.177  0.0508 -0.2904 -0.2299
   16SAPS  C216 2064   4.104   6.035   8.324  0.6038 -0.1876 -0.3924
   16SAPS  H16R 2065   4.157   6.121   8.371  0.2798  0.7054 -1.6453
   16SAPS  H16S 2066   4.183   5.958   8.309  1.1403  0.2219  0.2971
   16SAPS  C217 2067   3.987   5.991   8.412  0.1206 -0.0595 -0.6423
   16SAPS  H17R 2068   3.920   6.080   8.411 -1.7302 -1.4424 -1.1970
   16SAPS  H17S 2069   4.023   5.986   8.517 -2.5047 -0.4711  0.2682
   16SAPS  C218 2070   3.920   5.860   8.378 -0.6974  0.0882  1.0267
   16SAPS  H18R 2071   3.906   5.801   8.471  0.2780 -0.9237  0.5539
   16SAPS  H18S 2072   3.991   5.799   8.317 -0.7848  1.4346 -0.4652
   16SAPS  C219 2073   3.786   5.871   8.311  0.1598  0.5073 -0.2601
   16SAPS  H19R 2074   3.791   5.888   8.201  0.5711 -2.2099 -0.6972
   16SAPS  H19S 2075   3.729   5.959   8.347 -2.1895 -0.9171 -0.3783
   16SAPS  C220 2076   3.706   5.739   8.343  0.1396 -0.4062  0.1337
   16SAPS  H20R 2077   3.757   5.649   8.302 -1.4728 -0.2570 -2.3029
   16SAPS  H20S 2078   3.603   5.733   8.301 -0.1055  0.4517  0.6028
   16SAPS  H20T 2079   3.697   5.720   8.452 -1.1660  0.4260  0.1792
   16SAPS   C33 2080   4.555   6.504   7.518  0.8536 -1.0472 -0.2930
   16SAPS   H3X 2081   4.612   6.597   7.539 -0.2936 -0.2711 -0.5943
   16SAPS   H3Y 2082   4.622   6.416   7.532  0.8648 -0.7345  1.7551
   16SAPS   C34 2083   4.441   6.498   7.617  0.1908  0.6230 -0.2725
   16SAPS   H4X 2084   4.387   6.402   7.607  1.9721 -0.5095  0.5830
   16SAPS   H4Y 2085   4.391   6.593   7.589 -1.2756  0.3490  1.2883
   16SAPS   C35 2086   4.476   6.511   7.766  0.0051 -0.2086 -0.6098
   16SAPS   H5X 2087   4.553   6.589   7.778  0.5295 -1.0020  1.4514
   16SAPS   H5Y 2088   4.511   6.416   7.813  0.0547  0.5188  0.8497
   16SAPS   C36 2089   4.357   6.547   7.852  0.5840  0.6113 -1.1065
   16SAPS   H6X 2090   4.277   6.469   7.855  1.5296 -0.3400  0.5755
   16SAPS   H6Y 2091   4.318   6.639   7.804 -2.0659 -0.5594 -1.3514
   16SAPS   C37 2092   4.374   6.578   8.000  0.1026 -0.1561  0.5186
   16SAPS   H7X 2093   4.288   6.634   8.043  1.0385  1.6477  0.0449
   16SAPS   H7Y 2094   4.462   6.645   8.003 -0.6579  0.8449  1.1614
   16SAPS   C38 2095   4.402   6.456   8.086  0.2087 -0.0282 -0.4546
   16SAPS   H8X 2096   4.496   6.405   8.058  1.3162  1.2353  0.8917
   16SAPS   H8Y 2097   4.324   6.378   8.072 -0.4334  0.4738  0.2554
   16SAPS   C39 2098   4.415   6.481   8.237 -0.4614 -0.1718  0.1053
   16SAPS   H9X 2099   4.499   6.547   8.270  1.4500 -1.8323 -1.2814
   16SAPS   H9Y 2100   4.431   6.377   8.273  0.5209 -0.7687 -1.9510
   16SAPS  C310 2101   4.284   6.536   8.298  0.1659  0.2156  0.2238
   16SAPS  H10X 2102   4.266   6.637   8.257  0.1675  0.2928  0.4123
   16SAPS  H10Y 2103   4.315   6.549   8.404  0.2224 -0.8488  0.3483
   16SAPS  C311 2104   4.167   6.444   8.299  0.3228 -0.2769  0.5922
   16SAPS  H11X 2105   4.188   6.341   8.335 -0.0363  1.1066  5.1342
   16SAPS  H11Y 2106   4.127   6.425   8.197  1.2050  0.1008  0.1668
   16SAPS  C312 2107   4.047   6.493   8.379 -0.3010  0.4021 -0.0739
   16SAPS  H12X 2108   4.005   6.588   8.339  0.6072  0.7744 -0.1502
   16SAPS  H12Y 2109   4.090   6.528   8.476 -1.9776 -0.1540  0.8852
   16SAPS  C313 2110   3.957   6.371   8.398  0.3733 -0.4585 -0.3370
   16SAPS  H13X 2111   4.015   6.277   8.409  2.3808  0.7108 -0.5397
   16SAPS  H13Y 2112   3.917   6.357   8.295  0.6130  0.2379 -0.5318
   16SAPS  C314 2113   3.850   6.373   8.507 -0.1802 -0.2683 -0.0570
   16SAPS  H14X 2114   3.904   6.380   8.604  0.5999  3.0335 -0.6594
   16SAPS  H14Y 2115   3.807   6.271   8.511  0.7522 -0.6560  0.4059
   16SAPS  C315 2116   3.742   6.478   8.485 -0.4331  0.1005 -0.2642
   16SAPS  H15X 2117   3.711   6.465   8.379  1.0681 -0.8619 -0.5918
   16SAPS  H15Y 2118   3.784   6.581   8.485  0.4264 -0.1967 -3.0321
   16SAPS  C316 2119   3.634   6.473   8.585  0.7047  0.0296  0.3696
   16SAPS  H16X 2120   3.564   6.559   8.578  1.2042  0.4955  1.0608
   16SAPS  H16Y 2121   3.667   6.469   8.691  0.4778  0.9870  0.4774
   16SAPS  C317 2122   3.542   6.348   8.565 -0.0720  0.6355  0.7881
   16SAPS  H17X 2123   3.516   6.312   8.667  0.3081  1.0608  1.0375
   16SAPS  H17Y 2124   3.587   6.264   8.507 -1.0519 -0.7372  1.9846
   16SAPS  C318 2125   3.414   6.382   8.489  0.4322 -0.1065 -0.3082
   16SAPS  H18X 2126   3.350   6.451   8.548 -3.2530 -3.1654 -0.6062
   16SAPS  H18Y 2127   3.357   6.287   8.478  0.4512 -0.5782  3.0695
   16SAPS  H18Z 2128   3.432   6.416   8.385  1.6685 -0.0902 -0.0970
   17SAPC     N 2129   2.612   3.114  10.485 -0.3596 -0.0544  0.6909
   17SAPC   C12 2130   2.461   3.128  10.459  0.1497 -0.1504 -0.3072
   17SAPC  H12A 2131   2.434   3.066  10.374 -1.9322  0.8564 -0.4132
   17SAPC  H12B 2132   2.442   3.230  10.429  3.0165  0.0155 -1.7797
   17SAPC   C13 2133   2.655   3.187  10.605 -0.4602  0.2455 -0.3814
   17SAPC  H13A 2134   2.748   3.147  10.642 -0.0517  1.9357  0.4631
   17SAPC  H13B 2135   2.667   3.293  10.589 -1.0577  0.2711 -0.6677
   17SAPC  H13C 2136   2.580   3.178  10.683  0.7660  0.1973  0.8019
   17SAPC   C14 2137   2.645   2.972  10.501  0.5846 -0.3692  0.4462
   17SAPC  H14A 2138   2.639   2.924  10.405 -1.6735 -2.6238  1.6583
   17SAPC  H14B 2139   2.750   2.956  10.523  1.0682  1.8487 -0.1267
   17SAPC  H14C 2140   2.578   2.915  10.564 -0.6290 -1.5624 -1.8429
   17SAPC   C15 2141   2.687   3.161  10.363 -0.3408 -0.0777 -0.4499
   17SAPC  H15A 2142   2.792   3.144  10.377 -0.1362  0.8043 -0.8558
   17SAPC  H15B 2143   2.636   3.130  10.272 -0.4388  3.2536 -1.6035
   17SAPC  H15C 2144   2.672   3.268  10.363  1.0305  0.1180  0.2111
   17SAPC   C11 2145   2.350   3.095  10.568 -0.2341  0.8606  0.3934
   17SAPC  H11A 2146   2.252   3.131  10.531  0.0079  1.2302  0.1083
   17SAPC  H11B 2147   2.378   3.164  10.650  0.8204  1.7455 -0.6838
   17SAPC     P 2148   2.231   2.869  10.525  0.2886  0.0498 -0.2432
   17SAPC   O13 2149   2.255   2.726  10.535 -0.0503 -0.1976  0.0819
   17SAPC   O14 2150   2.099   2.925  10.572 -0.0740 -0.5153 -0.3155
   17SAPC   O12 2151   2.349   2.949  10.598 -0.5577  0.2779 -0.8555
   17SAPC   O11 2152   2.259   2.914  10.377 -0.2776  0.0604 -0.2095
   17SAPC    C1 2153   2.155   2.974  10.297  0.5056 -0.1236 -0.8677
   17SAPC    HA 2154   2.089   3.037  10.360  3.0421  0.6771  1.0527
   17SAPC    HB 2155   2.214   3.039  10.229  1.2692 -2.0617 -2.1187
   17SAPC    C2 2156   2.084   2.860  10.221 -0.6592 -0.4415 -0.6604
   17SAPC    HS 2157   2.001   2.825  10.286 -0.5350 -1.7596 -1.2003
   17SAPC   O21 2158   2.178   2.758  10.190  0.0666 -0.0542 -0.5096
   17SAPC   C21 2159   2.142   2.631  10.228  0.2474 -0.8900 -0.4880
   17SAPC   O22 2160   2.026   2.600  10.248  0.5827 -0.3603 -0.6303
   17SAPC   C22 2161   2.264   2.539  10.242 -0.1186 -0.5110  0.9260
   17SAPC   H2R 2162   2.321   2.551  10.147  0.2094  0.7263  1.2713
   17SAPC   H2S 2163   2.325   2.577  10.327  2.7724 -0.7397 -0.9653
   17SAPC    C3 2164   2.005   2.921  10.100  0.0394  0.6041  0.0307
   17SAPC    HX 2165   2.079   2.980  10.042  2.1124  0.0148  1.9818
   17SAPC    HY 2166   1.914   2.977  10.132 -0.6485 -0.9636  0.8778
   17SAPC   O31 2167   1.962   2.820  10.006 -0.3133 -0.2792 -0.0192
   17SAPC   C31 2168   1.838   2.777  10.020  0.7671  0.1539  0.6458
   17SAPC   O32 2169   1.761   2.810  10.107  0.1473 -0.2499 -0.3847
   17SAPC   C32 2170   1.810   2.683   9.903 -0.7649 -0.7200  0.0341
   17SAPC   H2X 2171   1.851   2.586   9.938 -2.6799 -1.0566  1.3932
   17SAPC   H2Y 2172   1.867   2.708   9.811 -1.6513 -0.8679 -0.5600
   17SAPC   C23 2173   2.231   2.388  10.258  0.5456 -0.1335 -0.3809
   17SAPC   H3R 2174   2.150   2.381  10.334 -0.0031  0.0503 -0.9438
   17SAPC   H3S 2175   2.326   2.337  10.287 -1.5913 -3.6341  0.7997
   17SAPC   C24 2176   2.179   2.322  10.136 -0.2229  0.0822  0.6585
   17SAPC   H4R 2177   2.081   2.374  10.129 -1.7712 -2.5352  2.0894
   17SAPC   H4S 2178   2.158   2.216  10.164 -2.0759 -0.1817 -1.5677
   17SAPC   C25 2179   2.275   2.329  10.021 -0.1049 -0.7319 -0.2519
   17SAPC   H5R 2180   2.371   2.280  10.040  0.8364  1.4564  0.8942
   17SAPC   C26 2181   2.267   2.394   9.901 -0.4759 -0.4844 -0.1676
   17SAPC   H6R 2182   2.340   2.379   9.820  0.1228  0.2614  0.2241
   17SAPC   C27 2183   2.144   2.467   9.855 -0.0929 -0.1257 -0.2819
   17SAPC   H7R 2184   2.058   2.451   9.922 -0.2330  3.1641  0.4072
   17SAPC   H7S 2185   2.102   2.429   9.759  0.1174  1.0185 -0.8339
   17SAPC   C28 2186   2.166   2.616   9.843  0.4997 -0.0521 -0.4278
   17SAPC   H8R 2187   2.201   2.658   9.938  0.3014  1.5393 -1.0518
   17SAPC   C29 2188   2.146   2.685   9.728  0.0810  0.3138  0.2239
   17SAPC   H9R 2189   2.161   2.794   9.729  1.9169  0.0803  2.6420
   17SAPC  C210 2190   2.101   2.632   9.595  0.3726  0.2546 -0.5168
   17SAPC  H10R 2191   2.063   2.719   9.539 -0.4749  0.2394  0.0115
   17SAPC  H10S 2192   2.014   2.569   9.626 -0.6117  2.4531  1.3786
   17SAPC  C211 2193   2.205   2.548   9.530 -0.4220 -0.1318  0.1120
   17SAPC  H11R 2194   2.235   2.458   9.585 -0.2038 -0.1356 -0.0148
   17SAPC  C212 2195   2.251   2.566   9.404  0.5312  0.4413  0.8753
   17SAPC  H12R 2196   2.329   2.499   9.365  0.6483 -1.3117  3.9064
   17SAPC  C213 2197   2.209   2.675   9.311  0.2135 -0.4420 -0.1949
   17SAPC  H13R 2198   2.287   2.703   9.237 -0.2789  1.5480  0.0248
   17SAPC  H13S 2199   2.189   2.776   9.351 -0.7200 -1.0518  0.9204
   17SAPC  C214 2200   2.073   2.637   9.242  0.4746 -0.0098 -0.6110
   17SAPC  H14R 2201   1.986   2.629   9.308  1.7435 -1.8883  0.9167
   17SAPC  C215 2202   2.052   2.616   9.110  0.3869  0.2801 -0.6100
   17SAPC  H15R 2203   1.953   2.587   9.073  1.3738 -1.4763 -1.9627
   17SAPC  C216 2204   2.159   2.627   8.998  0.0561 -0.0442 -0.2867
   17SAPC  H16R 2205   2.166   2.526   8.953  0.7435 -0.2094  0.1783
   17SAPC  H16S 2206   2.255   2.671   9.033  0.2114 -1.3278  0.9345
   17SAPC  C217 2207   2.109   2.728   8.895  0.0505  1.0761 -0.6771
   17SAPC  H17R 2208   2.112   2.829   8.942 -1.4986  1.4354 -1.3217
   17SAPC  H17S 2209   2.001   2.723   8.871  0.7502 -1.1441 -3.6775
   17SAPC  C218 2210   2.204   2.741   8.779  0.2766  0.3075 -0.1786
   17SAPC  H18R 2211   2.233   2.639   8.745 -1.6524  0.0961 -1.2133
   17SAPC  H18S 2212   2.297   2.794   8.810  0.5987 -1.1500  1.4219
   17SAPC  C219 2213   2.155   2.817   8.656  0.3587  0.6686 -1.0136
   17SAPC  H19R 2214   2.185   2.924   8.667 -1.3993  1.0172  0.6077
   17SAPC  H19S 2215   2.045   2.823   8.652  0.4450  1.7397 -2.0530
   17SAPC  C220 2216   2.211   2.760   8.525 -0.5913  0.2545 -0.0512
   17SAPC  H20R 2217   2.157   2.801   8.438  0.6081  0.3656 -0.7654
   17SAPC  H20S 2218   2.193   2.650   8.523 -0.6700  0.2216  1.5710
   17SAPC  H20T 2219   2.319   2.784   8.512 -0.7401  0.0959 -1.6778
   17SAPC   C33 2220   1.658   2.685   9.873 -0.3970  0.0721 -0.7336
   17SAPC   H3X 2221   1.628   2.790   9.856  2.6734  0.8494 -1.6442
   17SAPC   H3Y 2222   1.601   2.653   9.963 -0.0510  2.1123  0.2422
   17SAPC   C34 2223   1.631   2.600   9.755  0.6671 -0.2728  0.2927
   17SAPC   H4X 2224   1.544   2.534   9.772 -0.1510  0.4364 -1.0485
   17SAPC   H4Y 2225   1.725   2.544   9.733 -0.4478 -2.7568  1.6620
   17SAPC   C35 2226   1.607   2.683   9.637 -0.2339 -0.0231 -0.0873
   17SAPC   H5X 2227   1.704   2.733   9.617 -0.4193  1.7119  3.0918
   17SAPC   H5Y 2228   1.544   2.771   9.663  0.1630 -0.3050  1.8311
   17SAPC   C36 2229   1.562   2.613   9.510  0.2255 -0.5463 -0.0540
   17SAPC   H6X 2230   1.453   2.599   9.525  0.1778  0.5157  0.6074
   17SAPC   H6Y 2231   1.604   2.510   9.507  4.2152  0.9109  2.0357
   17SAPC   C37 2232   1.588   2.686   9.373 -0.4263  1.0394  0.1817
   17SAPC   H7X 2233   1.691   2.670   9.335 -0.5493  0.2901  0.1625
   17SAPC   H7Y 2234   1.571   2.794   9.390  1.3438  1.2745  0.6111
   17SAPC   C38 2235   1.489   2.641   9.262 -0.0400  0.0387  0.0984
   17SAPC   H8X 2236   1.384   2.654   9.297 -0.2394  0.9025 -0.8093
   17SAPC   H8Y 2237   1.495   2.535   9.230  1.9570  0.8134 -2.2624
   17SAPC   C39 2238   1.492   2.733   9.142 -0.2236 -1.0197 -0.3546
   17SAPC   H9X 2239   1.600   2.722   9.121  0.4565  2.3000  1.0452
   17SAPC   H9Y 2240   1.471   2.839   9.171  0.2739 -1.2540  0.8922
   17SAPC  C310 2241   1.404   2.694   9.017  0.6347  0.4222 -0.0016
   17SAPC  H10X 2242   1.359   2.788   8.978 -0.5596  0.4869  1.4709
   17SAPC  H10Y 2243   1.327   2.618   9.041  3.5831 -1.8550  2.7047
   17SAPC  C311 2244   1.492   2.642   8.902  0.2294 -0.1190 -0.2028
   17SAPC  H11X 2245   1.427   2.601   8.822 -0.9544  0.0458  0.6618
   17SAPC  H11Y 2246   1.559   2.557   8.924 -0.7838 -0.4957  1.5042
   17SAPC  C312 2247   1.577   2.747   8.844  0.0012  0.3741  0.2274
   17SAPC  H12X 2248   1.676   2.744   8.895  1.0818 -2.8389 -1.9138
   17SAPC  H12Y 2249   1.527   2.846   8.854 -1.7430 -0.4746  0.0627
   17SAPC  C313 2250   1.611   2.712   8.694 -0.1031  0.6439 -0.7050
   17SAPC  H13X 2251   1.521   2.700   8.630 -0.8544 -1.1023  0.6403
   17SAPC  H13Y 2252   1.660   2.612   8.692  0.7770  1.0301  0.8401
   17SAPC  C314 2253   1.700   2.821   8.643  0.3389  0.0638  0.1744
   17SAPC  H14X 2254   1.788   2.844   8.707  0.9699 -2.3229  0.2334
   17SAPC  H14Y 2255   1.636   2.911   8.638  1.0768  0.4734 -2.8982
   17SAPC  C315 2256   1.753   2.798   8.498  0.8232  0.3215 -0.4633
   17SAPC  H15X 2257   1.668   2.771   8.432  0.2236 -0.9972  0.8314
   17SAPC  H15Y 2258   1.836   2.725   8.497  0.3264 -0.2385 -1.0289
   17SAPC  C316 2259   1.797   2.931   8.446  0.0244  0.3276 -0.5889
   17SAPC  H16X 2260   1.869   2.972   8.520  0.2447  2.2614 -1.8190
   17SAPC  H16Y 2261   1.716   3.006   8.431  0.3055  0.5006 -1.2843
   17SAPC  C317 2262   1.860   2.907   8.304  0.6235 -0.7829  0.3069
   17SAPC  H17X 2263   1.788   2.861   8.234 -1.0794  0.3832  1.2473
   17SAPC  H17Y 2264   1.951   2.844   8.316 -1.2576 -3.7855 -0.6225
   17SAPC  C318 2265   1.918   3.031   8.238  0.0740  0.0671  1.0739
   17SAPC  H18X 2266   1.843   3.112   8.222  0.0749  0.0137  0.7932
   17SAPC  H18Y 2267   2.010   3.073   8.284  0.7115 -0.1559  0.0361
   17SAPC  H18Z 2268   1.954   3.012   8.134 -0.9663  1.1899  0.4871
   18SAPC     N 2269   2.494   1.810  10.885 -0.1979  0.1068  0.3729
   18SAPC   C12 2270   2.504   1.820  10.732 -0.2873 -0.2954 -0.3567
   18SAPC  H12A 2271   2.497   1.717  10.698 -2.0889  0.2200 -1.6242
   18SAPC  H12B 2272   2.602   1.858  10.708  2.0262 -2.6356  4.5635
   18SAPC   C13 2273   2.391   1.712  10.935  0.2166 -0.2949 -0.2204
   18SAPC  H13A 2274   2.377   1.716  11.042 -2.3355  1.2680 -0.5712
   18SAPC  H13B 2275   2.292   1.739  10.902 -0.1277  1.7748  2.3234
   18SAPC  H13C 2276   2.415   1.610  10.907  1.1654 -0.8801  2.6198
   18SAPC   C14 2277   2.638   1.772  10.936  0.0446  1.0295  0.1925
   18SAPC  H14A 2278   2.707   1.828  10.875  1.1909 -0.2199  0.3328
   18SAPC  H14B 2279   2.646   1.800  11.039 -2.8657 -0.5228  0.8978
   18SAPC  H14C 2280   2.664   1.671  10.910 -0.2566  1.2394 -0.9742
   18SAPC   C15 2281   2.462   1.944  10.946  0.2512  0.3659 -0.2270
   18SAPC  H15A 2282   2.379   1.996  10.901 -1.1930 -1.0532  0.7257
   18SAPC  H15B 2283   2.452   1.925  11.052  2.4043 -0.2288 -0.0921
   18SAPC  H15C 2284   2.547   2.010  10.936 -0.5645  1.5882  0.7631
   18SAPC   C11 2285   2.402   1.900  10.656  0.5249  0.5978 -0.4046
   18SAPC  H11A 2286   2.306   1.885  10.709  1.8075 -2.2333  1.2052
   18SAPC  H11B 2287   2.383   1.861  10.554  0.1132  0.0062 -0.1005
   18SAPC     P 2288   2.565   2.087  10.581 -0.1597  0.1636 -0.1523
   18SAPC   O13 2289   2.552   2.233  10.574 -0.2919 -0.4878  0.5912
   18SAPC   O14 2290   2.680   2.033  10.660 -0.0906 -0.6322  0.3203
   18SAPC   O12 2291   2.443   2.032  10.660  0.0880 -0.0146 -0.2205
   18SAPC   O11 2292   2.553   2.020  10.438 -0.4943 -0.5690 -0.1318
   18SAPC    C1 2293   2.644   2.067  10.330 -0.8340 -0.3030 -0.8492
   18SAPC    HA 2294   2.609   2.159  10.279  3.2375  1.1739 -1.2159
   18SAPC    HB 2295   2.740   2.103  10.372 -0.9678 -0.2031 -0.6316
   18SAPC    C2 2296   2.684   1.953  10.229  0.3716  0.1573 -0.8241
   18SAPC    HS 2297   2.779   1.972  10.174  1.0780 -0.5329  0.1310
   18SAPC   O21 2298   2.584   1.944  10.126  0.1421 -0.0122 -0.6532
   18SAPC   C21 2299   2.624   1.911  10.001  0.5058 -0.2059  0.2754
   18SAPC   O22 2300   2.738   1.873   9.973  0.0450 -0.8462  0.4231
   18SAPC   C22 2301   2.501   1.935   9.916 -0.0013  0.9397 -0.3435
   18SAPC   H2R 2302   2.422   1.876   9.968  0.7496  1.6386  1.6294
   18SAPC   H2S 2303   2.480   2.043   9.924  1.1245  0.9758  2.7162
   18SAPC    C3 2304   2.701   1.824  10.309 -0.5770  0.8700 -0.4536
   18SAPC    HX 2305   2.617   1.798  10.376  0.5506  0.3045  0.7823
   18SAPC    HY 2306   2.780   1.857  10.381  0.5743 -1.0861 -0.7957
   18SAPC   O31 2307   2.750   1.708  10.236  0.0900  0.0858  0.1314
   18SAPC   C31 2308   2.666   1.613  10.198  0.7861 -0.3772 -0.4475
   18SAPC   O32 2309   2.546   1.618  10.204  0.8781 -0.1080  0.1245
   18SAPC   C32 2310   2.738   1.500  10.125  0.3079 -0.7141 -0.1140
   18SAPC   H2X 2311   2.773   1.439  10.212  1.3389 -0.1721 -0.1421
   18SAPC   H2Y 2312   2.826   1.549  10.078 -3.2670  3.3109 -2.9942
   18SAPC   C23 2313   2.512   1.888   9.772  0.3788 -0.0995  0.3245
   18SAPC   H3R 2314   2.557   1.786   9.771  2.9866  0.9670 -2.9508
   18SAPC   H3S 2315   2.582   1.948   9.709  1.9403 -2.9057 -0.7310
   18SAPC   C24 2316   2.375   1.885   9.691 -0.3482  0.2550  0.2951
   18SAPC   H4R 2317   2.334   1.787   9.725 -2.0108  0.7939 -0.1484
   18SAPC   H4S 2318   2.403   1.863   9.586 -2.8593  0.9997 -0.5658
   18SAPC   C25 2319   2.284   2.000   9.713  0.2877 -0.8446 -0.0759
   18SAPC   H5R 2320   2.233   2.019   9.809  0.6235  0.7590 -0.2024
   18SAPC   C26 2321   2.253   2.085   9.609  0.2441 -0.3054 -0.3390
   18SAPC   H6R 2322   2.185   2.169   9.629  1.8305  0.7491  0.7203
   18SAPC   C27 2323   2.296   2.082   9.468  0.2779 -0.0652  0.1924
   18SAPC   H7R 2324   2.210   2.101   9.401 -1.1116 -2.3107  1.3216
   18SAPC   H7S 2325   2.330   1.980   9.440  1.0102  0.6251 -1.5208
   18SAPC   C28 2326   2.424   2.166   9.444  0.3088  0.0456 -0.4632
   18SAPC   H8R 2327   2.497   2.150   9.524 -0.8812  2.6892  1.2174
   18SAPC   C29 2328   2.440   2.253   9.341 -0.5773  0.5314 -0.3833
   18SAPC   H9R 2329   2.536   2.304   9.327 -0.6133  0.8238  0.3774
   18SAPC  C210 2330   2.328   2.265   9.238  0.1842 -0.4764  0.5170
   18SAPC  H10R 2331   2.240   2.309   9.290 -0.3972 -0.6802 -0.2859
   18SAPC  H10S 2332   2.300   2.161   9.211 -0.0562 -1.1141  3.0677
   18SAPC  C211 2333   2.356   2.346   9.114  0.8863  0.7619  0.5605
   18SAPC  H11R 2334   2.282   2.425   9.091  2.0498  1.7722  0.2808
   18SAPC  C212 2335   2.446   2.325   9.019 -0.2513  0.0260  0.2549
   18SAPC  H12R 2336   2.443   2.398   8.937 -0.2588 -0.1811  0.0680
   18SAPC  C213 2337   2.553   2.213   9.014  0.5716 -0.2018 -0.2035
   18SAPC  H13R 2338   2.535   2.147   8.926 -0.2815 -0.5216  0.2096
   18SAPC  H13S 2339   2.554   2.163   9.113  1.0795  1.5701  0.7139
   18SAPC  C214 2340   2.689   2.264   8.988 -0.6073 -0.4151 -0.2157
   18SAPC  H14R 2341   2.714   2.360   9.035 -0.7898 -0.6960  0.4524
   18SAPC  C215 2342   2.782   2.201   8.920 -0.0345 -0.0424  0.0120
   18SAPC  H15R 2343   2.879   2.253   8.914 -1.5600  2.7610 -1.5559
   18SAPC  C216 2344   2.785   2.069   8.850 -0.0163  0.1186 -1.1594
   18SAPC  H16R 2345   2.783   2.068   8.739  3.2960  2.6723 -1.3197
   18SAPC  H16S 2346   2.693   2.009   8.867  1.9457 -2.5559  0.3285
   18SAPC  C217 2347   2.900   1.977   8.906 -0.6432 -1.0248 -0.3277
   18SAPC  H17R 2348   2.877   1.959   9.013  0.2333 -1.9629 -0.2850
   18SAPC  H17S 2349   2.990   2.042   8.915 -2.3147  1.1920  0.7503
   18SAPC  C218 2350   2.934   1.850   8.832  0.5630 -0.5042 -0.5559
   18SAPC  H18R 2351   3.043   1.840   8.847  0.4770  0.3721  0.7605
   18SAPC  H18S 2352   2.904   1.876   8.728 -1.4092  0.1403  0.1510
   18SAPC  C219 2353   2.858   1.724   8.876 -0.5141  0.5576 -1.1399
   18SAPC  H19R 2354   2.856   1.735   8.987 -0.7990  1.9885 -1.2675
   18SAPC  H19S 2355   2.921   1.637   8.849 -1.0414 -1.1237  2.6874
   18SAPC  C220 2356   2.716   1.706   8.827  0.2043  0.1064  0.5545
   18SAPC  H20R 2357   2.679   1.613   8.875  1.4616 -0.3694  0.6368
   18SAPC  H20S 2358   2.707   1.683   8.719  0.8235 -1.9088  0.9093
   18SAPC  H20T 2359   2.654   1.793   8.857  1.5522  1.5421 -0.6889
   18SAPC   C33 2360   2.641   1.430  10.032 -0.3131  0.0905 -0.0672
   18SAPC   H3X 2361   2.544   1.400  10.077 -1.0252 -1.6043 -2.5698
   18SAPC   H3Y 2362   2.681   1.332   9.998  0.3539  0.1109  0.6548
   18SAPC   C34 2363   2.600   1.518   9.913 -0.0515  0.2060  0.8628
   18SAPC   H4X 2364   2.695   1.559   9.872 -1.3331 -1.1049 -3.6365
   18SAPC   H4Y 2365   2.528   1.591   9.957 -0.5937 -0.8881  1.8027
   18SAPC   C35 2366   2.520   1.442   9.802 -0.0442 -0.3593 -0.0470
   18SAPC   H5X 2367   2.586   1.379   9.739 -2.6191 -2.0909 -1.0740
   18SAPC   H5Y 2368   2.482   1.516   9.729 -0.9124  0.7348  1.4875
   18SAPC   C36 2369   2.408   1.351   9.847 -0.0340 -0.3660 -0.0510
   18SAPC   H6X 2370   2.332   1.409   9.905  0.3057 -0.8143  0.8511
   18SAPC   H6Y 2371   2.452   1.280   9.920 -1.6020 -0.4214  0.8688
   18SAPC   C37 2372   2.347   1.267   9.732 -0.1306 -0.2062 -0.5110
   18SAPC   H7X 2373   2.287   1.190   9.784  1.9077 -0.9942  0.7253
   18SAPC   H7Y 2374   2.430   1.216   9.677 -1.6942 -1.7088 -1.5232
   18SAPC   C38 2375   2.260   1.349   9.648  0.3083  0.0610  0.1558
   18SAPC   H8X 2376   2.320   1.431   9.604  1.0358 -0.9430 -0.7309
   18SAPC   H8Y 2377   2.174   1.396   9.702  1.1590  1.3423  0.4280
   18SAPC   C39 2378   2.214   1.275   9.520  0.0213 -0.9216 -0.2447
   18SAPC   H9X 2379   2.155   1.182   9.535  1.1190 -1.7306 -0.8821
   18SAPC   H9Y 2380   2.303   1.247   9.459  0.6447  0.4393  0.0380
   18SAPC  C310 2381   2.122   1.360   9.417 -0.4178  0.4746 -0.9620
   18SAPC  H10X 2382   2.176   1.451   9.382  1.2463 -0.6361 -1.3122
   18SAPC  H10Y 2383   2.036   1.395   9.479 -0.6853  0.8721 -1.5514
   18SAPC  C311 2384   2.072   1.281   9.301  0.0546 -0.0631 -0.8281
   18SAPC  H11X 2385   2.062   1.175   9.335 -0.3302 -0.4494 -2.0982
   18SAPC  H11Y 2386   2.144   1.286   9.216  1.0489  2.0252  0.1176
   18SAPC  C312 2387   1.925   1.325   9.271  0.4040  0.3452  0.2587
   18SAPC  H12X 2388   1.929   1.426   9.225  2.5484 -0.9567 -2.6260
   18SAPC  H12Y 2389   1.861   1.314   9.361 -1.1752 -1.8977 -1.0851
   18SAPC  C313 2390   1.855   1.232   9.163 -0.2544 -0.5803 -0.5783
   18SAPC  H13X 2391   1.826   1.130   9.196  0.6266 -1.0980 -1.3882
   18SAPC  H13Y 2392   1.927   1.229   9.078 -0.0209  0.7244 -0.4482
   18SAPC  C314 2393   1.714   1.284   9.119  0.3408 -0.1845  0.8176
   18SAPC  H14X 2394   1.657   1.208   9.060 -1.1594  0.1853  1.7735
   18SAPC  H14Y 2395   1.721   1.368   9.046  2.1246  1.0901  2.4279
   18SAPC  C315 2396   1.623   1.339   9.234 -0.3388 -0.3835  0.1666
   18SAPC  H15X 2397   1.522   1.375   9.206 -0.6728 -0.9378  0.6325
   18SAPC  H15Y 2398   1.666   1.425   9.290  0.0549  0.0238 -0.7494
   18SAPC  C316 2399   1.596   1.226   9.333  0.5504 -0.1552  0.0942
   18SAPC  H16X 2400   1.694   1.192   9.372  1.2015  2.0747  0.4707
   18SAPC  H16Y 2401   1.555   1.142   9.274  0.3034 -0.4601  0.7086
   18SAPC  C317 2402   1.489   1.251   9.443 -0.1565 -0.4424 -0.3048
   18SAPC  H17X 2403   1.514   1.333   9.514 -0.7860 -0.7858  0.3127
   18SAPC  H17Y 2404   1.488   1.158   9.504  0.8592 -2.2343 -2.9264
   18SAPC  C318 2405   1.346   1.277   9.388  0.4365 -0.1557 -1.1141
   18SAPC  H18X 2406   1.274   1.221   9.451  2.1049 -0.4955  0.5319
   18SAPC  H18Y 2407   1.345   1.261   9.278  2.8149  2.3416 -1.5549
   18SAPC  H18Z 2408   1.321   1.384   9.405  0.2737 -0.2635 -0.6520
   19SAPC     N 2409   1.006   3.502  10.785  0.1528  0.8338  0.4132
   19SAPC   C12 2410   0.994   3.514  10.639  0.2244 -0.6993  0.6779
   19SAPC  H12A 2411   0.902   3.467  10.608  0.1749  0.7718 -1.4899
   19SAPC  H12B 2412   1.069   3.452  10.594  0.0491 -0.8203  0.5485
   19SAPC   C13 2413   0.884   3.552  10.855 -0.0633  0.0540  0.0308
   19SAPC  H13A 2414   0.809   3.476  10.838 -1.2489  1.3735 -0.7122
   19SAPC  H13B 2415   0.911   3.576  10.957  0.5686 -1.7357  0.3017
   19SAPC  H13C 2416   0.850   3.641  10.804  2.4177  2.7325  2.8205
   19SAPC   C14 2417   1.022   3.353  10.824  0.0495 -0.4166  0.2583
   19SAPC  H14A 2418   1.038   3.347  10.931 -0.9411  1.7317  0.5631
   19SAPC  H14B 2419   0.945   3.283  10.794  0.4596 -0.8501  0.2138
   19SAPC  H14C 2420   1.112   3.314  10.779 -0.9174 -1.0951 -1.1099
   19SAPC   C15 2421   1.129   3.575  10.825  0.2717 -0.1514 -0.7183
   19SAPC  H15A 2422   1.219   3.536  10.779  0.4880 -2.5354  1.6278
   19SAPC  H15B 2423   1.108   3.676  10.792 -2.1165 -0.0685  0.9106
   19SAPC  H15C 2424   1.132   3.571  10.933  0.0480  3.0680 -0.5463
   19SAPC   C11 2425   1.006   3.654  10.568  0.7318  0.0583  0.1815
   19SAPC  H11A 2426   0.921   3.710  10.612 -1.7827 -3.7948  0.4572
   19SAPC  H11B 2427   0.982   3.633  10.462  1.3682 -2.2276  0.4556
   19SAPC     P 2428   1.254   3.693  10.493 -0.2133  0.2659 -0.0444
   19SAPC   O13 2429   1.369   3.750  10.565  0.2645 -0.1713 -0.6052
   19SAPC   O14 2430   1.257   3.550  10.463 -0.4986 -0.2541 -0.3382
   19SAPC   O12 2431   1.131   3.725  10.590 -0.6590  0.7447  0.3210
   19SAPC   O11 2432   1.222   3.776  10.364  0.2368  0.3783  0.6145
   19SAPC    C1 2433   1.171   3.908  10.379 -0.4075  0.4171  0.3171
   19SAPC    HA 2434   1.071   3.908  10.426  0.6839 -1.6482  2.8076
   19SAPC    HB 2435   1.238   3.970  10.443 -2.0962  1.6884  0.8629
   19SAPC    C2 2436   1.162   3.977  10.234 -0.2607 -0.4025 -0.1391
   19SAPC    HS 2437   1.077   4.048  10.248 -1.2261 -1.7807  1.1993
   19SAPC   O21 2438   1.139   3.882  10.128 -0.0857  0.3762  0.5900
   19SAPC   C21 2439   1.018   3.826  10.137 -0.3522 -0.1627  0.2239
   19SAPC   O22 2440   0.937   3.836  10.231  0.0918 -0.1291  0.1623
   19SAPC   C22 2441   0.987   3.740  10.012 -0.1155  0.4994  0.0882
   19SAPC   H2R 2442   1.090   3.709   9.982  0.5712  1.9343  0.9381
   19SAPC   H2S 2443   0.918   3.658  10.042 -1.8854  1.7374 -0.5117
   19SAPC    C3 2444   1.284   4.065  10.197  0.8108 -0.0971 -0.3841
   19SAPC    HX 2445   1.378   4.011  10.217  1.6891  1.2287 -0.8880
   19SAPC    HY 2446   1.279   4.154  10.263 -4.0719 -1.0199  0.7108
   19SAPC   O31 2447   1.273   4.111  10.060  0.7624  0.5296 -0.1395
   19SAPC   C31 2448   1.334   4.041   9.962  0.1554 -0.6116 -0.2426
   19SAPC   O32 2449   1.402   3.941   9.985 -0.0669  0.3489  0.4436
   19SAPC   C32 2450   1.323   4.116   9.829  0.2005  0.3443  0.3668
   19SAPC   H2X 2451   1.346   4.224   9.837  1.5819  0.2777 -2.1398
   19SAPC   H2Y 2452   1.215   4.106   9.804 -0.1233  0.0703  1.8142
   19SAPC   C23 2453   0.925   3.825   9.905 -0.7492  0.0671 -0.8977
   19SAPC   H3R 2454   0.823   3.861   9.930  0.1893  1.5130  0.9537
   19SAPC   H3S 2455   0.904   3.758   9.819 -1.3172  1.4761 -1.8758
   19SAPC   C24 2456   0.997   3.948   9.863 -0.1191 -0.0727 -0.6280
   19SAPC   H4R 2457   1.096   3.925   9.818 -0.6684  0.3605 -2.0852
   19SAPC   H4S 2458   1.016   4.004   9.958  0.7363  2.7344 -2.3968
   19SAPC   C25 2459   0.920   4.033   9.769  0.3915 -0.5310  0.4571
   19SAPC   H5R 2460   0.854   4.109   9.813  0.9477  0.4022 -0.3102
   19SAPC   C26 2461   0.912   4.015   9.633  0.1560  0.0499  0.6395
   19SAPC   H6R 2462   0.839   4.078   9.581 -0.8414 -0.3140  1.5653
   19SAPC   C27 2463   0.996   3.917   9.549  0.3242  0.4509  0.0589
   19SAPC   H7R 2464   1.081   3.888   9.614  0.2502 -1.7889 -0.7897
   19SAPC   H7S 2465   1.032   3.960   9.454 -2.6087  1.4859 -0.6455
   19SAPC   C28 2466   0.929   3.783   9.542 -0.1103 -0.1359  0.1058
   19SAPC   H8R 2467   0.917   3.726   9.636  2.9020  1.5088  1.5420
   19SAPC   C29 2468   0.885   3.725   9.429  0.7473 -0.1962 -0.6250
   19SAPC   H9R 2469   0.838   3.626   9.423 -2.7734  1.5243 -3.1111
   19SAPC  C210 2470   0.889   3.794   9.289 -0.0650  0.1304 -0.3808
   19SAPC  H10R 2471   0.996   3.792   9.262  0.1679  1.1132  0.4677
   19SAPC  H10S 2472   0.857   3.900   9.300 -0.4539 -0.1964  1.7599
   19SAPC  C211 2473   0.804   3.730   9.177  0.0439  0.7460 -0.0966
   19SAPC  H11R 2474   0.732   3.656   9.213 -0.2059  1.3644  0.7082
   19SAPC  C212 2475   0.820   3.757   9.044  0.2286  0.2218  0.6271
   19SAPC  H12R 2476   0.770   3.690   8.972 -2.7217 -0.4270  3.1964
   19SAPC  C213 2477   0.913   3.864   8.987 -0.3310  0.5330 -0.0080
   19SAPC  H13R 2478   0.952   3.829   8.888  0.3252 -1.0199  0.7864
   19SAPC  H13S 2479   1.007   3.856   9.046 -1.3863 -3.6937  1.2723
   19SAPC  C214 2480   0.871   4.013   8.976  0.2024 -0.0270 -0.1757
   19SAPC  H14R 2481   0.888   4.089   9.054  2.6037  0.7774 -1.4445
   19SAPC  C215 2482   0.802   4.069   8.870  0.3103  0.5934  0.1504
   19SAPC  H15R 2483   0.779   4.176   8.883  0.0640  0.5313  0.2417
   19SAPC  C216 2484   0.768   3.988   8.743 -0.2122  0.0997  0.4278
   19SAPC  H16R 2485   0.862   3.941   8.707 -0.8860 -1.6250  0.8428
   19SAPC  H16S 2486   0.721   4.061   8.673  0.9345 -1.4432 -2.0104
   19SAPC  C217 2487   0.660   3.876   8.758  0.3619 -0.8219  0.1453
   19SAPC  H17R 2488   0.572   3.916   8.814  1.3112 -1.5746  2.2124
   19SAPC  H17S 2489   0.699   3.791   8.818 -2.9349 -0.5296  2.8676
   19SAPC  C218 2490   0.609   3.822   8.618 -0.3673  0.1598  0.3148
   19SAPC  H18R 2491   0.644   3.890   8.538 -1.8376  1.7392  0.9968
   19SAPC  H18S 2492   0.498   3.817   8.613 -0.3511 -1.2741  0.9281
   19SAPC  C219 2493   0.671   3.686   8.581 -0.6555  0.2932  0.1339
   19SAPC  H19R 2494   0.780   3.705   8.567 -0.7802  0.1629 -1.0017
   19SAPC  H19S 2495   0.625   3.661   8.484  0.7191 -0.9976 -0.2025
   19SAPC  C220 2496   0.631   3.571   8.673  0.0740 -0.1798 -0.4333
   19SAPC  H20R 2497   0.655   3.469   8.636 -0.5584 -0.1454 -0.9509
   19SAPC  H20S 2498   0.521   3.575   8.688  0.2426  2.0972  0.3608
   19SAPC  H20T 2499   0.687   3.580   8.769 -1.2569 -1.1506  0.4465
   19SAPC   C33 2500   1.416   4.052   9.726 -0.2590  0.5842  0.6909
   19SAPC   H3X 2501   1.366   3.957   9.701 -2.4634  1.1971  2.6008
   19SAPC   H3Y 2502   1.513   4.027   9.774  0.4011  1.8353  0.0392
   19SAPC   C34 2503   1.442   4.142   9.601 -1.0100  0.6774  0.0726
   19SAPC   H4X 2504   1.511   4.089   9.532 -0.9928  0.8373 -0.0330
   19SAPC   H4Y 2505   1.500   4.230   9.635 -0.6943 -0.7758  3.5548
   19SAPC   C35 2506   1.322   4.186   9.523  0.1043  0.0573 -0.4181
   19SAPC   H5X 2507   1.292   4.286   9.561  1.6839  0.9634 -1.4709
   19SAPC   H5Y 2508   1.245   4.112   9.554 -0.9602  0.7628 -1.3320
   19SAPC   C36 2509   1.332   4.179   9.368  0.1929 -0.1170 -0.8029
   19SAPC   H6X 2510   1.415   4.246   9.335 -0.1036  0.3686 -0.5738
   19SAPC   H6Y 2511   1.240   4.230   9.333 -1.6472 -1.6700  1.6531
   19SAPC   C37 2512   1.335   4.042   9.301 -0.6618  0.5492  0.0727
   19SAPC   H7X 2513   1.248   3.979   9.327  0.6538 -0.6105  1.8196
   19SAPC   H7Y 2514   1.428   3.999   9.346  1.1024  0.7049 -3.2793
   19SAPC   C38 2515   1.355   4.041   9.146  0.2426  0.6681 -0.2890
   19SAPC   H8X 2516   1.373   3.936   9.117  0.4954  0.0330  2.0434
   19SAPC   H8Y 2517   1.439   4.101   9.104  2.1153 -2.2738 -0.8975
   19SAPC   C39 2518   1.232   4.085   9.068  0.2525 -0.3187 -0.5076
   19SAPC   H9X 2519   1.203   4.190   9.088 -2.4524 -1.2383  0.7065
   19SAPC   H9Y 2520   1.146   4.018   9.091 -0.5169  0.7268 -0.3040
   19SAPC  C310 2521   1.232   4.081   8.914  0.2088 -0.4381 -0.4030
   19SAPC  H10X 2522   1.128   4.091   8.876  0.5430 -1.9647 -1.7930
   19SAPC  H10Y 2523   1.275   3.983   8.884  1.7256  0.0657  0.0900
   19SAPC  C311 2524   1.310   4.188   8.843  0.1629 -0.0328 -0.3803
   19SAPC  H11X 2525   1.417   4.169   8.865  0.2427  0.8781  0.0200
   19SAPC  H11Y 2526   1.280   4.286   8.884  0.4536  0.3906 -1.1738
   19SAPC  C312 2527   1.285   4.191   8.691  0.0306 -0.5006 -0.7154
   19SAPC  H12X 2528   1.303   4.091   8.648  2.1979 -0.7008  0.5961
   19SAPC  H12Y 2529   1.363   4.260   8.652  1.8957 -2.0694  0.1709
   19SAPC  C313 2530   1.144   4.247   8.642 -0.5339 -0.3700 -0.5812
   19SAPC  H13X 2531   1.117   4.339   8.697  0.0109 -1.5738  1.7944
   19SAPC  H13Y 2532   1.080   4.166   8.684  0.8296 -0.0805  2.1840
   19SAPC  C314 2533   1.142   4.267   8.490 -0.1269  0.2840  0.1612
   19SAPC  H14X 2534   1.032   4.283   8.478  0.1635  2.8937  0.5133
   19SAPC  H14Y 2535   1.184   4.183   8.432  0.4207  1.6132 -1.4289
   19SAPC  C315 2536   1.193   4.402   8.444  0.0400 -0.5778 -0.4881
   19SAPC  H15X 2537   1.296   4.418   8.480 -0.0624  1.3662 -1.0283
   19SAPC  H15Y 2538   1.134   4.484   8.489  0.0408 -0.7832 -0.1149
   19SAPC  C316 2539   1.191   4.422   8.293 -0.7559 -0.0177  0.0059
   19SAPC  H16X 2540   1.084   4.420   8.262 -0.4078 -1.4183 -1.1697
   19SAPC  H16Y 2541   1.244   4.335   8.248 -1.6699 -0.4052 -0.3425
   19SAPC  C317 2542   1.256   4.549   8.260 -0.9999 -0.5211  0.7037
   19SAPC  H17X 2543   1.355   4.562   8.308 -0.5057  1.2027 -0.7556
   19SAPC  H17Y 2544   1.195   4.635   8.294 -0.2649 -0.2463  1.3382
   19SAPC  C318 2545   1.269   4.563   8.107  0.3416 -0.2452  0.6376
   19SAPC  H18X 2546   1.359   4.515   8.063 -1.1230 -0.5377 -2.1234
   19SAPC  H18Y 2547   1.276   4.671   8.082 -1.1807  0.2948  2.4125
   19SAPC  H18Z 2548   1.175   4.529   8.059  0.6325 -2.1117  1.3692
   20SAPC     N 2549   1.942   0.724  11.062 -0.2184  0.0222  0.1907
   20SAPC   C12 2550   1.897   0.653  11.188  0.4144 -0.1333 -0.3037
   20SAPC  H12A 2551   1.823   0.719  11.232 -1.7571 -2.4912 -0.2930
   20SAPC  H12B 2552   1.983   0.658  11.252  0.5854 -1.1788 -0.4473
   20SAPC   C13 2553   2.022   0.846  11.088 -0.1071  0.0135 -0.0236
   20SAPC  H13A 2554   1.974   0.919  11.152 -4.0008 -0.9531 -1.7113
   20SAPC  H13B 2555   2.119   0.825  11.133 -0.1682  1.9046  1.0826
   20SAPC  H13C 2556   2.047   0.901  10.998  2.5391  0.5577  0.9829
   20SAPC   C14 2557   2.018   0.633  10.979 -0.0722 -0.7957  0.3248
   20SAPC  H14A 2558   2.031   0.666  10.877  0.9049 -1.7786  0.1148
   20SAPC  H14B 2559   2.115   0.615  11.022  0.7804  1.7315 -0.4643
   20SAPC  H14C 2560   1.966   0.538  10.973 -0.7770 -0.2890 -2.4903
   20SAPC   C15 2561   1.820   0.769  10.979 -0.2504 -0.3581  0.2320
   20SAPC  H15A 2562   1.778   0.858  11.023 -0.8607 -1.7330  2.5622
   20SAPC  H15B 2563   1.845   0.791  10.876  1.2754 -0.0320  0.6615
   20SAPC  H15C 2564   1.753   0.685  10.970 -0.0620 -0.7501  2.2416
   20SAPC   C11 2565   1.847   0.512  11.173  0.3086 -0.6365  0.4326
   20SAPC  H11A 2566   1.822   0.476  11.274 -0.9639  1.3097  0.8365
   20SAPC  H11B 2567   1.928   0.444  11.139  1.0887 -0.1646  1.3169
   20SAPC     P 2568   1.647   0.377  11.079 -0.0778 -0.1011 -0.5674
   20SAPC   O13 2569   1.729   0.271  11.135 -0.2248  0.0031  0.7093
   20SAPC   O14 2570   1.521   0.401  11.152  0.0766 -0.0829 -0.2158
   20SAPC   O12 2571   1.736   0.508  11.082 -0.3548  0.2354 -0.5168
   20SAPC   O11 2572   1.622   0.347  10.932 -0.1955 -0.1512 -0.0587
   20SAPC    C1 2573   1.723   0.325  10.833  0.1535  0.1494 -0.6005
   20SAPC    HA 2574   1.785   0.416  10.820 -0.7462  0.3803 -3.7240
   20SAPC    HB 2575   1.793   0.246  10.868  3.1712  2.1173 -2.0369
   20SAPC    C2 2576   1.661   0.278  10.700 -0.3902  1.2730 -0.0794
   20SAPC    HS 2577   1.743   0.260  10.627 -1.3369  1.1808 -1.1214
   20SAPC   O21 2578   1.566   0.371  10.645  0.6337 -0.4736 -0.1107
   20SAPC   C21 2579   1.627   0.489  10.615  0.0506  0.3879 -1.0170
   20SAPC   O22 2580   1.744   0.498  10.587 -0.4084 -0.2065  0.1087
   20SAPC   C22 2581   1.520   0.605  10.628 -0.1466  0.1611 -0.1135
   20SAPC   H2R 2582   1.460   0.582  10.719 -1.0006 -0.3711 -0.8057
   20SAPC   H2S 2583   1.584   0.695  10.643 -1.3583  1.1490 -0.7789
   20SAPC    C3 2584   1.591   0.139  10.717  0.4175 -0.3311 -0.5019
   20SAPC    HX 2585   1.494   0.162  10.767  0.4984 -0.4064 -0.3114
   20SAPC    HY 2586   1.642   0.067  10.784  0.7398 -0.7460 -1.1870
   20SAPC   O31 2587   1.560   0.073  10.595  0.5852  0.6694  0.4340
   20SAPC   C31 2588   1.657   0.017  10.535 -0.0274 -0.6169  0.0126
   20SAPC   O32 2589   1.772  -0.001  10.578  0.1354 -1.0263  0.3120
   20SAPC   C32 2590   1.609  -0.018  10.401 -0.0204  0.2979 -0.4340
   20SAPC   H2X 2591   1.596   0.070  10.333  1.2163  1.9421  1.4072
   20SAPC   H2Y 2592   1.524  -0.089  10.412  0.9584 -0.7194  0.6259
   20SAPC   C23 2593   1.439   0.608  10.500 -0.5105 -0.4864 -0.1392
   20SAPC   H3R 2594   1.388   0.509  10.498  1.4340 -1.5211 -0.9049
   20SAPC   H3S 2595   1.499   0.615  10.407  1.6785  0.5325  1.3173
   20SAPC   C24 2596   1.335   0.719  10.506  0.5087  0.1907  0.2683
   20SAPC   H4R 2597   1.281   0.700  10.601  0.8554 -2.5330 -0.0564
   20SAPC   H4S 2598   1.266   0.694  10.423 -0.6059  1.2324  0.8662
   20SAPC   C25 2599   1.387   0.857  10.513  0.2675  0.0605 -0.3862
   20SAPC   H5R 2600   1.436   0.882  10.608 -1.7407  1.1511  0.3894
   20SAPC   C26 2601   1.357   0.958  10.434 -0.1733 -0.3895  0.1073
   20SAPC   H6R 2602   1.379   1.064  10.455  0.5449 -1.1528  3.5054
   20SAPC   C27 2603   1.283   0.945  10.308 -0.7435 -0.1792 -0.4255
   20SAPC   H7R 2604   1.342   0.875  10.246  1.4545  0.7594  0.5733
   20SAPC   H7S 2605   1.296   1.039  10.249  0.7446 -0.5931 -0.7773
   20SAPC   C28 2606   1.131   0.928  10.322  0.0136 -0.0949 -0.7331
   20SAPC   H8R 2607   1.102   0.894  10.423  1.1134  0.7179 -0.1320
   20SAPC   C29 2608   1.046   0.950  10.223 -0.6441 -0.2894 -0.1144
   20SAPC   H9R 2609   0.941   0.929  10.249 -1.2642  1.1282 -1.4302
   20SAPC  C210 2610   1.071   0.990  10.079 -0.2034 -0.4426 -0.3272
   20SAPC  H10R 2611   1.172   1.034  10.063 -0.6086  0.4496 -0.4625
   20SAPC  H10S 2612   1.000   1.076  10.070  0.8146  0.4908  0.4518
   20SAPC  C211 2613   1.039   0.866   9.987 -0.2055 -0.7004 -0.3314
   20SAPC  H11R 2614   1.038   0.763  10.024 -1.4217 -0.4489  0.3407
   20SAPC  C212 2615   1.014   0.884   9.852 -0.1330  0.4435 -0.3006
   20SAPC  H12R 2616   1.009   0.800   9.781  0.0627  0.9987 -0.9789
   20SAPC  C213 2617   1.010   1.019   9.787 -0.0083  0.4861 -0.2042
   20SAPC  H13R 2618   1.078   1.015   9.699  0.5674 -2.4782  0.3127
   20SAPC  H13S 2619   1.045   1.104   9.849  1.4342 -0.8162  0.8297
   20SAPC  C214 2620   0.877   1.042   9.723  0.6035 -0.7084  0.8737
   20SAPC  H14R 2621   0.860   0.990   9.627  0.2666  0.3968  0.3181
   20SAPC  C215 2622   0.790   1.137   9.757  0.0284 -0.0219 -0.2189
   20SAPC  H15R 2623   0.696   1.148   9.699 -0.1301 -0.9661 -0.1589
   20SAPC  C216 2624   0.812   1.237   9.869 -0.2767 -0.6299 -0.7115
   20SAPC  H16R 2625   0.890   1.312   9.842 -1.6273  1.7045  1.6669
   20SAPC  H16S 2626   0.838   1.183   9.963  3.5069  2.9435  0.4500
   20SAPC  C217 2627   0.685   1.322   9.912 -0.3311 -0.4687 -0.7681
   20SAPC  H17R 2628   0.637   1.375   9.827  0.7902 -1.1543 -1.8376
   20SAPC  H17S 2629   0.717   1.392   9.992  1.5102 -1.0266 -0.9960
   20SAPC  C218 2630   0.569   1.237   9.965  0.7544 -0.4973  0.0254
   20SAPC  H18R 2631   0.619   1.156  10.023  0.6852 -1.7487 -1.6275
   20SAPC  H18S 2632   0.532   1.186   9.874  1.5490  0.8781 -1.0842
   20SAPC  C219 2633   0.463   1.307  10.051 -0.7280  0.3962  0.0941
   20SAPC  H19R 2634   0.387   1.239  10.093 -0.0372 -1.4765 -1.6290
   20SAPC  H19S 2635   0.416   1.377   9.978 -0.8088 -0.5997 -0.8121
   20SAPC  C220 2636   0.514   1.398  10.171 -0.1467 -0.5991  0.0098
   20SAPC  H20R 2637   0.431   1.449  10.223  0.0520 -1.6796  1.4153
   20SAPC  H20S 2638   0.587   1.478  10.147 -1.3164  1.0035  1.6726
   20SAPC  H20T 2639   0.550   1.337  10.257 -0.7551  2.3883  2.4696
   20SAPC   C33 2640   1.721  -0.100  10.331 -0.0496 -0.5492 -0.4810
   20SAPC   H3X 2641   1.763  -0.182  10.392 -2.0996 -0.9164  0.4475
   20SAPC   H3Y 2642   1.803  -0.027  10.314  1.1371 -1.7308  0.0673
   20SAPC   C34 2643   1.685  -0.162  10.200  0.1777  0.1166 -0.1931
   20SAPC   H4X 2644   1.613  -0.244  10.220  0.7679 -0.3305  0.0958
   20SAPC   H4Y 2645   1.775  -0.216  10.164  1.5426  2.1739  0.0570
   20SAPC   C35 2646   1.632  -0.063  10.099 -0.4571  0.0519  0.4551
   20SAPC   H5X 2647   1.689   0.031  10.114 -1.1616  0.1818  2.4147
   20SAPC   H5Y 2648   1.523  -0.048  10.114 -0.6915 -2.0759  1.0482
   20SAPC   C36 2649   1.684  -0.089   9.957 -0.7240 -0.0625  0.2767
   20SAPC   H6X 2650   1.645  -0.187   9.921  1.3666 -0.5055 -0.8102
   20SAPC   H6Y 2651   1.794  -0.093   9.951 -0.7984  0.2646 -1.3017
   20SAPC   C37 2652   1.643   0.015   9.859  0.5379 -0.7799  0.3896
   20SAPC   H7X 2653   1.706   0.104   9.878  0.5515 -1.3515  3.2876
   20SAPC   H7Y 2654   1.536   0.043   9.876  0.0291 -2.6074  0.3413
   20SAPC   C38 2655   1.674  -0.028   9.709  0.2251  0.4755 -0.7459
   20SAPC   H8X 2656   1.606  -0.113   9.686  0.2035 -0.1057  1.3896
   20SAPC   H8Y 2657   1.781  -0.058   9.703 -0.5709 -3.0097  0.7912
   20SAPC   C39 2658   1.644   0.093   9.621 -0.8160  1.0235 -1.0342
   20SAPC   H9X 2659   1.707   0.178   9.654  0.5225 -0.5350  0.5210
   20SAPC   H9Y 2660   1.540   0.131   9.626 -1.6776 -1.0420 -2.2594
   20SAPC  C310 2661   1.660   0.066   9.470  0.4694 -0.4672 -0.1763
   20SAPC  H10X 2662   1.610  -0.027   9.434 -1.0508 -0.6620  2.3273
   20SAPC  H10Y 2663   1.769   0.050   9.454  0.4602  0.8296 -1.6893
   20SAPC  C311 2664   1.619   0.193   9.390  1.0508  0.2013 -0.3489
   20SAPC  H11X 2665   1.667   0.279   9.442  3.0530  0.3182 -2.3226
   20SAPC  H11Y 2666   1.510   0.208   9.404  1.3549  1.2666  1.0284
   20SAPC  C312 2667   1.652   0.199   9.241 -0.2188  0.7971 -0.5709
   20SAPC  H12X 2668   1.615   0.114   9.179 -2.6653  2.9983 -2.2290
   20SAPC  H12Y 2669   1.761   0.185   9.228 -0.3738 -0.7315 -0.2796
   20SAPC  C313 2670   1.629   0.338   9.180 -0.2816 -0.3184 -0.6822
   20SAPC  H13X 2671   1.659   0.326   9.074 -1.0644  0.1903 -0.9627
   20SAPC  H13Y 2672   1.695   0.412   9.231  0.8614 -0.6076 -1.7333
   20SAPC  C314 2673   1.476   0.383   9.184  0.8461  0.2856  0.1992
   20SAPC  H14X 2674   1.469   0.450   9.273 -0.0276  1.8099 -0.9953
   20SAPC  H14Y 2675   1.416   0.291   9.193 -0.6015  1.4001  2.4178
   20SAPC  C315 2676   1.429   0.461   9.052 -0.8948  0.5575 -1.2379
   20SAPC  H15X 2677   1.453   0.409   8.957  1.1880 -1.2693  0.2609
   20SAPC  H15Y 2678   1.474   0.563   9.049  2.1433 -0.7736 -2.9023
   20SAPC  C316 2679   1.277   0.472   9.075 -0.4092  0.0216 -0.0447
   20SAPC  H16X 2680   1.270   0.529   9.171 -1.8014 -1.3041  0.6587
   20SAPC  H16Y 2681   1.251   0.366   9.095  0.4622  0.0515  1.3796
   20SAPC  C317 2682   1.208   0.557   8.968  0.3833 -0.1809 -0.1455
   20SAPC  H17X 2683   1.208   0.490   8.879 -0.1374 -0.8800  0.3803
   20SAPC  H17Y 2684   1.269   0.647   8.945  0.0448 -0.2675 -1.4045
   20SAPC  C318 2685   1.068   0.607   8.999 -0.3206  0.3113  0.2217
   20SAPC  H18X 2686   1.076   0.651   9.101  0.2658 -0.5790  0.5672
   20SAPC  H18Y 2687   0.992   0.527   8.992 -0.4832  0.5997 -1.4196
   20SAPC  H18Z 2688   1.045   0.691   8.931 -0.2427  0.3835  0.2859
   21SAPC     N 2689   1.811   5.480  11.025  0.4151  0.6653 -0.1284
   21SAPC   C12 2690   1.782   5.368  10.920  0.2180 -0.0052 -0.1384
   21SAPC  H12A 2691   1.748   5.293  10.990  2.1884 -0.1640  0.6923
   21SAPC  H12B 2692   1.873   5.341  10.868 -1.6728 -3.4775 -1.8301
   21SAPC   C13 2693   1.912   5.431  11.118  0.7001  0.3328  0.6852
   21SAPC  H13A 2694   1.948   5.512  11.179  2.2588  0.7527 -0.7437
   21SAPC  H13B 2695   1.869   5.361  11.189 -1.8269  0.0832 -1.0245
   21SAPC  H13C 2696   1.996   5.381  11.072 -0.8138 -0.8393 -0.8730
   21SAPC   C14 2697   1.878   5.585  10.953  0.2810  0.2731  0.6842
   21SAPC  H14A 2698   1.960   5.546  10.894 -0.4222  0.0772 -0.1768
   21SAPC  H14B 2699   1.808   5.644  10.895  0.9416  1.5153  1.1272
   21SAPC  H14C 2700   1.922   5.652  11.026 -0.4820  0.0002  1.4057
   21SAPC   C15 2701   1.686   5.523  11.097  0.3463 -0.2324 -0.2728
   21SAPC  H15A 2702   1.608   5.449  11.086  0.8962 -0.9958  0.8382
   21SAPC  H15B 2703   1.693   5.545  11.203  0.7663 -2.2713  0.1429
   21SAPC  H15C 2704   1.639   5.608  11.051 -0.0125  2.2487  4.4278
   21SAPC   C11 2705   1.679   5.399  10.805 -0.7472  0.1763  0.3095
   21SAPC  H11A 2706   1.640   5.302  10.768  0.0311  0.3454 -0.9830
   21SAPC  H11B 2707   1.749   5.441  10.730  1.5345 -0.4468  2.0164
   21SAPC     P 2708   1.521   5.601  10.746  0.3226  0.3073 -0.0783
   21SAPC   O13 2709   1.385   5.560  10.693  0.2439  0.0078 -0.3594
   21SAPC   O14 2710   1.526   5.728  10.817 -0.2069  0.1382  0.3156
   21SAPC   O12 2711   1.573   5.487  10.841  0.0926 -0.4523  0.4853
   21SAPC   O11 2712   1.620   5.595  10.620 -0.3580 -0.1611  0.3519
   21SAPC    C1 2713   1.700   5.712  10.588  0.6323  0.3385  0.2390
   21SAPC    HA 2714   1.647   5.810  10.590 -0.0969 -0.0531  0.2344
   21SAPC    HB 2715   1.787   5.723  10.656  0.6865 -1.4858  0.4764
   21SAPC    C2 2716   1.767   5.697  10.445 -0.3638  0.6394  0.2450
   21SAPC    HS 2717   1.841   5.779  10.431 -0.1162  0.4289  0.3274
   21SAPC   O21 2718   1.674   5.702  10.343 -0.1348 -0.1935 -0.1844
   21SAPC   C21 2719   1.605   5.818  10.318 -0.5318 -0.1336  0.3869
   21SAPC   O22 2720   1.634   5.926  10.364  0.3134 -0.2725 -0.8189
   21SAPC   C22 2721   1.501   5.784  10.215 -0.8027 -0.5997  0.1448
   21SAPC   H2R 2722   1.451   5.698  10.264  1.5404 -0.7237  2.4807
   21SAPC   H2S 2723   1.431   5.869  10.202  1.3724  1.1248 -0.6601
   21SAPC    C3 2724   1.852   5.568  10.433  0.3137  0.3997 -0.9015
   21SAPC    HX 2725   1.784   5.483  10.415  0.3614 -0.0819  1.0798
   21SAPC    HY 2726   1.898   5.551  10.533 -0.1277 -2.3934 -1.1411
   21SAPC   O31 2727   1.949   5.566  10.321 -0.3919  0.7072  0.0442
   21SAPC   C31 2728   2.061   5.622  10.353  0.1928  0.1520  0.0689
   21SAPC   O32 2729   2.093   5.677  10.461  0.0857  0.2316  0.4374
   21SAPC   C32 2730   2.159   5.620  10.239 -0.9515 -0.3530  0.1163
   21SAPC   H2X 2731   2.179   5.513  10.216 -0.2761  0.2401 -2.1591
   21SAPC   H2Y 2732   2.260   5.658  10.266  0.2570 -2.8921 -0.7105
   21SAPC   C23 2733   1.559   5.736  10.075  0.2281  0.0949 -0.0663
   21SAPC   H3R 2734   1.653   5.688  10.110  0.2698 -0.0016 -0.3089
   21SAPC   H3S 2735   1.572   5.830  10.017  0.2590  0.2802  0.2410
   21SAPC   C24 2736   1.470   5.633  10.005  0.2999  1.0714  0.1972
   21SAPC   H4R 2737   1.405   5.696   9.940  0.9517  1.1143 -0.4200
   21SAPC   H4S 2738   1.418   5.575  10.084  0.5834  0.2867 -0.1890
   21SAPC   C25 2739   1.547   5.525   9.929  0.4353 -0.0662  0.7157
   21SAPC   H5R 2740   1.603   5.453   9.990  2.9844  1.3482  0.1258
   21SAPC   C26 2741   1.538   5.494   9.797 -0.1530  0.5034 -0.3395
   21SAPC   H6R 2742   1.611   5.418   9.766 -0.1649 -0.1377  1.1481
   21SAPC   C27 2743   1.454   5.567   9.689  0.1795 -0.4440 -0.1496
   21SAPC   H7R 2744   1.489   5.671   9.702 -1.7091  0.2729 -0.5919
   21SAPC   H7S 2745   1.344   5.563   9.709  0.1583 -1.7806 -0.5183
   21SAPC   C28 2746   1.489   5.514   9.556  0.2708  0.1068  1.2809
   21SAPC   H8R 2747   1.525   5.411   9.548  1.6935  0.6852 -0.0493
   21SAPC   C29 2748   1.464   5.589   9.442  0.0363 -0.4161  0.2311
   21SAPC   H9R 2749   1.484   5.551   9.340 -3.7323  1.3175 -1.2803
   21SAPC  C210 2750   1.422   5.734   9.429 -0.6159 -0.0237 -0.5522
   21SAPC  H10R 2751   1.328   5.747   9.487 -1.5950 -1.4258 -1.7910
   21SAPC  H10S 2752   1.381   5.750   9.327 -1.3353 -2.4573 -0.6897
   21SAPC  C211 2753   1.530   5.829   9.463  0.0908 -0.3451 -0.0197
   21SAPC  H11R 2754   1.566   5.826   9.567 -2.4987 -2.7326  0.8717
   21SAPC  C212 2755   1.584   5.906   9.368 -0.1585 -0.9128  0.4167
   21SAPC  H12R 2756   1.669   5.971   9.392 -0.6380  0.4489 -1.4489
   21SAPC  C213 2757   1.561   5.917   9.215  0.0775  0.1875  0.4484
   21SAPC  H13R 2758   1.501   5.838   9.164 -1.1284 -0.4887  2.8734
   21SAPC  H13S 2759   1.664   5.898   9.178  0.9686 -0.2220  3.0382
   21SAPC  C214 2760   1.516   6.051   9.182 -0.6030  0.2275 -0.6400
   21SAPC  H14R 2761   1.517   6.124   9.265 -0.5958 -0.5090  0.0098
   21SAPC  C215 2762   1.467   6.096   9.065  0.7878  0.7006  0.3481
   21SAPC  H15R 2763   1.457   6.204   9.050  2.8878  0.8641 -0.0321
   21SAPC  C216 2764   1.441   6.012   8.942 -0.1034  0.4735  0.1184
   21SAPC  H16R 2765   1.336   5.976   8.944 -0.3345  1.1595  0.3552
   21SAPC  H16S 2766   1.507   5.923   8.935 -1.2638 -0.4398  0.6137
   21SAPC  C217 2767   1.482   6.097   8.816  0.3812  0.3360 -0.5162
   21SAPC  H17R 2768   1.480   6.022   8.735 -0.5140 -0.6471  0.4110
   21SAPC  H17S 2769   1.584   6.140   8.822 -0.0077  0.9713  1.8695
   21SAPC  C218 2770   1.386   6.208   8.795  0.2593 -0.3748 -0.2229
   21SAPC  H18R 2771   1.397   6.292   8.866 -3.8318  0.8270 -0.9081
   21SAPC  H18S 2772   1.282   6.170   8.802  1.0901 -2.8639 -0.9540
   21SAPC  C219 2773   1.394   6.266   8.646  0.4633  0.9160 -0.0154
   21SAPC  H19R 2774   1.411   6.174   8.585  0.3374  0.8904 -0.0119
   21SAPC  H19S 2775   1.485   6.327   8.630  0.0942  2.0254  1.9741
   21SAPC  C220 2776   1.269   6.359   8.603  0.1145  0.0769 -0.3565
   21SAPC  H20R 2777   1.286   6.404   8.503  1.5297  0.3487  0.0003
   21SAPC  H20S 2778   1.245   6.439   8.677  1.4194  1.2275 -1.1633
   21SAPC  H20T 2779   1.174   6.302   8.603  0.6431 -0.8165 -0.1307
   21SAPC   C33 2780   2.104   5.696  10.110  0.3069  0.2594 -0.5629
   21SAPC   H3X 2781   2.009   5.650  10.076 -0.5621 -0.0161  2.0911
   21SAPC   H3Y 2782   2.185   5.681  10.035  0.0639  1.9424 -1.1773
   21SAPC   C34 2783   2.090   5.844  10.133  0.2017  0.7356  0.1922
   21SAPC   H4X 2784   2.189   5.896  10.138  0.3278  0.5373 -0.2330
   21SAPC   H4Y 2785   2.041   5.868  10.230  0.3376 -1.3294  0.7927
   21SAPC   C35 2786   2.001   5.907  10.015  0.7295 -0.1487 -0.4999
   21SAPC   H5X 2787   1.973   6.012  10.040 -1.3365 -1.1389  1.5322
   21SAPC   H5Y 2788   1.904   5.853  10.014  0.9050 -0.4584 -1.3743
   21SAPC   C36 2789   2.061   5.908   9.874 -0.3330  0.4650  0.4501
   21SAPC   H6X 2790   2.079   5.801   9.852 -0.3466  0.4596  0.4639
   21SAPC   H6Y 2791   2.158   5.960   9.885  0.4428 -1.2620  1.9521
   21SAPC   C37 2792   1.963   5.988   9.784  0.2176 -0.4381 -0.0154
   21SAPC   H7X 2793   1.995   6.094   9.792 -1.2766 -0.0379  0.8611
   21SAPC   H7Y 2794   1.858   5.979   9.819  0.0243 -0.1464 -0.5091
   21SAPC   C38 2795   1.966   5.956   9.630 -0.0204 -0.9281 -0.8613
   21SAPC   H8X 2796   1.863   5.977   9.593 -0.3323 -2.7008 -1.0445
   21SAPC   H8Y 2797   1.993   5.848   9.627 -0.3618 -1.0569  0.1821
   21SAPC   C39 2798   2.065   6.046   9.555 -0.4480 -0.3939 -0.4539
   21SAPC   H9X 2799   2.167   6.026   9.593 -0.0379  1.1107 -0.7558
   21SAPC   H9Y 2800   2.058   6.153   9.586  0.1715 -0.1194 -1.2621
   21SAPC  C310 2801   2.059   6.020   9.405  0.8618  0.1137  0.4514
   21SAPC  H10X 2802   2.076   5.915   9.375  1.6210 -0.1628  1.8207
   21SAPC  H10Y 2803   2.140   6.072   9.349  1.0118  0.6117  1.1255
   21SAPC  C311 2804   1.920   6.041   9.340  0.2732 -0.2543  1.1446
   21SAPC  H11X 2805   1.874   6.130   9.386  2.8970  0.7507  1.9293
   21SAPC  H11Y 2806   1.865   5.946   9.361 -1.0019  0.2806  0.2384
   21SAPC  C312 2807   1.924   6.052   9.187 -0.4472  0.4753 -0.0754
   21SAPC  H12X 2808   1.819   6.063   9.153 -0.3108  1.3477 -0.2105
   21SAPC  H12Y 2809   1.953   5.952   9.145  2.0628  1.6498 -1.2883
   21SAPC  C313 2810   2.021   6.163   9.138  0.1251 -0.7987  0.3782
   21SAPC  H13X 2811   2.124   6.122   9.144  1.2685  1.7125 -1.1869
   21SAPC  H13Y 2812   2.008   6.254   9.199  2.2796  1.8925 -2.9886
   21SAPC  C314 2813   2.021   6.195   8.986 -0.7074 -0.2834  0.2236
   21SAPC  H14X 2814   2.014   6.101   8.927  1.3163 -0.5786  0.4009
   21SAPC  H14Y 2815   2.108   6.258   8.957  0.4504 -1.9562 -0.0904
   21SAPC  C315 2816   1.903   6.279   8.945 -0.1842 -0.5706 -0.0294
   21SAPC  H15X 2817   1.892   6.372   9.005  1.6854 -0.4461  0.1629
   21SAPC  H15Y 2818   1.806   6.226   8.954 -0.5358 -0.2941 -2.1693
   21SAPC  C316 2819   1.923   6.327   8.799 -0.4512 -0.1528  0.7670
   21SAPC  H16X 2820   1.945   6.236   8.741  1.9181  0.0535  1.3094
   21SAPC  H16Y 2821   2.010   6.396   8.797  0.4065 -1.2183  1.0544
   21SAPC  C317 2822   1.803   6.395   8.743 -0.3779  0.0661  0.3660
   21SAPC  H17X 2823   1.778   6.489   8.797  0.4203  0.2363  0.4470
   21SAPC  H17Y 2824   1.715   6.329   8.757 -3.1929  3.2901 -1.3929
   21SAPC  C318 2825   1.827   6.428   8.596  0.4210  0.7297 -0.4745
   21SAPC  H18X 2826   1.726   6.432   8.552  0.6354  3.1992 -0.8442
   21SAPC  H18Y 2827   1.880   6.352   8.536  0.5541 -2.3480  3.3411
   21SAPC  H18Z 2828   1.882   6.523   8.578  2.3872 -0.8499 -3.1136
   22SAPC     N 2829   0.287   3.962  10.997  0.0148 -0.1160 -0.1336
   22SAPC   C12 2830   0.138   3.974  11.004 -0.0501  0.0449 -0.1851
   22SAPC  H12A 2831   0.111   4.050  10.933  4.8161 -1.4131 -3.8312
   22SAPC  H12B 2832   0.100   4.008  11.100 -1.2595  0.5350 -0.8331
   22SAPC   C13 2833   0.322   3.917  10.860 -0.0039  1.1720  0.2615
   22SAPC  H13A 2834   0.268   3.824  10.849  1.0035  0.8646 -2.2073
   22SAPC  H13B 2835   0.288   3.993  10.791 -0.3365  0.4884 -0.3336
   22SAPC  H13C 2836   0.428   3.917  10.838  0.5570  0.3809  2.7569
   22SAPC   C14 2837   0.352   4.091  11.019  0.7945  0.8305  0.2331
   22SAPC  H14A 2838   0.345   4.106  11.125 -1.6690  1.4934  0.0046
   22SAPC  H14B 2839   0.455   4.090  10.985  0.7042 -4.4490 -0.3393
   22SAPC  H14C 2840   0.300   4.177  10.979  0.2599 -0.4179 -1.8666
   22SAPC   C15 2841   0.337   3.865  11.093  0.1799 -0.1780 -0.0143
   22SAPC  H15A 2842   0.335   3.915  11.189 -0.6649  0.0972 -0.1707
   22SAPC  H15B 2843   0.272   3.778  11.096 -0.4144  0.2882  0.7474
   22SAPC  H15C 2844   0.442   3.845  11.080  0.2153 -0.5525  0.8147
   22SAPC   C11 2845   0.054   3.846  10.977 -0.1676 -0.2512 -0.1915
   22SAPC  H11A 2846  -0.037   3.840  11.039  0.0719  1.5163  0.3756
   22SAPC  H11B 2847   0.120   3.757  10.984  1.0991  0.6034 -0.8936
   22SAPC     P 2848  -0.067   3.747  10.767  0.5439  0.1574  0.3843
   22SAPC   O13 2849   0.032   3.656  10.714  0.0096 -0.6373 -1.0552
   22SAPC   O14 2850  -0.171   3.696  10.852  0.3307  0.8452 -0.1907
   22SAPC   O12 2851   0.014   3.857  10.844 -0.5281  0.2156 -0.0946
   22SAPC   O11 2852  -0.145   3.824  10.652  0.1277  0.1367 -0.6916
   22SAPC    C1 2853  -0.157   3.964  10.638  0.3708 -0.8795  0.0040
   22SAPC    HA 2854  -0.260   3.987  10.603 -0.4973 -0.4591  2.7060
   22SAPC    HB 2855  -0.129   4.026  10.726  0.0426  0.2040 -0.6427
   22SAPC    C2 2856  -0.081   4.012  10.507  1.2715 -0.8340  1.0520
   22SAPC    HS 2857  -0.108   4.116  10.476 -0.5111 -1.5309  0.2132
   22SAPC   O21 2858  -0.103   3.923  10.397  0.4849 -0.6957  0.4312
   22SAPC   C21 2859  -0.225   3.931  10.345 -0.4985 -1.0751 -1.1276
   22SAPC   O22 2860  -0.311   4.017  10.369  0.0156  0.3909  0.0716
   22SAPC   C22 2861  -0.254   3.819  10.247 -0.2166 -0.8165 -0.2651
   22SAPC   H2R 2862  -0.189   3.730  10.265 -0.9583 -0.9664  1.8987
   22SAPC   H2S 2863  -0.359   3.791  10.273  0.0665 -2.7199 -1.0858
   22SAPC    C3 2864   0.076   4.026  10.537 -0.5008 -0.5100 -0.8570
   22SAPC    HX 2865   0.089   3.933  10.597  2.4168  0.9430  0.9039
   22SAPC    HY 2866   0.095   4.119  10.596 -2.2464 -1.2857  0.9904
   22SAPC   O31 2867   0.148   4.033  10.408 -0.2823 -0.5375  0.5576
   22SAPC   C31 2868   0.259   3.961  10.408  0.0461  0.3785 -0.4561
   22SAPC   O32 2869   0.303   3.904  10.499  0.0978  0.1980  0.2133
   22SAPC   C32 2870   0.314   3.971  10.260  0.2086  0.9427 -0.1510
   22SAPC   H2X 2871   0.303   4.080  10.238 -0.7626  0.7488 -0.6482
   22SAPC   H2Y 2872   0.254   3.901  10.199  0.7138 -0.9782  1.5115
   22SAPC   C23 2873  -0.277   3.868  10.104  0.1158 -0.0869  0.5221
   22SAPC   H3R 2874  -0.346   3.956  10.105  0.1815  0.0201 -1.7144
   22SAPC   H3S 2875  -0.316   3.785  10.043  0.4667 -1.3572  1.9887
   22SAPC   C24 2876  -0.153   3.918  10.016  0.2062  0.4690 -0.6371
   22SAPC   H4R 2877  -0.116   4.011  10.063 -1.2051  1.0621 -0.6674
   22SAPC   H4S 2878  -0.199   3.942   9.918 -0.6453 -1.0122 -0.6155
   22SAPC   C25 2879  -0.040   3.820   9.993  0.6122 -0.1565  0.3728
   22SAPC   H5R 2880   0.040   3.829  10.067 -0.4946 -0.6601  1.6437
   22SAPC   C26 2881  -0.034   3.724   9.898  0.5135  0.3005  1.0649
   22SAPC   H6R 2882   0.045   3.648   9.912  0.2166  0.2197  2.3641
   22SAPC   C27 2883  -0.136   3.691   9.792  0.4017 -0.0380 -0.7229
   22SAPC   H7R 2884  -0.134   3.772   9.716  1.9867 -0.6140 -1.3111
   22SAPC   H7S 2885  -0.237   3.687   9.840  0.5659 -0.3681 -0.3950
   22SAPC   C28 2886  -0.117   3.548   9.742 -0.0069  0.4011 -0.2058
   22SAPC   H8R 2887  -0.076   3.475   9.813 -1.9726 -1.6817 -1.1618
   22SAPC   C29 2888  -0.130   3.504   9.615 -0.2007 -0.4985  0.0350
   22SAPC   H9R 2889  -0.105   3.402   9.583 -0.6231  0.4808 -3.6475
   22SAPC  C210 2890  -0.168   3.593   9.500 -0.2969  0.0809 -0.8686
   22SAPC  H10R 2891  -0.203   3.693   9.533 -0.3219  0.6110 -2.4609
   22SAPC  H10S 2892  -0.268   3.559   9.467  0.2134 -1.5254 -0.8435
   22SAPC  C211 2893  -0.073   3.606   9.382 -0.6164 -0.6208 -0.4245
   22SAPC  H11R 2894  -0.100   3.540   9.298  4.1729 -2.6877 -0.4834
   22SAPC  C212 2895   0.038   3.677   9.363  0.6145 -0.1217  0.0563
   22SAPC  H12R 2896   0.101   3.651   9.276 -0.0394  0.2983 -0.5518
   22SAPC  C213 2897   0.086   3.768   9.472  0.6734  0.4880  0.0197
   22SAPC  H13R 2898   0.187   3.798   9.438 -0.0870 -0.5406 -3.4142
   22SAPC  H13S 2899   0.105   3.722   9.571  1.5407  1.1252  0.1478
   22SAPC  C214 2900   0.007   3.898   9.489 -0.5421 -0.5477  0.0277
   22SAPC  H14R 2901  -0.030   3.919   9.590 -1.3159  2.5716 -0.8445
   22SAPC  C215 2902  -0.016   4.000   9.400 -0.6548 -1.1354 -0.2573
   22SAPC  H15R 2903  -0.075   4.088   9.430  2.0577  0.5381  0.3288
   22SAPC  C216 2904   0.027   4.016   9.258 -0.3324  0.2868  0.9248
   22SAPC  H16R 2905   0.106   3.943   9.228  1.2519  1.8059  1.3393
   22SAPC  H16S 2906   0.060   4.120   9.240 -0.9867  0.4681  0.7508
   22SAPC  C217 2907  -0.087   3.973   9.165  0.1874 -0.0553  0.3396
   22SAPC  H17R 2908  -0.179   4.028   9.195  1.8579  2.8997  0.3298
   22SAPC  H17S 2909  -0.087   3.863   9.172 -0.3380 -0.0334  0.7185
   22SAPC  C218 2910  -0.069   4.002   9.015  0.2077 -0.8509 -0.2177
   22SAPC  H18R 2911  -0.126   3.925   8.958  1.4153 -3.5213  2.0887
   22SAPC  H18S 2912   0.038   3.994   8.986 -0.4870 -1.6267 -2.7295
   22SAPC  C219 2913  -0.099   4.135   8.962  0.8093 -0.2671 -0.0841
   22SAPC  H19R 2914  -0.031   4.207   9.013  2.0325 -0.4257 -1.4715
   22SAPC  H19S 2915  -0.205   4.154   8.991  0.8165 -3.5506  2.4353
   22SAPC  C220 2916  -0.091   4.142   8.810  0.2982 -0.4137  0.2379
   22SAPC  H20R 2917   0.011   4.119   8.774  0.1622  0.3619 -0.6669
   22SAPC  H20S 2918  -0.124   4.237   8.762  1.6897  0.4590  0.9770
   22SAPC  H20T 2919  -0.146   4.057   8.764  1.6411  0.0888 -2.3789
   22SAPC   C33 2920   0.465   3.920  10.253  0.1153 -0.1517 -0.4814
   22SAPC   H3X 2921   0.477   3.811  10.235  1.1451  0.0512 -1.0939
   22SAPC   H3Y 2922   0.515   3.956  10.345 -0.3526 -0.5941 -0.0490
   22SAPC   C34 2923   0.541   3.967  10.129  0.2063  0.2650 -0.0279
   22SAPC   H4X 2924   0.649   3.944  10.140  0.3462  2.0056  2.9419
   22SAPC   H4Y 2925   0.535   4.077  10.138 -0.9361  0.1899  0.3156
   22SAPC   C35 2926   0.489   3.954   9.988  0.0120  0.0582  1.0893
   22SAPC   H5X 2927   0.565   3.995   9.918 -3.6058  0.8535 -2.5204
   22SAPC   H5Y 2928   0.395   4.010   9.972  1.4348  1.6313 -2.3496
   22SAPC   C36 2929   0.459   3.805   9.963 -0.2161  0.0150  0.0288
   22SAPC   H6X 2930   0.395   3.764  10.044 -1.5034  0.7897 -0.5753
   22SAPC   H6Y 2931   0.557   3.753   9.971  0.0915  0.6507  0.4139
   22SAPC   C37 2932   0.397   3.796   9.826  0.8153 -1.0308  0.2565
   22SAPC   H7X 2933   0.315   3.868   9.808  1.6027  0.2748  1.7753
   22SAPC   H7Y 2934   0.362   3.691   9.823  3.0635 -1.8631  1.9317
   22SAPC   C38 2935   0.490   3.813   9.710  0.2643 -0.3490 -0.5516
   22SAPC   H8X 2936   0.556   3.724   9.699 -0.1334 -0.7110 -0.0149
   22SAPC   H8Y 2937   0.545   3.906   9.737  0.5391 -0.9992  1.1739
   22SAPC   C39 2938   0.421   3.834   9.576  0.1670 -0.4123  0.2915
   22SAPC   H9X 2939   0.341   3.910   9.563  2.7174  2.2559 -0.2011
   22SAPC   H9Y 2940   0.381   3.735   9.547 -1.5204  0.3668 -0.1586
   22SAPC  C310 2941   0.524   3.865   9.463  0.6840  0.2188 -0.1213
   22SAPC  H10X 2942   0.599   3.784   9.475 -1.6980 -1.4390  5.1459
   22SAPC  H10Y 2943   0.565   3.968   9.476  0.4513  0.2341  0.4998
   22SAPC  C311 2944   0.466   3.855   9.322 -0.0975 -0.7436  0.0490
   22SAPC  H11X 2945   0.543   3.894   9.251 -0.7896 -0.7677 -0.7253
   22SAPC  H11Y 2946   0.381   3.927   9.317  2.0784  2.0453  1.6452
   22SAPC  C312 2947   0.418   3.716   9.279 -0.4414  0.1442  0.1313
   22SAPC  H12X 2948   0.324   3.694   9.332 -0.0416 -0.0996  0.7473
   22SAPC  H12Y 2949   0.495   3.643   9.314 -2.1594 -2.0659 -0.5899
   22SAPC  C313 2950   0.407   3.712   9.125  0.4785  0.1305 -0.0200
   22SAPC  H13X 2951   0.512   3.718   9.089  1.0716  1.3485  1.8077
   22SAPC  H13Y 2952   0.354   3.807   9.102  0.0836  0.0073  0.3629
   22SAPC  C314 2953   0.323   3.597   9.068 -0.2351  0.0223 -0.7777
   22SAPC  H14X 2954   0.276   3.540   9.151 -1.5064  0.6527 -1.0531
   22SAPC  H14Y 2955   0.387   3.524   9.015  1.7195  1.6279 -0.7088
   22SAPC  C315 2956   0.206   3.639   8.974  0.0433 -0.9785 -0.5289
   22SAPC  H15X 2957   0.154   3.730   9.009  0.5412 -1.4374  1.4520
   22SAPC  H15Y 2958   0.133   3.558   8.952 -0.5034 -0.3714 -0.9603
   22SAPC  C316 2959   0.263   3.678   8.832 -0.0354  0.3842  0.0548
   22SAPC  H16X 2960   0.335   3.603   8.793 -0.2943  0.8855 -1.4069
   22SAPC  H16Y 2961   0.319   3.771   8.855 -0.8346  1.4243 -2.0872
   22SAPC  C317 2962   0.150   3.708   8.735 -0.0801 -0.2310 -1.2357
   22SAPC  H17X 2963   0.075   3.778   8.779  0.1340  0.2784 -1.6749
   22SAPC  H17Y 2964   0.098   3.612   8.716 -3.1824  1.5132 -1.9866
   22SAPC  C318 2965   0.212   3.762   8.603  0.1071 -0.1425 -0.3845
   22SAPC  H18X 2966   0.285   3.684   8.576 -0.7075 -1.3310  0.7628
   22SAPC  H18Y 2967   0.253   3.865   8.604 -1.6193  0.5712  0.9670
   22SAPC  H18Z 2968   0.134   3.764   8.524 -0.6989  2.4308  0.3973
   23SAPC     N 2969   2.998   4.912  10.912  0.4306  0.0383  0.0687
   23SAPC   C12 2970   3.107   4.975  10.821 -0.6986  0.3527 -0.5816
   23SAPC  H12A 2971   3.159   4.902  10.761  2.7984  1.4186  0.9740
   23SAPC  H12B 2972   3.182   5.019  10.885 -0.4245 -0.6714 -0.1977
   23SAPC   C13 2973   2.887   4.846  10.833  0.3493 -0.3940  0.5122
   23SAPC  H13A 2974   2.839   4.922  10.773 -0.1769 -1.8687 -0.9622
   23SAPC  H13B 2975   2.919   4.760  10.777 -1.5012 -1.8508  1.5904
   23SAPC  H13C 2976   2.809   4.811  10.900  0.5083  0.0601  0.9340
   23SAPC   C14 2977   3.061   4.803  10.999  0.5349  0.3576 -0.1514
   23SAPC  H14A 2978   2.995   4.746  11.062 -0.0947  1.2494  0.0122
   23SAPC  H14B 2979   3.121   4.733  10.944 -0.0635 -1.0347  0.9350
   23SAPC  H14C 2980   3.120   4.858  11.072 -0.2829  0.9510  0.0793
   23SAPC   C15 2981   2.943   5.014  10.999  0.6389  0.8257 -1.0840
   23SAPC  H15A 2982   2.905   5.092  10.936  0.2208  0.3161 -1.4591
   23SAPC  H15B 2983   2.860   4.975  11.056 -0.1387 -0.7111 -3.1963
   23SAPC  H15C 2984   3.016   5.049  11.071  0.5237 -0.4432 -0.3276
   23SAPC   C11 2985   3.064   5.086  10.725 -0.1093  0.2521  0.1144
   23SAPC  H11A 2986   2.961   5.061  10.692  0.1076  1.5788 -1.6338
   23SAPC  H11B 2987   3.121   5.088  10.630  0.3368 -0.3520  0.3639
   23SAPC     P 2988   2.972   5.335  10.735 -0.0100  0.1419  0.3868
   23SAPC   O13 2989   2.827   5.315  10.766 -0.1435 -0.5765 -0.1327
   23SAPC   O14 2990   3.040   5.459  10.784  0.6112  0.6100  0.0095
   23SAPC   O12 2991   3.046   5.206  10.794  0.0296  0.4036  0.5857
   23SAPC   O11 2992   2.995   5.320  10.579  0.1474 -0.0181 -0.2120
   23SAPC    C1 2993   3.112   5.359  10.507  0.2453  0.6907  0.8097
   23SAPC    HA 2994   3.197   5.365  10.578  0.6211 -3.7280  0.8849
   23SAPC    HB 2995   3.123   5.288  10.422  0.8899 -0.9490  2.2492
   23SAPC    C2 2996   3.096   5.506  10.455  0.2595 -0.4089  0.9038
   23SAPC    HS 2997   3.079   5.567  10.546  2.2867  1.4220  0.0958
   23SAPC   O21 2998   2.984   5.513  10.363 -0.4005 -0.4519  0.3499
   23SAPC   C21 2999   2.926   5.633  10.351  0.3333  0.3086 -0.2341
   23SAPC   O22 3000   2.944   5.728  10.423 -0.0068 -0.3114  0.0105
   23SAPC   C22 3001   2.814   5.620  10.251 -0.0754 -0.4801  0.5925
   23SAPC   H2R 3002   2.829   5.710  10.188  0.9433  0.4863  2.1913
   23SAPC   H2S 3003   2.839   5.531  10.190  0.6657 -0.9466  1.5713
   23SAPC    C3 3004   3.223   5.557  10.386 -0.6454  0.4973 -0.0303
   23SAPC    HX 3005   3.304   5.565  10.461 -0.1334 -1.4466 -0.3433
   23SAPC    HY 3006   3.212   5.662  10.353  1.9166 -0.3788 -3.9831
   23SAPC   O31 3007   3.278   5.472  10.283  0.1675  0.3856 -0.4259
   23SAPC   C31 3008   3.240   5.501  10.161  0.0610 -0.2892  0.3738
   23SAPC   O32 3009   3.152   5.583  10.130 -0.3996 -0.2128  0.4572
   23SAPC   C32 3010   3.327   5.423  10.052 -0.2018 -0.1058 -0.0044
   23SAPC   H2X 3011   3.323   5.315  10.076 -1.7534 -0.1345 -0.3423
   23SAPC   H2Y 3012   3.432   5.458  10.056 -1.1047  2.7477  0.6916
   23SAPC   C23 3013   2.681   5.621  10.321  0.1669  0.0828 -0.2842
   23SAPC   H3R 3014   2.675   5.700  10.399 -1.2225 -0.8338  0.5568
   23SAPC   H3S 3015   2.678   5.523  10.372  1.4934 -0.5046 -1.3178
   23SAPC   C24 3016   2.560   5.620  10.230  0.1291 -0.5800  0.3214
   23SAPC   H4R 3017   2.470   5.636  10.293 -0.4798 -1.6117 -0.2697
   23SAPC   H4S 3018   2.558   5.525  10.174  0.2805  0.0758 -0.8209
   23SAPC   C25 3019   2.563   5.733  10.129  0.3245  0.0613  0.1531
   23SAPC   H5R 3020   2.599   5.827  10.174  1.2661  0.0216 -0.5234
   23SAPC   C26 3021   2.555   5.719   9.998 -0.2091 -0.2796  0.0979
   23SAPC   H6R 3022   2.545   5.816   9.947  0.0870  0.9725  2.3672
   23SAPC   C27 3023   2.540   5.595   9.911  0.0050  0.3004 -0.1272
   23SAPC   H7R 3024   2.594   5.507   9.951 -0.5484 -0.5933 -1.3293
   23SAPC   H7S 3025   2.598   5.630   9.823 -0.5479  1.2681 -0.1160
   23SAPC   C28 3026   2.401   5.553   9.871  0.3107  0.5424  0.1050
   23SAPC   H8R 3027   2.341   5.516   9.955 -0.1675  1.1062  0.0181
   23SAPC   C29 3028   2.344   5.570   9.751 -0.4936  0.3765 -0.4057
   23SAPC   H9R 3029   2.246   5.522   9.742 -0.0751 -0.4198 -0.7592
   23SAPC  C210 3030   2.415   5.619   9.626  0.0880  0.0126  0.3893
   23SAPC  H10R 3031   2.470   5.538   9.573  2.0184  1.1137  0.6603
   23SAPC  H10S 3032   2.493   5.688   9.666  1.9726 -0.1274 -2.8732
   23SAPC  C211 3033   2.326   5.688   9.528  0.4528  0.0718  0.0953
   23SAPC  H11R 3034   2.254   5.756   9.576 -0.5482 -1.9839  1.5561
   23SAPC  C212 3035   2.333   5.689   9.399  0.0871 -0.7035 -0.1399
   23SAPC  H12R 3036   2.268   5.745   9.331  0.4756  0.1822  0.2121
   23SAPC  C213 3037   2.437   5.613   9.316  0.5784  0.1474 -0.6835
   23SAPC  H13R 3038   2.528   5.585   9.373 -0.7419 -2.4752  0.2474
   23SAPC  H13S 3039   2.472   5.682   9.236 -0.3455 -1.3430 -2.4401
   23SAPC  C214 3040   2.373   5.490   9.262  0.2454  0.7643 -0.5721
   23SAPC  H14R 3041   2.334   5.421   9.338  2.7517 -0.0500  0.0134
   23SAPC  C215 3042   2.354   5.461   9.133  0.0306  0.0296  0.0878
   23SAPC  H15R 3043   2.291   5.374   9.113  0.6337 -0.8354  1.8829
   23SAPC  C216 3044   2.391   5.543   9.014  0.2250  0.2933 -0.3009
   23SAPC  H16R 3045   2.396   5.476   8.926  0.1890 -1.1755  0.7846
   23SAPC  H16S 3046   2.492   5.587   9.029 -0.3307  0.4983  3.3937
   23SAPC  C217 3047   2.318   5.677   8.975 -0.7476 -0.0957  0.5076
   23SAPC  H17R 3048   2.335   5.748   9.059 -0.2626 -0.4537  0.7155
   23SAPC  H17S 3049   2.209   5.660   8.962 -0.5396 -0.5991 -0.6083
   23SAPC  C218 3050   2.359   5.740   8.844 -0.0336  0.2736  0.4550
   23SAPC  H18R 3051   2.463   5.775   8.859 -0.7833  1.0864  4.3166
   23SAPC  H18S 3052   2.293   5.829   8.827 -1.3765 -0.8112 -0.1051
   23SAPC  C219 3053   2.335   5.654   8.723  0.4180 -0.2547 -0.3080
   23SAPC  H19R 3054   2.382   5.553   8.730  0.3236 -0.3254 -0.6840
   23SAPC  H19S 3055   2.379   5.707   8.636 -0.2196  2.3517  0.9270
   23SAPC  C220 3056   2.185   5.636   8.693 -0.2249  0.2849  0.5097
   23SAPC  H20R 3057   2.171   5.558   8.615  0.2107  1.1744 -0.4644
   23SAPC  H20S 3058   2.139   5.733   8.666 -0.8782 -0.1223  0.1359
   23SAPC  H20T 3059   2.141   5.598   8.788 -0.6468  1.2010  0.6871
   23SAPC   C33 3060   3.285   5.457   9.904  0.3964 -0.6222  0.2905
   23SAPC   H3X 3061   3.285   5.567   9.891 -1.1542 -0.5922  0.4842
   23SAPC   H3Y 3062   3.183   5.420   9.882  1.5565 -2.2818 -2.6246
   23SAPC   C34 3063   3.382   5.384   9.809  0.0513 -0.0919 -0.5890
   23SAPC   H4X 3064   3.402   5.284   9.853  1.9757  0.1343 -0.8893
   23SAPC   H4Y 3065   3.479   5.440   9.810  0.1360 -0.2426  0.5471
   23SAPC   C35 3066   3.324   5.366   9.663 -0.8777  0.0981 -0.5753
   23SAPC   H5X 3067   3.217   5.339   9.676 -0.4147 -1.2140  0.6141
   23SAPC   H5Y 3068   3.385   5.288   9.613 -1.6198 -1.1449  0.4347
   23SAPC   C36 3069   3.349   5.491   9.577  0.3222 -0.2322  0.4792
   23SAPC   H6X 3070   3.453   5.511   9.545 -0.0318  0.1904 -0.4306
   23SAPC   H6Y 3071   3.298   5.573   9.633  1.8730 -0.2570  1.9706
   23SAPC   C37 3072   3.271   5.496   9.447  0.6357  0.4440  0.9019
   23SAPC   H7X 3073   3.274   5.593   9.392  0.4410  0.0719  0.2299
   23SAPC   H7Y 3074   3.166   5.477   9.478  0.5002  1.0150  0.7909
   23SAPC   C38 3075   3.308   5.384   9.345 -0.3952 -0.0494 -0.5792
   23SAPC   H8X 3076   3.217   5.361   9.284 -0.2104 -1.3355 -0.3804
   23SAPC   H8Y 3077   3.334   5.289   9.395 -0.0905 -0.9952 -2.4680
   23SAPC   C39 3078   3.409   5.435   9.241 -0.0332 -0.8683 -0.9670
   23SAPC   H9X 3079   3.495   5.492   9.284 -0.5248  0.0001 -1.1289
   23SAPC   H9Y 3080   3.356   5.508   9.176  2.5763 -0.9059 -3.2133
   23SAPC  C310 3081   3.456   5.325   9.144 -0.7629 -0.0953  0.2949
   23SAPC  H10X 3082   3.367   5.270   9.106 -0.4757  0.9711 -2.0345
   23SAPC  H10Y 3083   3.516   5.257   9.208  0.6154  2.2380  1.5647
   23SAPC  C311 3084   3.540   5.370   9.024 -0.7788  0.6418 -0.5161
   23SAPC  H11X 3085   3.592   5.283   8.978 -3.6651 -1.7169  0.5269
   23SAPC  H11Y 3086   3.618   5.432   9.073 -1.3498  1.6853 -0.9135
   23SAPC  C312 3087   3.460   5.445   8.913  0.0888  0.0788  0.3780
   23SAPC  H12X 3088   3.416   5.534   8.964 -1.5399 -0.4219 -0.1345
   23SAPC  H12Y 3089   3.387   5.377   8.864  1.5262 -0.6380 -0.7772
   23SAPC  C313 3090   3.553   5.509   8.808  0.3067 -0.1042  0.0482
   23SAPC  H13X 3091   3.617   5.586   8.855  0.8734 -0.4813 -0.0985
   23SAPC  H13Y 3092   3.498   5.553   8.722  1.3566  1.0493 -0.0499
   23SAPC  C314 3093   3.649   5.408   8.750  0.1723 -1.2312 -0.2038
   23SAPC  H14X 3094   3.584   5.320   8.733 -4.0468  1.4325  1.2808
   23SAPC  H14Y 3095   3.728   5.370   8.817  0.2144 -0.1026  0.3913
   23SAPC  C315 3096   3.706   5.457   8.610 -0.1121  0.2962 -0.3280
   23SAPC  H15X 3097   3.749   5.557   8.632 -0.7537  0.7919 -1.2986
   23SAPC  H15Y 3098   3.637   5.478   8.526 -2.1383  2.6087  1.8319
   23SAPC  C316 3099   3.809   5.359   8.550  0.3693 -0.3427  0.1043
   23SAPC  H16X 3100   3.752   5.264   8.541 -0.8295  0.3050  0.6477
   23SAPC  H16Y 3101   3.898   5.336   8.611 -0.2836 -2.0179  0.4270
   23SAPC  C317 3102   3.858   5.412   8.413 -0.3737  0.3599  0.6943
   23SAPC  H17X 3103   3.900   5.513   8.427  0.4180  0.4257 -1.8561
   23SAPC  H17Y 3104   3.766   5.431   8.353 -0.1417  0.9708  0.5263
   23SAPC  C318 3105   3.940   5.307   8.335 -0.2200 -0.4596  0.0456
   23SAPC  H18X 3106   3.987   5.228   8.397  0.3090 -0.8527 -0.8534
   23SAPC  H18Y 3107   4.015   5.351   8.265 -0.0396  0.8407  1.0296
   23SAPC  H18Z 3108   3.877   5.238   8.276  1.7020 -0.8723 -1.5989
   24SAPC     N 3109   5.405   5.979  11.359 -0.0405 -0.4761 -0.4771
   24SAPC   C12 3110   5.270   5.945  11.305 -0.2825 -0.3068 -0.7871
   24SAPC  H12A 3111   5.194   6.018  11.329  1.0566  0.7128  0.4535
   24SAPC  H12B 3112   5.236   5.850  11.344  1.6181 -0.0195  1.7309
   24SAPC   C13 3113   5.508   5.880  11.306  0.0923 -0.0932 -0.1951
   24SAPC  H13A 3114   5.482   5.778  11.333  2.9455 -0.5100  1.0923
   24SAPC  H13B 3115   5.510   5.892  11.199  0.7711  2.1578  0.0450
   24SAPC  H13C 3116   5.605   5.911  11.341  0.4310 -0.3708 -0.8955
   24SAPC   C14 3117   5.449   6.116  11.324  0.0337  0.0404 -0.3181
   24SAPC  H14A 3118   5.382   6.183  11.376  0.4157  0.4929 -0.4180
   24SAPC  H14B 3119   5.545   6.144  11.365 -0.9438 -0.9338  2.8460
   24SAPC  H14C 3120   5.430   6.135  11.220 -3.8979 -2.5917 -0.2143
   24SAPC   C15 3121   5.388   5.967  11.502  0.1817  0.4239  0.0313
   24SAPC  H15A 3122   5.481   5.979  11.555  0.6990  1.3645 -1.0746
   24SAPC  H15B 3123   5.314   6.039  11.533  1.3440  1.1611  1.1257
   24SAPC  H15C 3124   5.355   5.866  11.521  1.2800 -0.2542 -1.5775
   24SAPC   C11 3125   5.259   5.930  11.149  0.1176  1.3676  0.4405
   24SAPC  H11A 3126   5.160   5.888  11.121  1.0432 -0.5851 -0.0560
   24SAPC  H11B 3127   5.332   5.853  11.113 -1.8417  0.1289 -0.9832
   24SAPC     P 3128   5.191   6.165  11.078  0.0168  0.1132 -0.7359
   24SAPC   O13 3129   5.103   6.164  11.197  0.3047  0.0293  0.2739
   24SAPC   O14 3130   5.275   6.284  11.053 -0.3619  0.4274 -0.3652
   24SAPC   O12 3131   5.293   6.048  11.085 -0.5838 -0.1776  0.3336
   24SAPC   O11 3132   5.110   6.154  10.946 -0.1364 -0.5967 -0.3864
   24SAPC    C1 3133   5.032   6.044  10.897 -0.7964  0.1789  0.0030
   24SAPC    HA 3134   5.001   5.982  10.984 -0.3911 -0.5280 -0.3519
   24SAPC    HB 3135   4.932   6.076  10.862 -0.6424 -0.9541 -1.5350
   24SAPC    C2 3136   5.098   5.960  10.784 -1.0209 -0.0652  0.6857
   24SAPC    HS 3137   5.177   5.896  10.828 -0.5034 -0.5465 -0.9264
   24SAPC   O21 3138   5.150   6.048  10.684  0.1106  0.2379 -0.1214
   24SAPC   C21 3139   5.280   6.041  10.654 -0.3927 -0.0790 -0.4240
   24SAPC   O22 3140   5.363   5.984  10.725 -0.2875 -0.1324  0.7024
   24SAPC   C22 3141   5.307   6.134  10.535 -0.0872 -0.3335 -0.3747
   24SAPC   H2R 3142   5.220   6.197  10.507 -1.5179 -1.5750  1.1963
   24SAPC   H2S 3143   5.390   6.202  10.564 -0.4112  1.7235 -3.8783
   24SAPC    C3 3144   4.993   5.874  10.719 -0.0275  0.4744 -0.0698
   24SAPC    HX 3145   4.925   5.931  10.653 -0.8855  0.2877  0.6490
   24SAPC    HY 3146   4.943   5.825  10.806  1.2487  1.6122  1.3312
   24SAPC   O31 3147   5.051   5.779  10.628  0.5181  0.0939 -0.3665
   24SAPC   C31 3148   5.091   5.665  10.689 -0.7911  0.5569 -0.4273
   24SAPC   O32 3149   5.079   5.639  10.810  0.4678 -0.4083  0.3021
   24SAPC   C32 3150   5.152   5.578  10.583 -0.0880 -0.0465 -0.2391
   24SAPC   H2X 3151   5.251   5.622  10.558 -1.4194  2.6518 -0.8233
   24SAPC   H2Y 3152   5.084   5.583  10.496  0.9229 -2.6355 -1.2497
   24SAPC   C23 3153   5.343   6.053  10.417 -0.1439  0.0949  0.3505
   24SAPC   H3R 3154   5.440   6.001  10.430 -1.7163 -2.8603  0.7875
   24SAPC   H3S 3155   5.353   6.123  10.331 -2.8666 -0.1882 -0.2397
   24SAPC   C24 3156   5.239   5.941  10.381  0.4210  0.3340 -0.1557
   24SAPC   H4R 3157   5.237   5.861  10.458  0.8621 -0.6860 -1.1853
   24SAPC   H4S 3158   5.276   5.881  10.296  0.4605 -1.5444  1.1554
   24SAPC   C25 3159   5.095   5.986  10.362  0.1554 -0.0676 -0.2533
   24SAPC   H5R 3160   5.053   6.044  10.445  0.7407 -0.9160  0.6459
   24SAPC   C26 3161   5.013   5.964  10.257  0.7928 -0.1088  0.1395
   24SAPC   H6R 3162   4.911   6.001  10.275  0.6217 -1.2527  1.6566
   24SAPC   C27 3163   5.039   5.887  10.133 -0.0593  0.1030 -0.0638
   24SAPC   H7R 3164   5.149   5.869  10.131 -0.0367  0.0575  1.1410
   24SAPC   H7S 3165   5.006   5.956  10.052 -1.8099  0.5095  0.9748
   24SAPC   C28 3166   4.967   5.757  10.140 -0.5792  0.5216 -0.3836
   24SAPC   H8R 3167   4.989   5.701  10.232 -0.4501  0.8774 -0.1961
   24SAPC   C29 3168   4.880   5.710  10.050  0.7909  0.4416 -0.0355
   24SAPC   H9R 3169   4.841   5.608  10.061  1.0879  0.3647  0.3189
   24SAPC  C210 3170   4.833   5.765   9.920 -0.3568  0.4339  0.0824
   24SAPC  H10R 3171   4.798   5.870   9.927 -0.1628  0.5267 -0.3513
   24SAPC  H10S 3172   4.741   5.713   9.884  0.7851 -0.3962 -1.6904
   24SAPC  C211 3173   4.934   5.766   9.810  0.1183  0.1194 -0.1201
   24SAPC  H11R 3174   5.039   5.776   9.843  0.5903  1.1973 -1.8685
   24SAPC  C212 3175   4.924   5.721   9.684 -0.6050  0.1588 -0.1274
   24SAPC  H12R 3176   5.014   5.711   9.623  0.2556  0.3285  1.0893
   24SAPC  C213 3177   4.797   5.658   9.628 -0.0822 -0.6833  0.3564
   24SAPC  H13R 3178   4.714   5.694   9.692  0.7751 -0.7566  1.5229
   24SAPC  H13S 3179   4.806   5.548   9.616  1.7584 -0.6288  1.1112
   24SAPC  C214 3180   4.768   5.696   9.484  0.0950  0.2349  0.3965
   24SAPC  H14R 3181   4.832   5.651   9.407 -0.9587  1.3455 -1.1707
   24SAPC  C215 3182   4.671   5.785   9.440  0.2801 -0.3002  0.3753
   24SAPC  H15R 3183   4.651   5.803   9.333  2.0172 -0.1913  0.0598
   24SAPC  C216 3184   4.571   5.852   9.524  0.0510  0.1406 -0.1048
   24SAPC  H16R 3185   4.564   5.814   9.629  1.2619 -0.8725 -0.3861
   24SAPC  H16S 3186   4.472   5.825   9.481 -0.5380 -0.5008  1.5828
   24SAPC  C217 3187   4.577   6.009   9.531 -0.4845  0.0135 -0.2188
   24SAPC  H17R 3188   4.591   6.049   9.428 -0.3657 -1.1305 -0.6547
   24SAPC  H17S 3189   4.665   6.045   9.588 -2.8976  1.0953  2.9625
   24SAPC  C218 3190   4.461   6.078   9.596 -0.6288  0.4196 -0.5087
   24SAPC  H18R 3191   4.438   6.033   9.695  0.5685  0.5257 -0.1738
   24SAPC  H18S 3192   4.377   6.070   9.525 -0.2244 -1.1375 -0.8272
   24SAPC  C219 3193   4.484   6.223   9.621  0.2366  0.5075  0.2015
   24SAPC  H19R 3194   4.531   6.272   9.533  0.1308  0.0140 -0.1304
   24SAPC  H19S 3195   4.567   6.229   9.695  2.8332 -2.8863 -2.2880
   24SAPC  C220 3196   4.358   6.306   9.641 -0.3254  0.6227 -0.3226
   24SAPC  H20R 3197   4.394   6.404   9.679 -1.1805  0.9369 -0.3195
   24SAPC  H20S 3198   4.294   6.247   9.710  0.8576  0.0381  0.2852
   24SAPC  H20T 3199   4.304   6.311   9.544  1.6730  4.3057 -1.3611
   24SAPC   C33 3200   5.184   5.439  10.631  0.2260 -0.1085 -0.2944
   24SAPC   H3X 3201   5.091   5.408  10.684 -0.6827 -1.0170 -2.3200
   24SAPC   H3Y 3202   5.257   5.444  10.713 -1.0946  2.4871  0.7773
   24SAPC   C34 3203   5.216   5.326  10.533 -0.3136  0.3265 -0.1491
   24SAPC   H4X 3204   5.220   5.236  10.598  0.1319 -0.4069 -1.1754
   24SAPC   H4Y 3205   5.318   5.350  10.498  0.7612 -2.5245  0.8839
   24SAPC   C35 3206   5.106   5.303  10.430  0.4869  0.5266 -0.7599
   24SAPC   H5X 3207   5.006   5.318  10.475 -0.2159 -3.4071 -0.8091
   24SAPC   H5Y 3208   5.104   5.194  10.406 -2.7749  0.3021  0.3322
   24SAPC   C36 3209   5.140   5.375  10.294  0.0046  0.6425 -0.0643
   24SAPC   H6X 3210   5.239   5.348  10.252 -0.0579 -2.4895  1.6692
   24SAPC   H6Y 3211   5.150   5.483  10.317 -0.7725  0.9929 -1.2749
   24SAPC   C37 3212   5.020   5.337  10.211  0.4358  0.3859 -0.0530
   24SAPC   H7X 3213   4.927   5.389  10.242 -1.1825 -3.0393  1.1166
   24SAPC   H7Y 3214   5.003   5.228  10.218  0.7207  0.4730  3.1036
   24SAPC   C38 3215   5.035   5.375  10.062 -0.0706  0.2697  0.1298
   24SAPC   H8X 3216   5.092   5.470  10.071  1.1132 -0.4692  0.5303
   24SAPC   H8Y 3217   4.942   5.408  10.011 -1.3946  0.5280  2.6639
   24SAPC   C39 3218   5.125   5.277   9.990 -0.1936 -0.0382  0.0669
   24SAPC   H9X 3219   5.082   5.178  10.016  1.1540 -1.5956 -3.3274
   24SAPC   H9Y 3220   5.228   5.270  10.033 -1.2819 -2.1177  2.5147
   24SAPC  C310 3221   5.133   5.300   9.840  0.1525 -0.3180  0.5415
   24SAPC  H10X 3222   5.032   5.278   9.800  1.0895 -0.3181 -1.9244
   24SAPC  H10Y 3223   5.213   5.233   9.802 -0.7042 -0.1068 -1.7211
   24SAPC  C311 3224   5.178   5.446   9.802 -0.1046 -0.2788 -0.1950
   24SAPC  H11X 3225   5.263   5.467   9.870  0.6673 -1.0673 -0.8922
   24SAPC  H11Y 3226   5.106   5.528   9.822 -1.8647 -1.5377 -1.2843
   24SAPC  C312 3227   5.228   5.463   9.660 -0.0319  0.1306  0.4264
   24SAPC  H12X 3228   5.313   5.393   9.646  0.4386  1.2093 -2.4053
   24SAPC  H12Y 3229   5.264   5.567   9.653 -0.9503  0.4380  0.1249
   24SAPC  C313 3230   5.132   5.431   9.546 -0.2348 -0.4132  0.4582
   24SAPC  H13X 3231   5.051   5.508   9.545  0.4404  0.3055 -1.2645
   24SAPC  H13Y 3232   5.078   5.337   9.570  0.4824 -1.0534 -0.4041
   24SAPC  C314 3233   5.196   5.422   9.405 -0.7975 -0.1433  0.2187
   24SAPC  H14X 3234   5.266   5.337   9.400 -0.3051  0.3569 -1.9093
   24SAPC  H14Y 3235   5.245   5.520   9.385 -0.2490 -0.3656  0.4940
   24SAPC  C315 3236   5.106   5.400   9.288 -0.7905  0.2566  0.5376
   24SAPC  H15X 3237   5.047   5.490   9.263 -0.1021  0.6209  0.2125
   24SAPC  H15Y 3238   5.036   5.318   9.313  0.8820 -0.7417  2.0866
   24SAPC  C316 3239   5.173   5.356   9.155  0.6713 -0.8735 -0.5219
   24SAPC  H16X 3240   5.207   5.255   9.187 -0.7068 -1.0711  0.3866
   24SAPC  H16Y 3241   5.251   5.426   9.117  0.8150 -1.6673 -1.7037
   24SAPC  C317 3242   5.075   5.321   9.045  0.3100  0.2826 -0.3455
   24SAPC  H17X 3243   5.021   5.415   9.020  1.2207  0.4382 -1.8319
   24SAPC  H17Y 3244   5.007   5.238   9.073 -0.3489  0.5667 -1.0852
   24SAPC  C318 3245   5.141   5.265   8.919 -0.7585 -0.4784  0.2446
   24SAPC  H18X 3246   5.219   5.341   8.894 -0.5013 -0.9027 -0.2401
   24SAPC  H18Y 3247   5.069   5.246   8.836 -0.3257  0.8117 -0.4514
   24SAPC  H18Z 3248   5.196   5.173   8.948 -2.0806 -1.5855 -0.7005
   25SAPC     N 3249   1.853   3.488   5.987 -0.2302  0.2491  0.1210
   25SAPC   C12 3250   1.704   3.463   6.020 -0.1454  0.5463 -0.6630
   25SAPC  H12A 3251   1.660   3.376   5.974  1.5154 -1.1665  0.9169
   25SAPC  H12B 3252   1.646   3.547   5.985  1.1360  0.0932 -4.0256
   25SAPC   C13 3253   1.936   3.363   5.985 -0.3434 -0.5848  0.2466
   25SAPC  H13A 3254   2.040   3.384   5.961 -1.3217  0.6258 -3.3673
   25SAPC  H13B 3255   1.923   3.318   6.082 -1.4408  1.1797  0.9287
   25SAPC  H13C 3256   1.907   3.300   5.902 -0.5292 -0.6572  0.3669
   25SAPC   C14 3257   1.864   3.553   5.857 -0.1931 -0.0081 -0.9445
   25SAPC  H14A 3258   1.848   3.487   5.773 -0.3292 -1.4299  0.1892
   25SAPC  H14B 3259   1.794   3.634   5.842  0.1841  0.5192  0.1039
   25SAPC  H14C 3260   1.962   3.594   5.834  0.2081 -0.9015 -0.8612
   25SAPC   C15 3261   1.911   3.586   6.092 -0.0785 -0.6634 -0.8480
   25SAPC  H15A 3262   2.009   3.612   6.055  0.4724 -0.3033  0.8180
   25SAPC  H15B 3263   1.851   3.676   6.099 -1.9021 -1.9111  0.2763
   25SAPC  H15C 3264   1.928   3.546   6.191  2.3911  0.4578 -0.7971
   25SAPC   C11 3265   1.668   3.442   6.176 -0.8351  0.4573  0.1482
   25SAPC  H11A 3266   1.690   3.537   6.228 -1.0347  1.3227 -1.3467
   25SAPC  H11B 3267   1.732   3.363   6.222 -1.2029  0.0628 -0.0117
   25SAPC     P 3268   1.417   3.506   6.185  0.1885  0.3080  0.3897
   25SAPC   O13 3269   1.467   3.611   6.096  0.3412  0.7243  0.1631
   25SAPC   O14 3270   1.285   3.448   6.149  0.1778  0.2938  0.1445
   25SAPC   O12 3271   1.529   3.393   6.191 -0.4241 -0.0148  0.1285
   25SAPC   O11 3272   1.410   3.573   6.327  0.1886  0.3029  0.2146
   25SAPC    C1 3273   1.388   3.490   6.444  1.1658 -0.1439 -0.8550
   25SAPC    HA 3274   1.328   3.551   6.516  0.5119 -0.9941 -0.6725
   25SAPC    HB 3275   1.335   3.396   6.421  0.6084 -0.1767  0.4987
   25SAPC    C2 3276   1.523   3.478   6.519  0.3345 -0.2042 -0.5989
   25SAPC    HS 3277   1.586   3.433   6.439  1.1078 -1.3154  0.6183
   25SAPC   O21 3278   1.498   3.393   6.629 -0.3605 -0.7173 -0.2879
   25SAPC   C21 3279   1.596   3.307   6.662 -0.2308 -0.1078 -0.5074
   25SAPC   O22 3280   1.703   3.296   6.603 -0.6069 -0.0444 -0.6335
   25SAPC   C22 3281   1.549   3.221   6.783 -0.2616 -0.3765 -0.5184
   25SAPC   H2R 3282   1.455   3.264   6.822 -0.0323 -1.2624  1.0580
   25SAPC   H2S 3283   1.521   3.120   6.745 -2.6805 -0.2688  0.9226
   25SAPC    C3 3284   1.584   3.612   6.573  0.3172  0.4125  1.3101
   25SAPC    HX 3285   1.494   3.664   6.613 -0.6754  0.8823 -1.4406
   25SAPC    HY 3286   1.615   3.677   6.489 -0.0772 -0.5349  0.4263
   25SAPC   O31 3287   1.689   3.587   6.672 -0.6635 -0.7603  0.6002
   25SAPC   C31 3288   1.716   3.706   6.734 -0.1870  0.2834 -0.4324
   25SAPC   O32 3289   1.646   3.804   6.718 -0.1654 -0.4280 -0.2064
   25SAPC   C32 3290   1.834   3.700   6.819  0.3173  0.4908  0.7306
   25SAPC   H2X 3291   1.850   3.801   6.861 -2.5285  0.6114  1.6754
   25SAPC   H2Y 3292   1.923   3.663   6.765  0.2055  0.6510  0.4375
   25SAPC   C23 3293   1.659   3.221   6.884 -0.1981 -0.4325  0.2654
   25SAPC   H3R 3294   1.684   3.324   6.918  0.8998 -1.1832  1.7922
   25SAPC   H3S 3295   1.753   3.185   6.837 -0.3470 -1.6318  0.8577
   25SAPC   C24 3296   1.624   3.141   7.012 -0.1595  0.2013 -0.9928
   25SAPC   H4R 3297   1.580   3.045   6.979 -1.3284  0.1455  0.6518
   25SAPC   H4S 3298   1.533   3.189   7.054 -0.5750 -1.6493  0.3116
   25SAPC   C25 3299   1.734   3.132   7.119 -0.1151  0.3031  0.2070
   25SAPC   H5R 3300   1.803   3.218   7.113  1.9256 -1.3054  0.1244
   25SAPC   C26 3301   1.738   3.035   7.215  0.1314 -0.6969  0.0253
   25SAPC   H6R 3302   1.822   3.038   7.286 -0.1399  1.6169  0.3037
   25SAPC   C27 3303   1.646   2.920   7.223  0.1618 -0.4713 -0.6185
   25SAPC   H7R 3304   1.611   2.893   7.122 -1.6967 -0.1706 -0.0653
   25SAPC   H7S 3305   1.560   2.947   7.288  0.7219  0.5518 -0.2746
   25SAPC   C28 3306   1.716   2.797   7.273 -0.3353  0.0787  0.1664
   25SAPC   H8R 3307   1.758   2.743   7.187  1.2932  0.6624  0.5719
   25SAPC   C29 3308   1.737   2.759   7.402 -0.4349 -0.1838  0.0369
   25SAPC   H9R 3309   1.790   2.664   7.420 -0.1431 -0.3177 -1.4297
   25SAPC  C210 3310   1.680   2.830   7.522 -0.3378  0.2200  0.4097
   25SAPC  H10R 3311   1.571   2.826   7.504 -0.9320 -2.2071  3.9916
   25SAPC  H10S 3312   1.685   2.941   7.525 -1.3631  0.2714  0.2401
   25SAPC  C211 3313   1.710   2.771   7.650  0.9444  0.1577  0.0809
   25SAPC  H11R 3314   1.817   2.759   7.670  0.9872  1.2360  0.4865
   25SAPC  C212 3315   1.621   2.744   7.747 -0.6278  1.1156 -0.0216
   25SAPC  H12R 3316   1.661   2.707   7.843 -2.6447  1.6189  1.0406
   25SAPC  C213 3317   1.474   2.775   7.749 -0.9702  0.2067  0.3815
   25SAPC  H13R 3318   1.434   2.739   7.846  1.6214  0.4890  1.6066
   25SAPC  H13S 3319   1.431   2.719   7.663 -3.8208 -0.6261  2.2958
   25SAPC  C214 3320   1.444   2.922   7.745  0.6033  0.0974  0.6884
   25SAPC  H14R 3321   1.421   2.967   7.647  1.3359 -0.4417  0.2619
   25SAPC  C215 3322   1.456   3.008   7.846 -0.2826 -0.0411 -0.3134
   25SAPC  H15R 3323   1.427   3.113   7.832  0.1524  0.3068  1.2571
   25SAPC  C216 3324   1.512   2.975   7.987 -0.2883  0.0005  0.3655
   25SAPC  H16R 3325   1.582   3.051   8.028  0.8940 -0.2582 -1.0983
   25SAPC  H16S 3326   1.560   2.874   7.982 -0.6909 -0.1314 -0.9618
   25SAPC  C217 3327   1.390   2.956   8.090  0.0105 -0.4003  0.8580
   25SAPC  H17R 3328   1.295   2.916   8.048 -0.2498  0.6687  0.4247
   25SAPC  H17S 3329   1.352   3.056   8.123 -0.6341 -0.8212  1.4200
   25SAPC  C218 3330   1.428   2.858   8.195 -0.5936 -0.0835  0.3645
   25SAPC  H18R 3331   1.513   2.901   8.253  0.5196 -0.8459 -0.6876
   25SAPC  H18S 3332   1.474   2.764   8.159  1.3243  0.6953  0.7156
   25SAPC  C219 3333   1.319   2.823   8.299  0.6312 -0.4972 -0.4557
   25SAPC  H19R 3334   1.258   2.914   8.319 -1.0818 -1.4963 -1.0106
   25SAPC  H19S 3335   1.363   2.787   8.395 -2.9675  0.0728  1.5153
   25SAPC  C220 3336   1.224   2.712   8.256  0.1726 -0.2693  0.4676
   25SAPC  H20R 3337   1.276   2.615   8.242  0.2209  0.0071 -1.2794
   25SAPC  H20S 3338   1.188   2.740   8.155 -0.1176  1.0201  0.9067
   25SAPC  H20T 3339   1.146   2.689   8.333 -0.2376  0.2647  0.2165
   25SAPC   C33 3340   1.801   3.604   6.939 -0.2071 -0.0844 -0.4789
   25SAPC   H3X 3341   1.815   3.495   6.922  0.5769  0.1285 -1.1654
   25SAPC   H3Y 3342   1.697   3.624   6.974  0.1127  0.6262  0.0974
   25SAPC   C34 3343   1.898   3.637   7.064  0.1270 -0.0419 -0.4680
   25SAPC   H4X 3344   1.867   3.736   7.103  1.0086  0.3847 -0.8467
   25SAPC   H4Y 3345   2.002   3.637   7.025  0.2917  0.0107 -0.0419
   25SAPC   C35 3346   1.891   3.534   7.164  0.9200 -0.4423  0.0912
   25SAPC   H5X 3347   1.940   3.561   7.260  1.4771  1.4613 -0.6955
   25SAPC   H5Y 3348   1.936   3.439   7.129  0.7211 -0.7417  0.6396
   25SAPC   C36 3349   1.749   3.503   7.218 -0.7231  0.1918 -0.0085
   25SAPC   H6X 3350   1.775   3.431   7.298  1.5073 -1.1717 -1.8756
   25SAPC   H6Y 3351   1.688   3.457   7.137 -1.4662  0.4034  0.4308
   25SAPC   C37 3352   1.659   3.618   7.269  0.0740 -0.0339  0.0661
   25SAPC   H7X 3353   1.632   3.677   7.179  2.9954  0.1253 -0.7356
   25SAPC   H7Y 3354   1.719   3.689   7.329  1.2171  0.1342 -1.2666
   25SAPC   C38 3355   1.530   3.564   7.339  0.3639  0.7440 -0.0423
   25SAPC   H8X 3356   1.500   3.471   7.285  1.2283  0.6304 -0.3361
   25SAPC   H8Y 3357   1.443   3.633   7.338 -1.7635 -1.7986  1.4103
   25SAPC   C39 3358   1.549   3.512   7.483 -0.4287 -0.0918  0.1267
   25SAPC   H9X 3359   1.626   3.575   7.531  0.4059 -0.7767 -0.3060
   25SAPC   H9Y 3360   1.584   3.407   7.478 -0.0299 -0.0126  1.1006
   25SAPC  C310 3361   1.421   3.513   7.579  0.0517 -0.1436 -0.3578
   25SAPC  H10X 3362   1.352   3.429   7.556 -0.5526  0.7158 -1.7902
   25SAPC  H10Y 3363   1.368   3.609   7.559 -1.0409 -0.9389 -1.3884
   25SAPC  C311 3364   1.461   3.522   7.723 -0.2319  0.2989 -0.0552
   25SAPC  H11X 3365   1.561   3.570   7.730 -1.2565  2.9181 -2.4590
   25SAPC  H11Y 3366   1.471   3.415   7.749  0.1774  0.3499  0.0017
   25SAPC  C312 3367   1.367   3.605   7.802 -0.6065 -0.5874  0.3179
   25SAPC  H12X 3368   1.265   3.584   7.763 -0.4575  0.2937 -0.5474
   25SAPC  H12Y 3369   1.390   3.709   7.772  0.0272 -0.6191  0.6861
   25SAPC  C313 3370   1.377   3.594   7.950 -0.9977  0.3253 -0.2806
   25SAPC  H13X 3371   1.466   3.632   8.004  0.3820 -2.8848 -0.2376
   25SAPC  H13Y 3372   1.359   3.494   7.995  0.5937  0.7131  1.2866
   25SAPC  C314 3373   1.279   3.699   8.019 -0.3634  0.0053  0.3946
   25SAPC  H14X 3374   1.177   3.680   7.978 -0.7402 -0.2969  1.4476
   25SAPC  H14Y 3375   1.303   3.805   7.997 -0.3327 -0.3008 -1.1080
   25SAPC  C315 3376   1.276   3.679   8.173  0.5916 -0.4603 -0.5179
   25SAPC  H15X 3377   1.379   3.701   8.210  0.8671 -1.1279 -0.8765
   25SAPC  H15Y 3378   1.257   3.571   8.189  0.6510 -0.2856  0.7885
   25SAPC  C316 3379   1.169   3.766   8.241 -0.6451 -0.1977  0.2625
   25SAPC  H16X 3380   1.079   3.750   8.177  1.1476  0.1026 -2.4298
   25SAPC  H16Y 3381   1.215   3.862   8.207 -1.4925 -0.8542 -2.9492
   25SAPC  C317 3382   1.148   3.765   8.400  0.2331 -0.8086 -0.4323
   25SAPC  H17X 3383   1.054   3.821   8.418 -0.7687 -2.7875  0.6416
   25SAPC  H17Y 3384   1.234   3.818   8.447 -0.7230 -2.0921  2.9137
   25SAPC  C318 3385   1.125   3.625   8.458 -0.0979  0.1599  0.0383
   25SAPC  H18X 3386   1.129   3.611   8.568  1.8066 -0.8050 -0.1442
   25SAPC  H18Y 3387   1.212   3.566   8.423 -0.0907  0.8927 -1.2268
   25SAPC  H18Z 3388   1.028   3.589   8.417  0.8890 -2.6284  0.0406
   26SAPC     N 3389   0.890   4.923   5.984  0.2409 -0.0377 -0.2591
   26SAPC   C12 3390   0.948   4.954   6.122 -0.0602 -0.4837  1.1388
   26SAPC  H12A 3391   1.037   4.893   6.127  0.3938 -0.1429 -1.9431
   26SAPC  H12B 3392   0.870   4.913   6.184  0.6988 -0.5733  2.0336
   26SAPC   C13 3393   0.750   4.976   5.977 -0.0935 -0.2254  0.5729
   26SAPC  H13A 3394   0.677   4.941   6.049 -0.9300  1.4914  0.6054
   26SAPC  H13B 3395   0.761   5.077   6.014 -1.3416 -0.8587  2.7297
   26SAPC  H13C 3396   0.717   4.983   5.874 -1.1967  2.6759  1.0600
   26SAPC   C14 3397   0.974   4.995   5.883  0.1840  0.4595  0.8118
   26SAPC  H14A 3398   1.073   4.954   5.869 -0.0953 -0.1202  0.5053
   26SAPC  H14B 3399   0.910   4.994   5.796  0.0112  1.5297  0.9203
   26SAPC  H14C 3400   0.980   5.095   5.922  4.9360  0.1030  1.2797
   26SAPC   C15 3401   0.878   4.778   5.951  1.5173  0.3483  0.9770
   26SAPC  H15A 3402   0.851   4.766   5.847 -1.2046  1.4519  1.5297
   26SAPC  H15B 3403   0.968   4.723   5.975  0.7366 -1.3548  0.1255
   26SAPC  H15C 3404   0.789   4.738   5.999  0.7689 -0.4728 -1.0402
   26SAPC   C11 3405   0.971   5.100   6.156  0.4119 -0.3542 -0.1574
   26SAPC  H11A 3406   1.029   5.152   6.077  2.0956 -0.8376  0.7321
   26SAPC  H11B 3407   1.036   5.107   6.246 -1.5111  0.7207  1.1808
   26SAPC     P 3408   0.766   5.159   6.302 -0.3987 -0.1410 -0.3979
   26SAPC   O13 3409   0.641   5.235   6.291  0.0611  0.9894  0.2974
   26SAPC   O14 3410   0.764   5.023   6.352  0.0971  0.3741  0.0019
   26SAPC   O12 3411   0.844   5.165   6.169 -0.3521 -0.1512 -0.6321
   26SAPC   O11 3412   0.855   5.233   6.413  0.1170  0.2087  0.1439
   26SAPC    C1 3413   0.897   5.372   6.378 -0.1789 -0.4035  0.0352
   26SAPC    HA 3414   0.944   5.375   6.277  1.5643 -0.3045  0.8279
   26SAPC    HB 3415   0.813   5.442   6.396 -0.1645 -0.3104 -0.2544
   26SAPC    C2 3416   1.007   5.436   6.476  0.5378  0.8510 -0.1262
   26SAPC    HS 3417   1.105   5.387   6.457  0.7428 -0.0837  3.1698
   26SAPC   O21 3418   0.959   5.425   6.613 -0.1176  0.1903  0.7434
   26SAPC   C21 3419   1.052   5.443   6.702  0.1422  0.5937  0.9002
   26SAPC   O22 3420   1.174   5.446   6.683 -0.1999 -0.0563  0.2192
   26SAPC   C22 3421   0.986   5.456   6.840 -0.0490 -0.0183 -0.0897
   26SAPC   H2R 3422   0.955   5.561   6.861 -1.6158 -0.7259  1.2598
   26SAPC   H2S 3423   0.895   5.391   6.845  0.4242 -0.5227  2.2513
   26SAPC    C3 3424   1.023   5.590   6.444  0.4860 -0.2294 -0.7085
   26SAPC    HX 3425   1.057   5.601   6.339  0.6827  0.4694 -0.5723
   26SAPC    HY 3426   1.109   5.622   6.508 -0.4533 -1.2494  1.1241
   26SAPC   O31 3427   0.903   5.665   6.454  0.5431  0.2231 -0.2823
   26SAPC   C31 3428   0.881   5.715   6.575  0.6197  0.3181 -0.2673
   26SAPC   O32 3429   0.953   5.706   6.671  0.4898 -0.7029  0.5096
   26SAPC   C32 3430   0.754   5.788   6.570 -0.1081 -0.2293  0.3080
   26SAPC   H2X 3431   0.696   5.746   6.484 -0.5223  1.0389 -0.0377
   26SAPC   H2Y 3432   0.780   5.894   6.554 -0.4449  0.1387  2.1321
   26SAPC   C23 3433   1.076   5.424   6.960 -0.3578  0.2589 -0.4582
   26SAPC   H3R 3434   1.161   5.495   6.945  1.1910 -1.3735  0.5128
   26SAPC   H3S 3435   1.121   5.323   6.948  0.2809  0.5676 -0.7078
   26SAPC   C24 3436   1.017   5.462   7.093  0.2311  0.7634  0.9490
   26SAPC   H4R 3437   0.968   5.561   7.084  1.8815  1.3849 -1.5575
   26SAPC   H4S 3438   1.101   5.482   7.162  0.2464  0.0859  1.1332
   26SAPC   C25 3439   0.932   5.353   7.156  0.2495 -0.1184 -0.0119
   26SAPC   H5R 3440   0.858   5.307   7.088 -1.1710  2.0516  0.0173
   26SAPC   C26 3441   0.925   5.332   7.288  0.3855 -1.0266 -0.3540
   26SAPC   H6R 3442   0.865   5.245   7.320  2.2036 -1.4955  1.9486
   26SAPC   C27 3443   0.993   5.418   7.395  0.0927  0.0082  0.2524
   26SAPC   H7R 3444   1.017   5.521   7.360  1.5753 -0.1832  0.6815
   26SAPC   H7S 3445   1.094   5.376   7.416  1.1362  2.9418  1.3585
   26SAPC   C28 3446   0.928   5.439   7.532  0.5626 -0.1506  0.2108
   26SAPC   H8R 3447   0.838   5.502   7.529 -0.4806 -1.6154  0.0794
   26SAPC   C29 3448   0.955   5.380   7.650  1.0906  0.1770  0.3713
   26SAPC   H9R 3449   0.904   5.408   7.744  2.4632 -0.1817  1.2369
   26SAPC  C210 3450   1.067   5.282   7.672 -0.5412 -0.1516 -0.2300
   26SAPC  H10R 3451   1.154   5.298   7.605 -1.7816  4.4246 -0.9628
   26SAPC  H10S 3452   1.031   5.179   7.652 -0.1636 -0.1376 -1.0178
   26SAPC  C211 3453   1.118   5.280   7.809 -1.0648 -0.2137  0.0282
   26SAPC  H11R 3454   1.057   5.337   7.881  2.4568  1.8692  1.4760
   26SAPC  C212 3455   1.226   5.211   7.860 -0.2971 -0.0906 -0.5838
   26SAPC  H12R 3456   1.244   5.207   7.969  1.1325 -2.0173 -0.8619
   26SAPC  C213 3457   1.326   5.135   7.786  0.2957 -0.4272 -0.2121
   26SAPC  H13R 3458   1.428   5.157   7.824  1.1418 -1.7234 -1.6957
   26SAPC  H13S 3459   1.321   5.163   7.678  1.4499 -3.4279 -1.0738
   26SAPC  C214 3460   1.305   4.985   7.787  0.3628 -0.0043 -0.1436
   26SAPC  H14R 3461   1.221   4.943   7.844  2.2897 -2.7350  0.7649
   26SAPC  C215 3462   1.393   4.897   7.736 -0.4917 -0.0109 -0.1886
   26SAPC  H15R 3463   1.363   4.791   7.735 -0.0113 -0.2700  4.5191
   26SAPC  C216 3464   1.519   4.933   7.663 -0.6938  0.6912  0.1723
   26SAPC  H16R 3465   1.603   4.866   7.694  0.4694  1.5684 -1.0580
   26SAPC  H16S 3466   1.560   5.034   7.685 -1.3291  1.4359 -2.0184
   26SAPC  C217 3467   1.518   4.925   7.510 -1.2823  0.0005 -0.0849
   26SAPC  H17R 3468   1.490   4.819   7.490  0.7970 -0.9432  1.7297
   26SAPC  H17S 3469   1.619   4.935   7.464 -0.3246 -1.8596  1.5222
   26SAPC  C218 3470   1.420   5.002   7.440  0.2956 -0.1334 -0.1510
   26SAPC  H18R 3471   1.458   5.106   7.449 -2.5072  0.9875 -0.9357
   26SAPC  H18S 3472   1.315   5.008   7.475  0.0774 -0.9688 -0.6518
   26SAPC  C219 3473   1.406   4.968   7.295 -0.3273  0.5235 -0.0920
   26SAPC  H19R 3474   1.349   4.872   7.297 -1.6709  1.3019 -0.3664
   26SAPC  H19S 3475   1.506   4.957   7.248 -0.6452 -0.9417 -0.4618
   26SAPC  C220 3476   1.318   5.064   7.217 -0.2122  0.1351  0.5331
   26SAPC  H20R 3477   1.211   5.056   7.246 -0.3500 -1.5006 -0.3609
   26SAPC  H20S 3478   1.325   5.047   7.107 -1.2552  1.4072  0.2490
   26SAPC  H20T 3479   1.353   5.168   7.232 -0.6613  0.3124  0.3781
   26SAPC   C33 3480   0.673   5.778   6.698  0.2853  0.8849 -0.3310
   26SAPC   H3X 3481   0.588   5.850   6.693 -0.7465 -0.2595  0.4876
   26SAPC   H3Y 3482   0.725   5.816   6.788 -0.3290  3.1159 -0.8675
   26SAPC   C34 3483   0.632   5.635   6.715  0.2010 -0.4915 -0.2727
   26SAPC   H4X 3484   0.718   5.570   6.743  1.7092  0.9857 -1.3326
   26SAPC   H4Y 3485   0.592   5.594   6.620 -0.8753 -0.1127  0.0066
   26SAPC   C35 3486   0.522   5.623   6.829 -0.1908  0.2260 -0.4703
   26SAPC   H5X 3487   0.481   5.520   6.840  1.6275 -0.9279 -3.7685
   26SAPC   H5Y 3488   0.446   5.697   6.798 -0.3988 -0.6828 -2.1900
   26SAPC   C36 3489   0.586   5.667   6.967 -0.0760  0.2087 -0.0613
   26SAPC   H6X 3490   0.607   5.776   6.962  1.0008  0.2160  3.1789
   26SAPC   H6Y 3491   0.686   5.619   6.970 -0.2473 -0.1462  0.0093
   26SAPC   C37 3492   0.500   5.636   7.089  0.2796 -0.3917 -0.9162
   26SAPC   H7X 3493   0.483   5.527   7.096  3.8871 -1.2075 -3.5879
   26SAPC   H7Y 3494   0.409   5.695   7.064 -1.7146 -2.8278  0.3685
   26SAPC   C38 3495   0.568   5.695   7.219 -0.2988  0.3264 -0.0991
   26SAPC   H8X 3496   0.591   5.804   7.207  1.1437  0.0337 -0.1042
   26SAPC   H8Y 3497   0.664   5.645   7.246 -0.6525 -1.0377 -1.3670
   26SAPC   C39 3498   0.484   5.663   7.347  0.0538  0.4042 -1.0281
   26SAPC   H9X 3499   0.470   5.553   7.356  1.3904  0.2732 -0.4193
   26SAPC   H9Y 3500   0.385   5.713   7.340  0.9989  2.2190 -2.0307
   26SAPC  C310 3501   0.560   5.710   7.473 -0.6508 -0.4314 -0.4759
   26SAPC  H10X 3502   0.615   5.804   7.453  0.8303 -1.6438 -2.1795
   26SAPC  H10Y 3503   0.633   5.637   7.512 -1.2805  0.1527  1.8514
   26SAPC  C311 3504   0.459   5.734   7.589  0.1261 -0.2145  0.0200
   26SAPC  H11X 3505   0.396   5.644   7.608  0.4861 -0.7815 -1.3919
   26SAPC  H11Y 3506   0.382   5.810   7.567  0.2745 -0.2703 -0.7031
   26SAPC  C312 3507   0.528   5.767   7.730  0.1365 -0.3533 -0.6709
   26SAPC  H12X 3508   0.582   5.864   7.723  0.2923 -0.5060 -1.6293
   26SAPC  H12Y 3509   0.592   5.684   7.768 -0.9450 -0.2700  1.4497
   26SAPC  C313 3510   0.419   5.782   7.836  0.0692 -0.1486  0.0991
   26SAPC  H13X 3511   0.385   5.677   7.844 -1.0036  0.1122 -0.9895
   26SAPC  H13Y 3512   0.339   5.852   7.805  1.4540  2.5263  2.2485
   26SAPC  C314 3513   0.485   5.821   7.965 -0.0901 -0.4127 -0.3358
   26SAPC  H14X 3514   0.513   5.929   7.964 -1.1365 -0.1373 -0.6719
   26SAPC  H14Y 3515   0.581   5.770   7.990  1.9021  3.5504  0.5696
   26SAPC  C315 3516   0.405   5.795   8.092  0.5493  0.0089  0.9812
   26SAPC  H15X 3517   0.399   5.685   8.110  1.5762 -0.5822 -1.8922
   26SAPC  H15Y 3518   0.305   5.839   8.075  0.9962  0.7326  0.1987
   26SAPC  C316 3519   0.466   5.869   8.206  0.2390  0.2514  0.2721
   26SAPC  H16X 3520   0.390   5.861   8.285 -1.4425  0.3856 -1.2972
   26SAPC  H16Y 3521   0.482   5.975   8.173  0.5714  0.5148  1.2750
   26SAPC  C317 3522   0.600   5.821   8.268 -0.6949  0.9551  0.1232
   26SAPC  H17X 3523   0.686   5.814   8.199 -1.7427  1.9468 -1.3062
   26SAPC  H17Y 3524   0.582   5.716   8.298 -1.0249  1.4270  1.6476
   26SAPC  C318 3525   0.640   5.907   8.388 -0.4275 -0.4383  0.3970
   26SAPC  H18X 3526   0.551   5.903   8.454  0.8334  0.0178  2.1500
   26SAPC  H18Y 3527   0.665   6.012   8.362 -1.2173  0.0602  1.6130
   26SAPC  H18Z 3528   0.723   5.861   8.447 -1.9740 -1.4295  1.8331
   27SAPC     N 3529   4.988   5.723   6.667  0.1816 -0.6191 -0.0855
   27SAPC   C12 3530   5.088   5.750   6.790 -0.1598 -0.7793 -0.0652
   27SAPC  H12A 3531   5.186   5.725   6.753  0.2190  3.5662 -2.4036
   27SAPC  H12B 3532   5.069   5.683   6.872  1.1180  0.8321  1.5884
   27SAPC   C13 3533   5.015   5.595   6.602  0.4704 -0.5391 -0.6327
   27SAPC  H13A 3534   5.017   5.520   6.679  3.0673  0.1107 -0.0454
   27SAPC  H13B 3535   4.935   5.580   6.530 -0.6489 -0.6803  0.6262
   27SAPC  H13C 3536   5.106   5.586   6.545 -1.6554  1.2349 -4.5961
   27SAPC   C14 3537   4.841   5.719   6.709 -0.9133 -0.5264  0.0735
   27SAPC  H14A 3538   4.815   5.816   6.749 -0.8771 -0.5612  0.1810
   27SAPC  H14B 3539   4.779   5.707   6.622  2.6812 -0.3804 -2.6295
   27SAPC  H14C 3540   4.824   5.641   6.782  0.5204 -1.6122 -0.7054
   27SAPC   C15 3541   4.992   5.832   6.563  0.3553 -0.3672  0.2613
   27SAPC  H15A 3542   4.906   5.841   6.499 -0.3573 -0.2197  1.2355
   27SAPC  H15B 3543   5.005   5.924   6.618 -0.5539 -0.0803 -0.0005
   27SAPC  H15C 3544   5.073   5.812   6.494 -0.8839 -0.5129 -1.1734
   27SAPC   C11 3545   5.092   5.889   6.853 -0.2671 -0.1060 -0.0312
   27SAPC  H11A 3546   5.141   5.893   6.952  0.1678  0.8721 -0.2830
   27SAPC  H11B 3547   4.986   5.908   6.881 -0.8816 -1.5708 -1.2685
   27SAPC     P 3548   5.302   6.000   6.769  0.0277 -0.1673 -0.2529
   27SAPC   O13 3549   5.358   6.089   6.658  0.0267  0.2722  0.3431
   27SAPC   O14 3550   5.341   6.036   6.909  0.4304 -0.1318  0.0591
   27SAPC   O12 3551   5.142   5.999   6.770  0.2239  0.4058  0.2555
   27SAPC   O11 3552   5.352   5.854   6.736 -0.1122 -0.0839 -0.4385
   27SAPC    C1 3553   5.486   5.809   6.747  0.1944  0.8687  0.3283
   27SAPC    HA 3554   5.539   5.786   6.652 -0.6942 -0.8539  0.2300
   27SAPC    HB 3555   5.549   5.890   6.789  1.2116  0.5347 -0.5308
   27SAPC    C2 3556   5.499   5.688   6.837 -0.3754 -0.1427  0.2972
   27SAPC    HS 3557   5.422   5.613   6.810 -0.6192 -0.2195  1.1828
   27SAPC   O21 3558   5.494   5.746   6.968  0.2665  0.0237  0.3904
   27SAPC   C21 3559   5.383   5.711   7.039 -0.1414 -0.5489  0.4314
   27SAPC   O22 3560   5.292   5.652   6.983 -0.1574 -0.1295 -0.4545
   27SAPC   C22 3561   5.381   5.759   7.185  0.1739 -0.2423  0.3607
   27SAPC   H2R 3562   5.419   5.863   7.181  0.0476 -0.2164 -0.1943
   27SAPC   H2S 3563   5.279   5.758   7.231 -0.3985  2.9977 -0.7095
   27SAPC    C3 3564   5.633   5.628   6.822 -0.5356  0.2835  0.5838
   27SAPC    HX 3565   5.705   5.704   6.860  0.3632 -0.3680  0.2005
   27SAPC    HY 3566   5.649   5.606   6.714 -0.1469 -1.6896  1.0107
   27SAPC   O31 3567   5.640   5.508   6.906 -0.1156  0.2663 -0.0038
   27SAPC   C31 3568   5.756   5.462   6.924 -0.3304 -0.8170 -0.4405
   27SAPC   O32 3569   5.861   5.495   6.870  0.0739 -0.7919  0.6714
   27SAPC   C32 3570   5.748   5.377   7.056  0.3603 -0.2093  0.8233
   27SAPC   H2X 3571   5.673   5.298   7.035  0.0121 -0.3743  2.5823
   27SAPC   H2Y 3572   5.731   5.435   7.150  1.6668 -0.3958  1.1785
   27SAPC   C23 3573   5.476   5.674   7.272  0.3133  0.5735 -0.4078
   27SAPC   H3R 3574   5.484   5.710   7.376  0.3365  0.8222 -0.4934
   27SAPC   H3S 3575   5.577   5.682   7.227  0.6892  1.3693  0.5634
   27SAPC   C24 3576   5.450   5.520   7.258 -0.3116 -0.6899 -0.2428
   27SAPC   H4R 3577   5.513   5.469   7.334 -1.4569  0.2987  1.3957
   27SAPC   H4S 3578   5.487   5.478   7.162 -1.2206 -1.9564 -0.0451
   27SAPC   C25 3579   5.301   5.476   7.276  0.5754 -0.5183 -0.0433
   27SAPC   H5R 3580   5.241   5.433   7.194  0.5107 -1.1104  0.3175
   27SAPC   C26 3581   5.239   5.485   7.393  0.6002 -0.9990 -0.0798
   27SAPC   H6R 3582   5.136   5.446   7.386  0.9301 -2.1070  1.0353
   27SAPC   C27 3583   5.279   5.537   7.525  0.2411 -0.3591 -0.4750
   27SAPC   H7R 3584   5.184   5.560   7.578  0.1728  2.6098 -1.8306
   27SAPC   H7S 3585   5.336   5.632   7.528  0.5291 -0.5695  1.0081
   27SAPC   C28 3586   5.362   5.448   7.613  0.2280 -0.2904 -0.1972
   27SAPC   H8R 3587   5.436   5.388   7.559  0.0639  0.1968 -0.9676
   27SAPC   C29 3588   5.361   5.448   7.752 -0.6123  0.1775  0.3447
   27SAPC   H9R 3589   5.427   5.376   7.802 -1.1789 -0.4634  0.1719
   27SAPC  C210 3590   5.287   5.538   7.849 -0.5136  0.2390  0.0581
   27SAPC  H10R 3591   5.287   5.645   7.821 -1.8741  0.5687  1.2513
   27SAPC  H10S 3592   5.331   5.528   7.951  2.4140  0.5538 -1.1346
   27SAPC  C211 3593   5.147   5.485   7.858  0.3377 -0.0545  0.6757
   27SAPC  H11R 3594   5.084   5.470   7.770  0.6776  2.9837 -0.1363
   27SAPC  C212 3595   5.079   5.462   7.976 -0.2806  0.4998 -0.8441
   27SAPC  H12R 3596   4.980   5.422   7.950 -0.4507  1.0422 -1.0167
   27SAPC  C213 3597   5.103   5.471   8.124 -0.7527  0.8144 -0.3014
   27SAPC  H13R 3598   5.035   5.546   8.169  1.6211  1.6021  2.1066
   27SAPC  H13S 3599   5.201   5.518   8.147  0.3098 -0.7594 -1.5554
   27SAPC  C214 3600   5.089   5.343   8.209 -0.4415 -0.3685  0.5461
   27SAPC  H14R 3601   5.140   5.263   8.153  2.1971  2.1432 -0.8205
   27SAPC  C215 3602   5.002   5.308   8.313 -0.0792  0.5058  0.0209
   27SAPC  H15R 3603   5.021   5.217   8.372  3.9724  1.7097  0.7797
   27SAPC  C216 3604   4.896   5.404   8.380 -0.7520 -0.2587 -0.4103
   27SAPC  H16R 3605   4.892   5.501   8.326 -2.1512  2.1676  3.7547
   27SAPC  H16S 3606   4.909   5.443   8.484 -4.8709  0.6591 -0.1350
   27SAPC  C217 3607   4.758   5.353   8.350  0.8755 -0.0567 -0.1647
   27SAPC  H17R 3608   4.766   5.318   8.245 -1.7709  3.1019 -1.5131
   27SAPC  H17S 3609   4.688   5.440   8.344  1.2404  0.2996  0.6537
   27SAPC  C218 3610   4.715   5.247   8.445  0.7662  0.2397  0.5013
   27SAPC  H18R 3611   4.630   5.287   8.504 -1.7017 -1.7112 -1.5911
   27SAPC  H18S 3612   4.790   5.206   8.516  0.6773 -1.2819 -0.2680
   27SAPC  C219 3613   4.654   5.128   8.367  0.5561 -0.0045  0.2243
   27SAPC  H19R 3614   4.734   5.091   8.300  1.6771  3.0528 -0.2026
   27SAPC  H19S 3615   4.578   5.155   8.290  1.3571  2.3627  0.2279
   27SAPC  C220 3616   4.614   5.015   8.463  0.2452  0.2686  0.0144
   27SAPC  H20R 3617   4.705   4.993   8.523 -0.2757  0.2659  0.8121
   27SAPC  H20S 3618   4.584   4.926   8.403  0.8170 -0.1363  0.3190
   27SAPC  H20T 3619   4.526   5.049   8.522  0.1251 -0.4847  0.2744
   27SAPC   C33 3620   5.882   5.304   7.078  0.2406  0.0072 -0.8900
   27SAPC   H3X 3621   5.965   5.376   7.062 -1.3450  1.8564 -0.9387
   27SAPC   H3Y 3622   5.889   5.226   6.999  1.8870 -0.8244  0.0637
   27SAPC   C34 3623   5.900   5.225   7.205 -0.1000  0.3431 -0.8946
   27SAPC   H4X 3624   5.990   5.161   7.197  1.3870  2.0218  1.6657
   27SAPC   H4Y 3625   5.810   5.160   7.220  2.0241 -2.6577 -0.6466
   27SAPC   C35 3626   5.919   5.304   7.333 -0.1303 -0.0574 -0.7227
   27SAPC   H5X 3627   5.836   5.377   7.341  0.7721  0.7525  1.7870
   27SAPC   H5Y 3628   6.010   5.367   7.323 -0.1536  0.4720  1.9266
   27SAPC   C36 3629   5.940   5.209   7.453  0.1052  0.4242  0.0714
   27SAPC   H6X 3630   6.041   5.163   7.449 -0.1858 -0.3256  1.0638
   27SAPC   H6Y 3631   5.854   5.139   7.444 -0.9375  1.6891  0.0537
   27SAPC   C37 3632   5.922   5.275   7.586 -0.3373 -0.0040  0.2363
   27SAPC   H7X 3633   5.813   5.295   7.591 -0.0010  1.6820  1.4804
   27SAPC   H7Y 3634   5.969   5.376   7.591 -2.5146  1.0217  0.3420
   27SAPC   C38 3635   5.968   5.189   7.709  0.7964 -0.1452  0.4735
   27SAPC   H8X 3636   6.069   5.149   7.686  0.4796 -0.9524  0.4491
   27SAPC   H8Y 3637   5.901   5.100   7.707  1.7600 -0.8604 -0.9780
   27SAPC   C39 3638   5.952   5.261   7.847  0.1624  0.4669  0.7647
   27SAPC   H9X 3639   5.845   5.292   7.855  0.6397  2.2674  0.3896
   27SAPC   H9Y 3640   6.007   5.357   7.844  1.0068 -0.0285 -0.0901
   27SAPC  C310 3641   6.002   5.168   7.951 -0.2189  0.2810  0.0930
   27SAPC  H10X 3642   6.055   5.229   8.027  2.0750  1.0217 -2.0043
   27SAPC  H10Y 3643   6.077   5.097   7.907  1.2468  0.6336  1.9644
   27SAPC  C311 3644   5.900   5.078   8.003 -0.0399 -0.4984  0.0751
   27SAPC  H11X 3645   5.845   5.028   7.920 -0.3353 -1.6464  0.9561
   27SAPC  H11Y 3646   5.834   5.137   8.069  0.1329  0.1263 -0.3071
   27SAPC  C312 3647   5.973   4.970   8.084  0.1508 -0.2901  0.7369
   27SAPC  H12X 3648   6.035   5.013   8.166  1.2219  1.1287 -0.7953
   27SAPC  H12Y 3649   6.041   4.914   8.017  0.0460  2.1664 -1.4620
   27SAPC  C313 3650   5.879   4.875   8.161  0.4892  0.2537  0.1750
   27SAPC  H13X 3651   5.829   4.800   8.096 -0.3358  2.4380 -1.7671
   27SAPC  H13Y 3652   5.799   4.935   8.210 -0.1938  1.0355 -1.8676
   27SAPC  C314 3653   5.942   4.797   8.279  0.0242 -0.0478  0.3530
   27SAPC  H14X 3654   6.002   4.864   8.346  0.4887 -0.9334  0.8241
   27SAPC  H14Y 3655   6.006   4.719   8.232 -0.9373 -0.8026  0.2928
   27SAPC  C315 3656   5.843   4.721   8.365 -0.7801  0.9535  0.7885
   27SAPC  H15X 3657   5.812   4.630   8.309  2.0274 -0.6972  1.8370
   27SAPC  H15Y 3658   5.754   4.785   8.384  0.4861  1.6715  4.7182
   27SAPC  C316 3659   5.897   4.671   8.500 -0.1527 -0.0237  0.0220
   27SAPC  H16X 3660   5.940   4.764   8.541 -1.2456  0.1466  0.8123
   27SAPC  H16Y 3661   5.970   4.589   8.483  1.1438  1.2149 -0.4143
   27SAPC  C317 3662   5.785   4.626   8.594 -0.0385  0.2173  0.2693
   27SAPC  H17X 3663   5.730   4.538   8.554  0.1705  0.0753  0.2921
   27SAPC  H17Y 3664   5.717   4.713   8.604 -1.3176 -0.8259  0.8159
   27SAPC  C318 3665   5.852   4.572   8.726  0.0475  0.2684  0.0120
   27SAPC  H18X 3666   5.918   4.485   8.707  0.4689  0.3758  0.9519
   27SAPC  H18Y 3667   5.765   4.531   8.782 -1.4162  0.1901 -2.2695
   27SAPC  H18Z 3668   5.896   4.649   8.794 -1.1021  0.7029  0.2852
   28SAPC     N 3669   4.825   3.251   6.416  0.3173 -0.2520  0.1622
   28SAPC   C12 3670   4.874   3.109   6.362 -0.3724 -0.5094  0.5493
   28SAPC  H12A 3671   4.980   3.109   6.339 -0.5804 -0.6859 -0.4315
   28SAPC  H12B 3672   4.823   3.093   6.269  1.2019  2.4999 -0.9147
   28SAPC   C13 3673   4.863   3.353   6.317 -0.3080 -0.5628 -0.1393
   28SAPC  H13A 3674   4.970   3.353   6.312 -0.3052 -1.8800 -0.4579
   28SAPC  H13B 3675   4.826   3.328   6.219  0.3338  0.4878 -0.6488
   28SAPC  H13C 3676   4.823   3.450   6.341 -1.8725 -1.3661  0.6298
   28SAPC   C14 3677   4.682   3.255   6.433  0.2388  0.9610 -0.5851
   28SAPC  H14A 3678   4.634   3.232   6.339 -1.8363  1.5803  0.2871
   28SAPC  H14B 3679   4.655   3.179   6.505 -2.3532  0.0741 -2.4038
   28SAPC  H14C 3680   4.654   3.355   6.462  1.3274  0.6443  1.7038
   28SAPC   C15 3681   4.884   3.289   6.545 -0.1999  0.1473  0.0947
   28SAPC  H15A 3682   4.875   3.205   6.611  1.3981 -0.8029 -0.8631
   28SAPC  H15B 3683   4.989   3.311   6.532 -0.4908  3.3613  2.4966
   28SAPC  H15C 3684   4.837   3.367   6.603 -3.0263 -1.8608  0.6034
   28SAPC   C11 3685   4.853   2.984   6.454  0.4220 -0.6140  0.4313
   28SAPC  H11A 3686   4.886   3.011   6.556 -1.0340 -2.4550  1.4250
   28SAPC  H11B 3687   4.916   2.909   6.403  1.1227  0.6263 -0.5550
   28SAPC     P 3688   4.635   2.902   6.341 -0.0694 -0.1325  0.4939
   28SAPC   O13 3689   4.572   3.023   6.281 -0.1257  0.0883  0.3464
   28SAPC   O14 3690   4.724   2.819   6.253 -0.5449  0.0131  0.3299
   28SAPC   O12 3691   4.723   2.943   6.465  0.4757  0.5269 -0.5103
   28SAPC   O11 3692   4.521   2.821   6.411  0.4637 -0.1556 -0.1095
   28SAPC    C1 3693   4.541   2.685   6.445  0.8020  0.1228  0.2058
   28SAPC    HA 3694   4.550   2.623   6.353  1.7615  0.3174  0.1607
   28SAPC    HB 3695   4.644   2.666   6.481  1.2306  0.2609 -0.9140
   28SAPC    C2 3696   4.433   2.616   6.542  0.6499 -0.4581 -1.2195
   28SAPC    HS 3697   4.476   2.513   6.547 -0.4574 -0.9439 -1.4217
   28SAPC   O21 3698   4.303   2.626   6.484  0.0140  0.7524  0.2402
   28SAPC   C21 3699   4.231   2.510   6.481  0.0610  0.0036  0.1477
   28SAPC   O22 3700   4.265   2.404   6.517 -0.2067  0.3432  0.1954
   28SAPC   C22 3701   4.089   2.543   6.423  0.4765 -0.1977  0.5050
   28SAPC   H2R 3702   4.088   2.638   6.366  0.0558  0.2084  1.1889
   28SAPC   H2S 3703   4.044   2.466   6.356  2.5070 -0.6396 -0.4015
   28SAPC    C3 3704   4.439   2.697   6.675  0.0272 -0.5518  0.0209
   28SAPC    HX 3705   4.412   2.802   6.650 -1.5996 -1.3855 -1.8265
   28SAPC    HY 3706   4.544   2.702   6.712  0.1472  0.2750 -0.4258
   28SAPC   O31 3707   4.347   2.648   6.782  0.1850 -0.1193 -0.0152
   28SAPC   C31 3708   4.396   2.542   6.847  0.3739  0.1653 -0.3963
   28SAPC   O32 3709   4.497   2.485   6.817  0.3148 -0.1297  0.2714
   28SAPC   C32 3710   4.299   2.501   6.961  0.4626 -0.0135  0.5709
   28SAPC   H2X 3711   4.245   2.412   6.922 -2.1352  0.7691  2.2461
   28SAPC   H2Y 3712   4.227   2.585   6.972 -0.6125 -0.7469 -0.8063
   28SAPC   C23 3713   3.987   2.550   6.543  0.3402  0.6009 -0.1276
   28SAPC   H3R 3714   3.993   2.458   6.604 -1.8477  0.9120  0.6095
   28SAPC   H3S 3715   3.885   2.572   6.504  0.7167 -1.5009 -2.4049
   28SAPC   C24 3716   4.018   2.657   6.641  0.4353  0.5791  0.0705
   28SAPC   H4R 3717   4.114   2.639   6.695  0.8421  1.5084 -0.3305
   28SAPC   H4S 3718   4.047   2.750   6.588 -0.2854  0.5333 -0.3997
   28SAPC   C25 3719   3.909   2.700   6.742 -0.3566 -0.9319  0.3856
   28SAPC   H5R 3720   3.849   2.788   6.715 -2.3081 -2.9461 -2.0676
   28SAPC   C26 3721   3.878   2.635   6.862 -0.5283 -0.1466  0.4007
   28SAPC   H6R 3722   3.798   2.679   6.924 -0.6805  0.8997 -0.5111
   28SAPC   C27 3723   3.943   2.503   6.909  0.5108  0.1997  0.0698
   28SAPC   H7R 3724   3.972   2.500   7.016  0.3735 -0.1721  0.0980
   28SAPC   H7S 3725   4.041   2.490   6.857  1.7970 -1.6226  2.8444
   28SAPC   C28 3726   3.867   2.382   6.866  0.1565  0.7010 -0.5884
   28SAPC   H8R 3727   3.869   2.361   6.758 -1.3215 -3.1582  0.0460
   28SAPC   C29 3728   3.789   2.306   6.949 -0.5743  0.0290 -0.0523
   28SAPC   H9R 3729   3.739   2.217   6.907 -0.1001  0.5389 -1.7309
   28SAPC  C210 3730   3.783   2.328   7.103  0.4314  0.1310 -0.3505
   28SAPC  H10R 3731   3.783   2.437   7.121 -2.2426  0.1138 -0.0760
   28SAPC  H10S 3732   3.870   2.289   7.161 -0.3617 -1.5779 -0.2703
   28SAPC  C211 3733   3.656   2.269   7.156  0.1883  0.0900  0.1533
   28SAPC  H11R 3734   3.565   2.293   7.100  0.6457  1.5750  0.0396
   28SAPC  C212 3735   3.642   2.206   7.272 -0.5209  0.0508 -0.2348
   28SAPC  H12R 3736   3.547   2.156   7.299 -0.3562  0.5216  1.2593
   28SAPC  C213 3737   3.744   2.173   7.382 -0.7400 -0.4287  0.0081
   28SAPC  H13R 3738   3.848   2.170   7.341 -0.6385  1.8203  0.0522
   28SAPC  H13S 3739   3.718   2.076   7.429  0.6192 -1.3176 -1.0303
   28SAPC  C214 3740   3.757   2.287   7.477  0.1390 -0.2628  0.0970
   28SAPC  H14R 3741   3.760   2.390   7.439 -0.6692 -0.7347 -1.2722
   28SAPC  C215 3742   3.766   2.279   7.609 -0.5889  0.5457 -1.0284
   28SAPC  H15R 3743   3.780   2.371   7.669 -1.0831 -1.8921  3.0583
   28SAPC  C216 3744   3.753   2.144   7.687 -0.4893  0.4714 -0.0394
   28SAPC  H16R 3745   3.799   2.064   7.625  0.3907  0.0018  1.2107
   28SAPC  H16S 3746   3.647   2.114   7.696 -0.5694  0.8818  0.4183
   28SAPC  C217 3747   3.824   2.157   7.823 -0.3524  0.7455  1.1275
   28SAPC  H17R 3748   3.927   2.194   7.803 -1.4309  2.5521 -1.3583
   28SAPC  H17S 3749   3.839   2.053   7.861  2.9945 -0.0911 -2.1622
   28SAPC  C218 3750   3.757   2.243   7.925 -0.6950 -0.4612 -0.4626
   28SAPC  H18R 3751   3.654   2.208   7.945 -1.2626  0.2738 -2.0025
   28SAPC  H18S 3752   3.746   2.347   7.887  0.2274  0.1025  0.7566
   28SAPC  C219 3753   3.855   2.249   8.041  0.4296  0.3586 -0.2793
   28SAPC  H19R 3754   3.856   2.352   8.082  1.7866 -0.5175  1.9196
   28SAPC  H19S 3755   3.960   2.240   8.006  1.1938  0.5897  1.9252
   28SAPC  C220 3756   3.837   2.153   8.154 -0.3374  0.2071  0.1394
   28SAPC  H20R 3757   3.929   2.164   8.215  0.0192 -1.6539 -0.0152
   28SAPC  H20S 3758   3.834   2.047   8.120  1.4020  1.2458 -3.4653
   28SAPC  H20T 3759   3.749   2.185   8.214 -1.8840 -0.1697 -1.8559
   28SAPC   C33 3760   4.361   2.473   7.094 -0.1494  0.8253 -0.2119
   28SAPC   H3X 3761   4.428   2.559   7.118 -2.3222  2.2888  0.7363
   28SAPC   H3Y 3762   4.421   2.380   7.091 -1.0790  0.0536  3.2946
   28SAPC   C34 3763   4.268   2.447   7.214 -0.2546  0.2814 -0.3293
   28SAPC   H4X 3764   4.189   2.369   7.205 -1.6656  1.2392  3.1143
   28SAPC   H4Y 3765   4.208   2.534   7.248 -1.4929 -0.3117 -0.9711
   28SAPC   C35 3766   4.344   2.422   7.346  0.2079 -0.1494 -0.5371
   28SAPC   H5X 3767   4.420   2.502   7.358  0.0924 -0.2434  0.8487
   28SAPC   H5Y 3768   4.400   2.329   7.320 -0.4081 -1.5454  2.9045
   28SAPC   C36 3769   4.260   2.403   7.469 -0.0038  0.3482 -0.0310
   28SAPC   H6X 3770   4.182   2.325   7.457 -0.8421  1.1664  0.1182
   28SAPC   H6Y 3771   4.206   2.499   7.481 -2.5795 -1.1299  0.5321
   28SAPC   C37 3772   4.355   2.375   7.590  0.6065  0.0028  0.1882
   28SAPC   H7X 3773   4.438   2.446   7.607 -1.6831  2.6363  0.6829
   28SAPC   H7Y 3774   4.404   2.276   7.574 -0.0610 -0.3717  0.4410
   28SAPC   C38 3775   4.285   2.372   7.728  0.4153 -0.1914  0.0854
   28SAPC   H8X 3776   4.186   2.323   7.713  0.1306 -0.0941  1.5946
   28SAPC   H8Y 3777   4.267   2.479   7.754 -1.3469 -0.8260  1.5799
   28SAPC   C39 3778   4.378   2.305   7.829  0.7286 -0.3318  0.0458
   28SAPC   H9X 3779   4.468   2.369   7.840 -0.7824  2.3940 -2.7166
   28SAPC   H9Y 3780   4.413   2.217   7.771 -2.4734 -0.4875 -1.7743
   28SAPC  C310 3781   4.311   2.262   7.956  0.5518 -0.0186 -0.0115
   28SAPC  H10X 3782   4.370   2.185   8.010 -2.0962 -1.9213  0.2494
   28SAPC  H10Y 3783   4.205   2.233   7.939  1.1605 -1.0505 -2.1553
   28SAPC  C311 3784   4.284   2.384   8.056 -0.2492 -0.1611 -0.3500
   28SAPC  H11X 3785   4.224   2.460   8.002 -2.2766  1.1533  3.5887
   28SAPC  H11Y 3786   4.384   2.427   8.078  0.3485 -0.8880 -1.5760
   28SAPC  C312 3787   4.195   2.342   8.176 -0.5380  0.2067 -1.0511
   28SAPC  H12X 3788   4.258   2.269   8.231  1.2833  2.8520  0.5019
   28SAPC  H12Y 3789   4.105   2.283   8.148  0.2340 -0.8847 -1.2757
   28SAPC  C313 3790   4.163   2.456   8.277  0.3450  0.2959 -0.3605
   28SAPC  H13X 3791   4.081   2.525   8.245 -1.3655 -0.5967  1.9120
   28SAPC  H13Y 3792   4.258   2.511   8.293 -0.2943  0.5836  2.7013
   28SAPC  C314 3793   4.136   2.418   8.423  0.5633 -0.5127  0.4433
   28SAPC  H14X 3794   4.122   2.514   8.478 -0.1632 -1.3322  1.6979
   28SAPC  H14Y 3795   4.220   2.379   8.483  2.8504  1.1212 -1.6060
   28SAPC  C315 3796   4.004   2.340   8.445  0.0499  0.2046  0.6253
   28SAPC  H15X 3797   4.027   2.231   8.447 -0.9830 -0.0623 -0.7565
   28SAPC  H15Y 3798   3.934   2.367   8.363 -0.1023 -1.7367  0.0860
   28SAPC  C316 3799   3.919   2.389   8.570  0.2596  0.4271  0.8672
   28SAPC  H16X 3800   3.871   2.484   8.541 -0.0421 -0.1328 -0.5174
   28SAPC  H16Y 3801   3.992   2.410   8.651  0.5130 -2.5138  1.4654
   28SAPC  C317 3802   3.821   2.282   8.621  0.2682 -0.3337  0.2022
   28SAPC  H17X 3803   3.882   2.195   8.652  2.3492  1.3967  1.1024
   28SAPC  H17Y 3804   3.753   2.259   8.536 -2.1416  0.7150  1.7806
   28SAPC  C318 3805   3.733   2.314   8.737 -0.3389 -0.4889 -0.0404
   28SAPC  H18X 3806   3.776   2.292   8.837 -0.5904 -1.1178 -0.0733
   28SAPC  H18Y 3807   3.631   2.271   8.728 -1.1005  1.2036  0.3410
   28SAPC  H18Z 3808   3.710   2.423   8.736 -1.2792 -0.6886 -0.9683
   29SAPC     N 3809   0.318   5.767   5.979 -0.2611 -0.5431  0.1654
   29SAPC   C12 3810   0.186   5.723   6.043  0.2732 -0.1173  0.6448
   29SAPC  H12A 3811   0.171   5.620   6.012  0.2375  0.1198 -0.1430
   29SAPC  H12B 3812   0.109   5.787   6.003 -1.2947 -3.1647 -1.4628
   29SAPC   C13 3813   0.305   5.751   5.830 -0.4084 -0.2906  0.5952
   29SAPC  H13A 3814   0.222   5.805   5.788 -0.5411 -2.5269 -2.2127
   29SAPC  H13B 3815   0.399   5.775   5.782 -0.3390  0.2932  1.0271
   29SAPC  H13C 3816   0.299   5.645   5.809  0.3509 -0.3883  0.8561
   29SAPC   C14 3817   0.348   5.914   5.995 -0.4523 -0.2554  0.1948
   29SAPC  H14A 3818   0.285   5.978   5.934 -2.4595 -1.7207  0.6712
   29SAPC  H14B 3819   0.320   5.943   6.096  0.8461 -0.2291  0.5548
   29SAPC  H14C 3820   0.453   5.939   5.988 -0.7903  0.9866 -0.6785
   29SAPC   C15 3821   0.436   5.683   6.031  1.1414 -0.2406  0.8024
   29SAPC  H15A 3822   0.438   5.681   6.139  0.7779 -0.5809  0.8023
   29SAPC  H15B 3823   0.414   5.584   5.996 -2.7394  0.3299  1.3731
   29SAPC  H15C 3824   0.528   5.723   5.993  1.3136  0.0036  1.4701
   29SAPC   C11 3825   0.171   5.721   6.198 -0.3578  0.6292  0.2501
   29SAPC  H11A 3826   0.233   5.636   6.235 -1.6180  0.0553  1.0558
   29SAPC  H11B 3827   0.064   5.692   6.208 -0.5045  0.1218 -2.2220
   29SAPC     P 3828   0.281   5.865   6.384  0.1020 -0.5184  0.3425
   29SAPC   O13 3829   0.418   5.813   6.342  0.1074 -0.4759 -0.0956
   29SAPC   O14 3830   0.266   6.008   6.412  0.4788 -0.0138  0.3581
   29SAPC   O12 3831   0.191   5.845   6.254  0.5657 -0.0159 -0.5671
   29SAPC   O11 3832   0.214   5.776   6.486  0.4725 -0.5691 -0.3331
   29SAPC    C1 3833   0.103   5.826   6.560  0.0083 -0.4147 -0.5417
   29SAPC    HA 3834   0.077   5.930   6.530  0.3601 -0.9700 -2.8826
   29SAPC    HB 3835   0.018   5.760   6.534 -0.0786 -0.2807 -0.5954
   29SAPC    C2 3836   0.136   5.822   6.709 -0.7064  0.8848  0.4370
   29SAPC    HS 3837   0.052   5.859   6.771 -1.0738  1.3242 -0.3244
   29SAPC   O21 3838   0.247   5.906   6.737  0.0593 -0.2763 -0.1886
   29SAPC   C21 3839   0.265   5.955   6.854 -0.8580 -0.5846  0.7210
   29SAPC   O22 3840   0.186   5.953   6.941  0.6487  0.3271 -0.0148
   29SAPC   C22 3841   0.400   6.026   6.861  0.1598 -0.1148  0.4378
   29SAPC   H2R 3842   0.396   6.084   6.955  0.5490  1.1955 -0.3339
   29SAPC   H2S 3843   0.476   5.951   6.890 -0.1112  0.2823  2.2137
   29SAPC    C3 3844   0.169   5.677   6.754 -0.5731  0.0174  0.0001
   29SAPC    HX 3845   0.267   5.654   6.706 -0.3823  0.9614 -0.0753
   29SAPC    HY 3846   0.100   5.606   6.703  0.4188 -0.1413 -1.1450
   29SAPC   O31 3847   0.195   5.659   6.892  0.2242 -0.2405 -0.3799
   29SAPC   C31 3848   0.082   5.632   6.963 -0.2439 -0.1560 -0.0727
   29SAPC   O32 3849  -0.026   5.607   6.906  0.2838  0.4521  0.2699
   29SAPC   C32 3850   0.095   5.639   7.114 -0.2945  0.1140  0.2938
   29SAPC   H2X 3851   0.156   5.728   7.138  0.8370 -0.8357  0.9951
   29SAPC   H2Y 3852   0.152   5.551   7.150 -1.1778 -0.2295  0.8657
   29SAPC   C23 3853   0.444   6.117   6.739 -0.2374  0.8012 -0.4370
   29SAPC   H3R 3854   0.363   6.187   6.711 -2.1507 -1.5191 -0.8993
   29SAPC   H3S 3855   0.468   6.058   6.648  1.1124 -0.0764  0.4716
   29SAPC   C24 3856   0.557   6.222   6.781  0.0747  0.1450 -0.6334
   29SAPC   H4R 3857   0.509   6.257   6.874 -0.0639 -1.2599 -0.1626
   29SAPC   H4S 3858   0.556   6.300   6.702  0.5502  1.9447  1.0993
   29SAPC   C25 3859   0.686   6.149   6.811 -0.2185 -0.3556 -0.5504
   29SAPC   H5R 3860   0.742   6.118   6.722 -0.5910 -1.6790 -0.3443
   29SAPC   C26 3861   0.732   6.146   6.941  1.2092  0.2859  0.2893
   29SAPC   H6R 3862   0.827   6.096   6.966  2.1000  1.0147 -1.5210
   29SAPC   C27 3863   0.661   6.193   7.065 -0.6312  0.5586 -0.1036
   29SAPC   H7R 3864   0.593   6.108   7.089  2.1270 -1.5294  0.6235
   29SAPC   H7S 3865   0.592   6.277   7.042  0.3182  1.6723  1.0316
   29SAPC   C28 3866   0.748   6.242   7.176 -0.1824  1.1936  0.8132
   29SAPC   H8R 3867   0.840   6.290   7.139 -0.6078  0.6862 -0.9536
   29SAPC   C29 3868   0.723   6.228   7.308  0.3635 -0.3677  0.0684
   29SAPC   H9R 3869   0.803   6.275   7.367  1.0685  1.8445 -2.5597
   29SAPC  C210 3870   0.608   6.159   7.377  0.1805 -0.1664  0.2642
   29SAPC  H10R 3871   0.639   6.065   7.427 -1.9894 -1.2444 -0.3185
   29SAPC  H10S 3872   0.525   6.132   7.308 -0.8228 -0.2816  1.4981
   29SAPC  C211 3873   0.551   6.255   7.473 -0.2037 -0.7486 -0.6314
   29SAPC  H11R 3874   0.493   6.334   7.423  0.6183 -0.6740 -1.4796
   29SAPC  C212 3875   0.585   6.275   7.605  0.3896 -0.0382  0.5215
   29SAPC  H12R 3876   0.536   6.355   7.663  0.5136 -0.1036  0.7160
   29SAPC  C213 3877   0.684   6.182   7.683  0.2478  0.3018  1.3287
   29SAPC  H13R 3878   0.752   6.119   7.622 -1.0141  0.2123 -0.0058
   29SAPC  H13S 3879   0.632   6.105   7.745  0.8445 -0.9276  0.3293
   29SAPC  C214 3880   0.778   6.268   7.764 -0.5582  0.6388 -0.0993
   29SAPC  H14R 3881   0.875   6.292   7.719 -0.3507 -1.0214 -0.5891
   29SAPC  C215 3882   0.749   6.325   7.885  0.1048 -0.0947  0.6788
   29SAPC  H15R 3883   0.824   6.395   7.925 -0.9714  0.7176  1.2886
   29SAPC  C216 3884   0.623   6.317   7.966 -0.0636  0.3797 -0.2003
   29SAPC  H16R 3885   0.552   6.241   7.928  0.1968 -0.1547  0.3774
   29SAPC  H16S 3886   0.576   6.416   7.949 -2.5403 -0.1490  3.0866
   29SAPC  C217 3887   0.654   6.312   8.114  0.0727  0.1986 -0.5144
   29SAPC  H17R 3888   0.716   6.398   8.147 -1.4526  1.7684 -1.7008
   29SAPC  H17S 3889   0.712   6.220   8.138 -0.1843 -0.1881 -1.3672
   29SAPC  C218 3890   0.527   6.307   8.196 -0.2061 -0.4818 -0.4130
   29SAPC  H18R 3891   0.493   6.202   8.204 -2.5589  0.2996  0.2093
   29SAPC  H18S 3892   0.455   6.366   8.136  0.4817  1.6322  0.7817
   29SAPC  C219 3893   0.537   6.367   8.340  1.0488 -0.0485  0.9800
   29SAPC  H19R 3894   0.435   6.359   8.381  0.1137  0.5674 -1.1548
   29SAPC  H19S 3895   0.568   6.474   8.344  0.0038  0.3136 -0.3838
   29SAPC  C220 3896   0.629   6.289   8.438  0.1145  0.2764  0.0009
   29SAPC  H20R 3897   0.588   6.195   8.481 -1.7015  1.4452  0.8348
   29SAPC  H20S 3898   0.660   6.345   8.528  0.6370 -1.6336  1.0466
   29SAPC  H20T 3899   0.720   6.258   8.381  1.1544  3.5439 -0.1924
   29SAPC   C33 3900  -0.050   5.649   7.178 -0.3958 -0.7362 -0.6185
   29SAPC   H3X 3901  -0.099   5.557   7.140 -1.7444 -1.1372  1.9895
   29SAPC   H3Y 3902  -0.102   5.731   7.124  0.2919 -0.3980 -0.7712
   29SAPC   C34 3903  -0.056   5.670   7.329  0.0590  0.1975 -0.0702
   29SAPC   H4X 3904  -0.163   5.685   7.357 -1.1365  0.2309 -4.2815
   29SAPC   H4Y 3905  -0.014   5.768   7.360  0.1173 -0.2419  1.2625
   29SAPC   C35 3906   0.011   5.556   7.414  0.0206 -0.1811  0.1244
   29SAPC   H5X 3907   0.116   5.534   7.387  0.3479 -1.1207  2.0635
   29SAPC   H5Y 3908  -0.054   5.473   7.377 -1.8614  0.5375  1.7026
   29SAPC   C36 3909  -0.011   5.565   7.569  0.4132 -0.1380  0.3882
   29SAPC   H6X 3910   0.032   5.479   7.625 -0.5726  0.1097  1.5392
   29SAPC   H6Y 3911  -0.120   5.561   7.589  0.2121 -2.2110 -1.0326
   29SAPC   C37 3912   0.063   5.689   7.620 -0.1888 -0.2748 -0.2081
   29SAPC   H7X 3913   0.003   5.777   7.588  0.5440 -0.6811 -2.7919
   29SAPC   H7Y 3914   0.158   5.689   7.564 -0.5763 -2.3772 -0.9035
   29SAPC   C38 3915   0.082   5.696   7.770 -0.0269 -0.0795 -0.3789
   29SAPC   H8X 3916   0.129   5.794   7.793 -3.9021  1.5686  0.9170
   29SAPC   H8Y 3917   0.160   5.627   7.809  0.1722 -0.3742 -1.2817
   29SAPC   C39 3918  -0.046   5.681   7.857 -0.0321  0.2575 -0.8022
   29SAPC   H9X 3919  -0.077   5.574   7.849 -0.6799  0.5005 -1.5559
   29SAPC   H9Y 3920  -0.113   5.747   7.798  1.3081  3.3723  1.0275
   29SAPC  C310 3921  -0.038   5.724   8.002  0.2649 -0.3443 -0.1489
   29SAPC  H10X 3922  -0.144   5.741   8.031 -0.2662 -0.9937 -1.6988
   29SAPC  H10Y 3923   0.009   5.825   8.007 -1.7995  0.6385 -0.1038
   29SAPC  C311 3924   0.040   5.628   8.088 -0.2047 -0.0367  0.2781
   29SAPC  H11X 3925   0.138   5.621   8.036  0.1703 -2.6872  1.2594
   29SAPC  H11Y 3926   0.007   5.522   8.093 -1.4780  0.2991 -0.7315
   29SAPC  C312 3927   0.067   5.668   8.228 -0.2712 -0.0135  0.0323
   29SAPC  H12X 3928   0.089   5.777   8.229 -0.5894  0.0536  0.8336
   29SAPC  H12Y 3929   0.153   5.621   8.281 -0.6013 -0.2764  0.3390
   29SAPC  C313 3930  -0.060   5.645   8.310 -0.1864 -0.2555 -0.4599
   29SAPC  H13X 3931  -0.076   5.540   8.343 -1.1572 -0.8972 -2.8912
   29SAPC  H13Y 3932  -0.144   5.662   8.239 -0.3328 -1.7440 -0.6578
   29SAPC  C314 3933  -0.065   5.735   8.434 -1.1437  0.2054 -0.0149
   29SAPC  H14X 3934  -0.168   5.756   8.470  0.2724  3.4297  2.4873
   29SAPC  H14Y 3935  -0.027   5.837   8.411 -1.7979  0.1502 -1.3798
   29SAPC  C315 3936   0.017   5.676   8.548 -0.1037 -0.3310  0.0619
   29SAPC  H15X 3937   0.106   5.630   8.500 -1.3995 -1.7387 -1.0245
   29SAPC  H15Y 3938  -0.037   5.593   8.599  0.8637 -0.9448  0.0999
   29SAPC  C316 3939   0.072   5.773   8.655  0.3014 -0.2720  0.3241
   29SAPC  H16X 3940   0.112   5.865   8.607  0.2218  0.4480  1.6136
   29SAPC  H16Y 3941   0.153   5.731   8.718 -0.3429 -1.6161  0.2691
   29SAPC  C317 3942  -0.044   5.806   8.752 -0.1922  0.4060 -0.0593
   29SAPC  H17X 3943  -0.087   5.714   8.797  1.3630  0.5982  1.8642
   29SAPC  H17Y 3944  -0.128   5.861   8.702 -0.4875 -0.3117 -0.3595
   29SAPC  C318 3945   0.024   5.894   8.863 -0.2376  0.1360  0.0771
   29SAPC  H18X 3946   0.111   5.847   8.913 -0.2458  2.0136  1.9250
   29SAPC  H18Y 3947  -0.056   5.916   8.937 -1.5326 -0.1565 -1.2080
   29SAPC  H18Z 3948   0.066   5.989   8.821  1.0554 -0.7046 -0.5664
   30SAPC     N 3949   2.274   6.079   5.680  0.0712 -0.4685  0.0387
   30SAPC   C12 3950   2.277   5.952   5.757  0.4572  0.1993  0.6181
   30SAPC  H12A 3951   2.280   5.871   5.686  2.0119  2.0463 -1.5120
   30SAPC  H12B 3952   2.184   5.937   5.810  1.8613 -0.0560  3.1135
   30SAPC   C13 3953   2.407   6.102   5.620  0.1564  0.3387 -0.5339
   30SAPC  H13A 3954   2.402   6.186   5.552 -2.3936 -0.4054 -1.3352
   30SAPC  H13B 3955   2.477   6.121   5.700 -0.8091 -1.0314  0.6702
   30SAPC  H13C 3956   2.442   6.012   5.571  0.3780  1.2929 -2.1585
   30SAPC   C14 3957   2.169   6.074   5.576  1.1478  0.3827  0.7234
   30SAPC  H14A 3958   2.077   6.113   5.617  1.2255  1.8603 -0.4640
   30SAPC  H14B 3959   2.197   6.141   5.497 -0.5654 -1.4414 -1.4877
   30SAPC  H14C 3960   2.148   5.976   5.536  4.5261  0.9289 -2.5610
   30SAPC   C15 3961   2.243   6.206   5.762  0.4458  1.0683  0.2013
   30SAPC  H15A 3962   2.248   6.293   5.698  1.9761  1.1620  0.4402
   30SAPC  H15B 3963   2.150   6.197   5.816 -0.0606 -0.3454 -0.8632
   30SAPC  H15C 3964   2.327   6.221   5.828 -0.4685 -1.6193  2.0412
   30SAPC   C11 3965   2.388   5.930   5.859  0.2277 -0.7108  0.2320
   30SAPC  H11A 3966   2.491   5.944   5.821  0.2015 -0.0961  0.3761
   30SAPC  H11B 3967   2.390   5.827   5.900 -1.2243  0.2433  2.8173
   30SAPC     P 3968   2.445   6.037   6.091  0.6905  0.0905  0.4052
   30SAPC   O13 3969   2.586   6.052   6.043  0.0537 -0.6401 -0.2684
   30SAPC   O14 3970   2.397   6.150   6.175  0.6055  0.2585 -0.4759
   30SAPC   O12 3971   2.352   6.016   5.973  0.2240  0.2735 -0.5753
   30SAPC   O11 3972   2.429   5.906   6.179  0.6975 -0.3437 -0.0542
   30SAPC    C1 3973   2.296   5.841   6.173 -0.4964  0.7651  0.4600
   30SAPC    HA 3974   2.242   5.853   6.077  0.5939 -0.7749 -0.3665
   30SAPC    HB 3975   2.308   5.730   6.168  0.5808  0.8256  1.5224
   30SAPC    C2 3976   2.196   5.890   6.285 -0.3609  0.0178 -0.0421
   30SAPC    HS 3977   2.188   5.999   6.265  0.0355  0.2452  1.0199
   30SAPC   O21 3978   2.249   5.855   6.414  0.1236  0.5392 -0.1283
   30SAPC   C21 3979   2.204   5.926   6.509  0.3720 -0.0795  0.6591
   30SAPC   O22 3980   2.125   6.016   6.505  0.5484 -0.3628  0.1758
   30SAPC   C22 3981   2.277   5.870   6.637  0.2932 -0.2809  0.1991
   30SAPC   H2R 3982   2.209   5.855   6.724  1.7437 -1.4392  1.1526
   30SAPC   H2S 3983   2.312   5.769   6.608  0.9100 -0.0418  0.1206
   30SAPC    C3 3984   2.055   5.816   6.274  0.5442  0.4024 -0.2310
   30SAPC    HX 3985   2.068   5.707   6.262 -3.8213 -0.3993  1.1916
   30SAPC    HY 3986   2.018   5.854   6.177  0.1401 -0.8290 -0.5622
   30SAPC   O31 3987   1.958   5.831   6.376  0.3793  1.0106 -0.3905
   30SAPC   C31 3988   1.875   5.935   6.360  0.1473  0.4059 -0.2135
   30SAPC   O32 3989   1.891   6.017   6.268  0.0962 -0.6281  0.2579
   30SAPC   C32 3990   1.777   5.954   6.482  0.0096  0.1796  0.3741
   30SAPC   H2X 3991   1.711   5.865   6.495 -0.2196  0.4305  0.9577
   30SAPC   H2Y 3992   1.713   6.042   6.461  1.9073  1.9872  1.8852
   30SAPC   C23 3993   2.394   5.946   6.678 -0.3568 -0.2298 -1.2953
   30SAPC   H3R 3994   2.465   5.955   6.593 -1.1484 -0.1789 -1.9488
   30SAPC   H3S 3995   2.450   5.893   6.758 -0.2814  1.5654 -0.1272
   30SAPC   C24 3996   2.368   6.085   6.728  0.5213 -0.2868  0.6831
   30SAPC   H4R 3997   2.314   6.148   6.654 -1.0146  1.7418  3.4180
   30SAPC   H4S 3998   2.463   6.137   6.753 -0.5937  1.5178  1.2116
   30SAPC   C25 3999   2.287   6.075   6.858  0.4422 -0.0633 -0.1666
   30SAPC   H5R 4000   2.185   6.033   6.864 -0.2111  0.9977 -2.8243
   30SAPC   C26 4001   2.337   6.109   6.978  0.4075  0.0399 -0.3609
   30SAPC   H6R 4002   2.260   6.122   7.056  1.2042 -0.4771  0.5274
   30SAPC   C27 4003   2.478   6.151   7.014  0.0650 -0.1488  0.4945
   30SAPC   H7R 4004   2.482   6.216   7.104 -0.4493  0.8704 -0.2024
   30SAPC   H7S 4005   2.514   6.218   6.933 -1.6393 -0.0970 -0.2442
   30SAPC   C28 4006   2.567   6.028   7.036 -0.0020 -1.0463  0.4675
   30SAPC   H8R 4007   2.545   5.958   6.953 -0.9839  0.1603 -0.3050
   30SAPC   C29 4008   2.641   5.985   7.141 -0.0308 -0.0588 -0.2884
   30SAPC   H9R 4009   2.680   5.883   7.129  1.9787  0.6063  0.3947
   30SAPC  C210 4010   2.663   6.047   7.279 -0.0820 -0.0502  0.2856
   30SAPC  H10R 4011   2.715   6.143   7.264 -1.8622  0.6145 -1.9026
   30SAPC  H10S 4012   2.736   5.986   7.337  0.8037  1.5041  0.8238
   30SAPC  C211 4013   2.534   6.065   7.360 -0.3662  0.2079  0.4157
   30SAPC  H11R 4014   2.481   6.161   7.355 -1.2653 -0.3884 -2.0740
   30SAPC  C212 4015   2.485   5.973   7.449  0.6314  0.1014  0.6390
   30SAPC  H12R 4016   2.402   5.999   7.516 -0.9279 -0.3265 -1.0717
   30SAPC  C213 4017   2.558   5.844   7.477 -0.2170  1.1697 -0.0825
   30SAPC  H13R 4018   2.629   5.871   7.558  1.9375 -0.9883 -1.1820
   30SAPC  H13S 4019   2.630   5.815   7.397 -0.0363 -2.7783  1.3621
   30SAPC  C214 4020   2.470   5.731   7.530 -0.2535  0.2590  0.3850
   30SAPC  H14R 4021   2.481   5.636   7.477 -0.1963  0.3160  0.2947
   30SAPC  C215 4022   2.399   5.727   7.643 -0.8068 -0.0410 -0.2383
   30SAPC  H15R 4023   2.334   5.643   7.673 -2.3585  2.4942  4.0556
   30SAPC  C216 4024   2.396   5.831   7.753  0.5977 -1.0248 -0.1815
   30SAPC  H16R 4025   2.420   5.933   7.716  0.4816 -0.3693  1.4873
   30SAPC  H16S 4026   2.452   5.810   7.847  2.6220 -2.1023 -1.5910
   30SAPC  C217 4027   2.247   5.844   7.804 -0.2746  0.8736  0.0139
   30SAPC  H17R 4028   2.180   5.847   7.715 -0.3653 -2.0800 -0.0419
   30SAPC  H17S 4029   2.244   5.940   7.861 -0.2436  0.8795  0.0050
   30SAPC  C218 4030   2.198   5.726   7.894  0.3183 -0.3607  0.0517
   30SAPC  H18R 4031   2.277   5.703   7.970 -0.3259 -0.1717  0.7770
   30SAPC  H18S 4032   2.197   5.635   7.830  1.8462 -0.9048  0.7685
   30SAPC  C219 4033   2.071   5.757   7.977  0.0197  0.1807 -0.2141
   30SAPC  H19R 4034   2.091   5.841   8.047  0.4168 -1.0477  1.1730
   30SAPC  H19S 4035   2.045   5.675   8.048 -1.3964  0.9379  0.1622
   30SAPC  C220 4036   1.947   5.796   7.901  0.7475  0.1155  0.0169
   30SAPC  H20R 4037   1.857   5.792   7.965  0.6282 -1.2083 -0.2020
   30SAPC  H20S 4038   1.932   5.725   7.816  0.3835 -1.4245  1.3521
   30SAPC  H20T 4039   1.954   5.900   7.864 -2.0119 -0.0124 -0.9675
   30SAPC   C33 4040   1.839   5.983   6.619  0.0860 -0.8015  0.1870
   30SAPC   H3X 4041   1.895   6.079   6.627 -0.1156 -0.5057 -1.8141
   30SAPC   H3Y 4042   1.913   5.904   6.643  0.8233  0.2965  1.6223
   30SAPC   C34 4043   1.730   5.966   6.720  0.1445  0.2182 -1.5027
   30SAPC   H4X 4044   1.662   5.882   6.695 -0.3542  0.4475 -0.9315
   30SAPC   H4Y 4045   1.674   6.061   6.710 -0.7712 -0.2117 -0.5805
   30SAPC   C35 4046   1.790   5.952   6.864 -0.5990  0.1099 -0.5002
   30SAPC   H5X 4047   1.861   6.038   6.866 -0.7690  0.2938 -1.7408
   30SAPC   H5Y 4048   1.851   5.861   6.885  1.3340  1.8718  1.8680
   30SAPC   C36 4049   1.691   5.982   6.972  0.0786  0.5579 -0.1629
   30SAPC   H6X 4050   1.605   5.912   6.965  0.0785  0.5324  0.0967
   30SAPC   H6Y 4051   1.644   6.082   6.958  1.0392  1.2720  1.5180
   30SAPC   C37 4052   1.738   5.982   7.117  0.9766  0.8240  0.4426
   30SAPC   H7X 4053   1.822   6.054   7.132  2.4259 -0.2745 -2.1504
   30SAPC   H7Y 4054   1.789   5.888   7.146  0.2213  0.1967 -0.2454
   30SAPC   C38 4055   1.621   6.011   7.211 -0.3051 -0.1806 -0.3740
   30SAPC   H8X 4056   1.548   5.928   7.204  1.6118 -1.9258 -0.0839
   30SAPC   H8Y 4057   1.572   6.110   7.197 -0.4896  0.2740  3.1079
   30SAPC   C39 4058   1.665   6.009   7.367  0.0364  0.1270 -0.0011
   30SAPC   H9X 4059   1.749   5.936   7.374 -2.0029 -2.4532 -1.8054
   30SAPC   H9Y 4060   1.576   5.974   7.422  0.0195  1.4530  0.8436
   30SAPC  C310 4061   1.703   6.145   7.406  0.6246  0.5409 -0.5361
   30SAPC  H10X 4062   1.614   6.212   7.401  1.6677  1.9404 -0.7799
   30SAPC  H10Y 4063   1.777   6.177   7.330  0.5990  0.5991 -0.5360
   30SAPC  C311 4064   1.756   6.172   7.554  0.5429 -0.1245  0.4388
   30SAPC  H11X 4065   1.807   6.271   7.561  1.5189 -0.7208  2.2520
   30SAPC  H11Y 4066   1.841   6.103   7.575  2.0966  1.7216  0.3093
   30SAPC  C312 4067   1.652   6.133   7.656 -0.5599  0.7415 -0.4195
   30SAPC  H12X 4068   1.619   6.028   7.640  0.8219  0.1069  0.7293
   30SAPC  H12Y 4069   1.560   6.195   7.645  0.0197  1.5118 -0.9218
   30SAPC  C313 4070   1.716   6.139   7.797 -0.1948  0.0096  0.3367
   30SAPC  H13X 4071   1.747   6.244   7.817  1.6483 -0.3322 -0.6313
   30SAPC  H13Y 4072   1.805   6.073   7.802 -0.0861  0.0924 -0.5055
   30SAPC  C314 4073   1.625   6.096   7.909  0.5300 -0.6208 -0.1260
   30SAPC  H14X 4074   1.582   5.995   7.892 -2.1041  0.1576  1.6447
   30SAPC  H14Y 4075   1.544   6.172   7.913 -0.1093 -1.3253  0.4318
   30SAPC  C315 4076   1.702   6.100   8.044 -0.0508  0.1272  1.0251
   30SAPC  H15X 4077   1.751   6.199   8.057  2.7259 -0.6388 -2.5248
   30SAPC  H15Y 4078   1.771   6.015   8.060  2.1313  1.6590  0.0508
   30SAPC  C316 4079   1.612   6.072   8.163 -0.0251  0.4055  0.7059
   30SAPC  H16X 4080   1.559   5.975   8.163 -0.7588  0.7825 -1.4227
   30SAPC  H16Y 4081   1.527   6.142   8.156 -0.9753 -0.9769 -2.5626
   30SAPC  C317 4082   1.693   6.091   8.292 -0.9859 -0.1860 -0.0570
   30SAPC  H17X 4083   1.731   6.195   8.305  2.7097 -1.5091  0.5424
   30SAPC  H17Y 4084   1.790   6.037   8.296 -1.8735 -1.7721  0.2849
   30SAPC  C318 4085   1.611   6.054   8.421 -1.2080  0.4010  0.4678
   30SAPC  H18X 4086   1.650   6.077   8.523 -1.4268  1.0321  0.4095
   30SAPC  H18Y 4087   1.594   5.944   8.420  0.2149  0.1697  0.0638
   30SAPC  H18Z 4088   1.508   6.094   8.419 -1.0228  0.9178  1.2574
   31SAPC     N 4089   3.061   0.721   6.020  0.0971 -0.4450  0.0917
   31SAPC   C12 4090   2.915   0.692   6.045  0.6900  0.0099  0.1104
   31SAPC  H12A 4091   2.854   0.686   5.957  0.0027  0.0929  0.5795
   31SAPC  H12B 4092   2.887   0.766   6.118 -1.6040 -2.3247  1.7011
   31SAPC   C13 4093   3.069   0.853   5.945 -0.0570  0.0333 -0.5300
   31SAPC  H13A 4094   3.038   0.938   6.003  0.4081  0.9234 -1.5737
   31SAPC  H13B 4095   3.174   0.864   5.922  0.1050  2.3910  1.1806
   31SAPC  H13C 4096   3.005   0.852   5.858  2.3444 -1.0946 -2.3427
   31SAPC   C14 4097   3.138   0.738   6.146 -0.6334 -0.6935 -0.1403
   31SAPC  H14A 4098   3.138   0.653   6.214  0.8886 -0.0467  0.6843
   31SAPC  H14B 4099   3.241   0.744   6.117 -1.2824 -0.4636 -2.4684
   31SAPC  H14C 4100   3.109   0.825   6.202 -0.2851  0.2808 -1.4621
   31SAPC   C15 4101   3.121   0.612   5.929  0.2340  0.0368 -0.6126
   31SAPC  H15A 4102   3.057   0.601   5.843 -0.4767  1.7476 -0.3169
   31SAPC  H15B 4103   3.223   0.629   5.898 -0.3548  1.9952 -1.5803
   31SAPC  H15C 4104   3.132   0.521   5.986  0.3401 -0.2666 -1.1174
   31SAPC   C11 4105   2.875   0.562   6.117 -1.1895  0.1271  0.7382
   31SAPC  H11A 4106   2.926   0.477   6.066  0.7881  2.3737 -1.1420
   31SAPC  H11B 4107   2.767   0.538   6.105 -1.1077  1.6502 -3.9533
   31SAPC     P 4108   2.800   0.606   6.368  0.3116  0.2252  0.2791
   31SAPC   O13 4109   2.729   0.728   6.324 -0.3255  0.0313  0.0739
   31SAPC   O14 4110   2.719   0.489   6.386 -0.2516  0.2741 -0.2210
   31SAPC   O12 4111   2.914   0.577   6.257 -0.0411  0.0861  0.6431
   31SAPC   O11 4112   2.875   0.641   6.499 -0.1249  0.4764 -0.2368
   31SAPC    C1 4113   3.013   0.627   6.510  0.0225  0.7245 -0.1767
   31SAPC    HA 4114   3.042   0.535   6.455 -0.5494  1.1921 -1.2858
   31SAPC    HB 4115   3.057   0.710   6.451  0.9205  1.0124  0.8832
   31SAPC    C2 4116   3.040   0.607   6.667 -0.3539 -0.4696  0.6287
   31SAPC    HS 4117   3.137   0.555   6.679  1.4571  2.4247 -0.9612
   31SAPC   O21 4118   2.935   0.521   6.711 -0.2384  0.2594 -0.8406
   31SAPC   C21 4119   2.950   0.397   6.657  0.1753  0.0139 -0.4860
   31SAPC   O22 4120   3.048   0.355   6.602  0.0988 -0.4255  0.0819
   31SAPC   C22 4121   2.837   0.300   6.687 -0.2884 -0.0390 -0.0993
   31SAPC   H2R 4122   2.797   0.321   6.788 -0.8843 -0.3074 -0.2694
   31SAPC   H2S 4123   2.757   0.317   6.611 -1.5878  2.2965  1.7318
   31SAPC    C3 4124   3.026   0.738   6.750  0.1841  0.7570  0.5399
   31SAPC    HX 4125   2.930   0.779   6.714 -0.0240  0.3910  0.6701
   31SAPC    HY 4126   3.102   0.813   6.722  1.5790 -0.1635  1.7481
   31SAPC   O31 4127   3.038   0.703   6.894  0.9260  0.1388 -0.2204
   31SAPC   C31 4128   2.922   0.687   6.971  0.0423 -0.0138 -0.4637
   31SAPC   O32 4129   2.810   0.711   6.934 -0.2542  0.1151  0.2530
   31SAPC   C32 4130   2.957   0.638   7.118  0.1682  0.2054 -0.4067
   31SAPC   H2X 4131   3.060   0.676   7.136 -0.4257  2.7916 -2.1807
   31SAPC   H2Y 4132   2.960   0.528   7.107 -0.3649  0.3661 -2.4688
   31SAPC   C23 4133   2.882   0.148   6.671  0.2270  0.2569  0.3857
   31SAPC   H3R 4134   2.941   0.138   6.577 -1.6518 -0.6114 -0.7107
   31SAPC   H3S 4135   2.785   0.106   6.638  1.2461 -1.6955 -0.2180
   31SAPC   C24 4136   2.950   0.073   6.784  0.5972  0.2250  0.4753
   31SAPC   H4R 4137   2.957  -0.030   6.742  1.7444  0.5043 -0.0395
   31SAPC   H4S 4138   2.877   0.071   6.868  1.0003  0.8211  0.8404
   31SAPC   C25 4139   3.081   0.131   6.821 -0.3042  0.6934 -0.2741
   31SAPC   H5R 4140   3.133   0.186   6.742 -1.7038  1.4167 -0.7241
   31SAPC   C26 4141   3.143   0.106   6.936 -0.3068 -0.4505  0.0232
   31SAPC   H6R 4142   3.242   0.149   6.958 -0.4438  1.0324 -2.0806
   31SAPC   C27 4143   3.089   0.026   7.052  0.2182 -0.4406  0.6138
   31SAPC   H7R 4144   3.180  -0.016   7.100 -1.0607 -0.9399  2.6934
   31SAPC   H7S 4145   3.022  -0.061   7.033 -0.1492  0.1220 -0.7245
   31SAPC   C28 4146   3.037   0.114   7.168  0.1602 -0.4499 -0.1060
   31SAPC   H8R 4147   3.028   0.222   7.149  2.9568  0.2668  2.2077
   31SAPC   C29 4148   3.006   0.067   7.291  0.5122  0.7011 -0.0076
   31SAPC   H9R 4149   2.972   0.138   7.368  1.1329  0.3979  0.5523
   31SAPC  C210 4150   2.998  -0.075   7.346  0.3624  0.0016 -0.0049
   31SAPC  H10R 4151   2.992  -0.146   7.261  2.6643 -1.6175  1.1380
   31SAPC  H10S 4152   2.900  -0.078   7.399 -0.1816 -0.1757 -1.0049
   31SAPC  C211 4153   3.111  -0.113   7.437  0.7356  0.0051  0.4144
   31SAPC  H11R 4154   3.199  -0.152   7.385 -2.5424 -1.1792 -4.5817
   31SAPC  C212 4155   3.105  -0.086   7.568  0.3715 -0.0649  0.4101
   31SAPC  H12R 4156   3.193  -0.115   7.628  0.7162 -1.8053 -0.9260
   31SAPC  C213 4157   3.003  -0.019   7.649  0.4745 -0.2699 -0.2611
   31SAPC  H13R 4158   2.936   0.036   7.580 -1.1321 -2.9092 -0.8957
   31SAPC  H13S 4159   3.065   0.058   7.698  2.0720  0.0437 -2.6569
   31SAPC  C214 4160   2.943  -0.112   7.758 -0.1467 -0.7304 -0.5663
   31SAPC  H14R 4161   2.917  -0.211   7.718  0.1667 -1.2035  0.3989
   31SAPC  C215 4162   2.937  -0.100   7.890 -0.0066 -0.0484  0.2448
   31SAPC  H15R 4163   2.895  -0.184   7.946 -0.6953 -0.0729 -0.3108
   31SAPC  C216 4164   2.980   0.017   7.979  0.4346 -0.1302  0.8481
   31SAPC  H16R 4165   2.977   0.115   7.927  2.2712 -1.4787 -1.9140
   31SAPC  H16S 4166   3.089   0.010   8.001  0.6410 -3.0292 -0.7914
   31SAPC  C217 4167   2.904   0.022   8.113  0.5670  0.0604 -0.5890
   31SAPC  H17R 4168   2.938  -0.064   8.175 -2.5704 -2.1995 -1.8258
   31SAPC  H17S 4169   2.795   0.006   8.102  0.5382  1.5365 -2.7789
   31SAPC  C218 4170   2.928   0.148   8.196 -0.3602 -1.2257  0.6162
   31SAPC  H18R 4171   2.894   0.234   8.134 -1.4192 -1.3144  1.0586
   31SAPC  H18S 4172   3.038   0.162   8.203 -0.3579  0.5822 -2.1251
   31SAPC  C219 4173   2.861   0.151   8.332 -0.3589 -0.2034 -0.3686
   31SAPC  H19R 4174   2.913   0.068   8.384  0.0838  0.1954 -0.1676
   31SAPC  H19S 4175   2.756   0.114   8.330 -0.5581  0.3008  0.2747
   31SAPC  C220 4176   2.872   0.282   8.411  0.1783 -0.6589 -0.4425
   31SAPC  H20R 4177   2.967   0.335   8.389 -0.1864 -0.3974 -1.4022
   31SAPC  H20S 4178   2.881   0.254   8.518  2.0277  2.2604  0.1986
   31SAPC  H20T 4179   2.789   0.355   8.401 -1.7822 -2.3903  2.2910
   31SAPC   C33 4180   2.853   0.672   7.232 -0.6209  0.6328  0.3977
   31SAPC   H3X 4181   2.746   0.650   7.213 -1.2547  1.8246  2.3777
   31SAPC   H3Y 4182   2.858   0.783   7.241 -1.1634  0.5047  2.6533
   31SAPC   C34 4183   2.897   0.599   7.349 -0.1541 -0.6361 -0.3472
   31SAPC   H4X 4184   3.007   0.606   7.363 -0.2345  0.8572 -0.3742
   31SAPC   H4Y 4185   2.876   0.491   7.335 -0.3609 -0.4474 -1.5368
   31SAPC   C35 4186   2.825   0.649   7.480  0.9269 -0.1008 -0.0960
   31SAPC   H5X 4187   2.718   0.618   7.482  0.4953  1.1253 -2.1443
   31SAPC   H5Y 4188   2.823   0.760   7.483  0.6065 -0.1033 -0.1745
   31SAPC   C36 4189   2.890   0.585   7.604  0.2431 -0.1296 -0.1035
   31SAPC   H6X 4190   3.001   0.589   7.599  0.3165 -0.4665  1.0631
   31SAPC   H6Y 4191   2.849   0.482   7.609 -0.1199  0.0649  1.3262
   31SAPC   C37 4192   2.846   0.660   7.738  0.2512 -0.5055 -0.5503
   31SAPC   H7X 4193   2.738   0.646   7.757  0.4212 -1.6602 -0.4262
   31SAPC   H7Y 4194   2.857   0.768   7.714 -1.3332  0.1448  1.5177
   31SAPC   C38 4195   2.919   0.613   7.861 -0.2954  0.2159  0.1346
   31SAPC   H8X 4196   3.027   0.641   7.862 -0.6628  1.6978 -0.3183
   31SAPC   H8Y 4197   2.905   0.503   7.863 -2.1582  0.4466  1.1061
   31SAPC   C39 4198   2.859   0.675   7.985 -0.5336 -0.1673 -0.1624
   31SAPC   H9X 4199   2.748   0.672   7.979 -0.5065  0.8476 -1.1947
   31SAPC   H9Y 4200   2.883   0.782   8.006  0.2124 -0.3020 -0.2935
   31SAPC  C310 4201   2.890   0.602   8.119 -0.1417  0.0757  0.0901
   31SAPC  H10X 4202   2.999   0.587   8.133  0.2535  1.3367 -1.4913
   31SAPC  H10Y 4203   2.854   0.497   8.119 -0.6884  0.2538  2.0427
   31SAPC  C311 4204   2.823   0.660   8.252  0.1318  0.4371 -0.3211
   31SAPC  H11X 4205   2.842   0.592   8.338 -2.4148 -0.8136 -0.7182
   31SAPC  H11Y 4206   2.714   0.665   8.237 -0.1570 -1.3245  0.9913
   31SAPC  C312 4207   2.880   0.801   8.287 -1.1000 -0.2075  0.0765
   31SAPC  H12X 4208   2.849   0.865   8.201  3.5003  0.2831 -1.3540
   31SAPC  H12Y 4209   2.990   0.796   8.277 -0.8973  0.6146  1.7820
   31SAPC  C313 4210   2.845   0.869   8.419  0.4138  0.8398  0.1378
   31SAPC  H13X 4211   2.903   0.825   8.503  2.2620  1.0231 -1.0221
   31SAPC  H13Y 4212   2.742   0.835   8.442  0.1392 -0.3766 -2.7064
   31SAPC  C314 4213   2.843   1.022   8.417  0.3558 -0.6236  0.7461
   31SAPC  H14X 4214   2.769   1.066   8.347  1.0639 -1.1760 -0.3588
   31SAPC  H14Y 4215   2.945   1.054   8.387 -0.0502 -1.7298 -1.8839
   31SAPC  C315 4216   2.811   1.101   8.548  0.3524 -0.6516  0.2018
   31SAPC  H15X 4217   2.884   1.070   8.625  0.6286 -0.6056 -0.0435
   31SAPC  H15Y 4218   2.715   1.058   8.583  1.1887 -1.5084  1.4672
   31SAPC  C316 4219   2.789   1.250   8.534  0.1423 -0.2721 -0.4405
   31SAPC  H16X 4220   2.724   1.265   8.446 -0.0862 -0.0564 -0.2339
   31SAPC  H16Y 4221   2.889   1.281   8.495  0.0497 -0.2476 -0.6588
   31SAPC  C317 4222   2.745   1.345   8.655 -0.4280 -0.1209 -0.1024
   31SAPC  H17X 4223   2.736   1.441   8.601  0.4511  0.4193  0.6980
   31SAPC  H17Y 4224   2.832   1.345   8.725 -0.5329  2.9599  0.0697
   31SAPC  C318 4225   2.611   1.316   8.724 -0.5043  0.2258 -0.3929
   31SAPC  H18X 4226   2.583   1.384   8.807 -1.7540 -0.8877  0.1293
   31SAPC  H18Y 4227   2.614   1.220   8.781 -0.8325  0.3667 -0.1351
   31SAPC  H18Z 4228   2.534   1.290   8.648 -0.6364 -0.8904  0.1134
   32SAPC     N 4229   4.676   0.912   5.993 -0.6698  0.0499 -0.2924
   32SAPC   C12 4230   4.714   0.993   6.119 -0.3138 -0.6642  0.1376
   32SAPC  H12A 4231   4.773   1.081   6.097 -0.8100 -0.6269 -1.0497
   32SAPC  H12B 4232   4.776   0.937   6.187  1.4820 -0.3244 -1.1843
   32SAPC   C13 4233   4.602   0.790   6.039 -0.1368  0.1697  0.1982
   32SAPC  H13A 4234   4.657   0.718   6.098  0.5437 -0.1234 -0.7876
   32SAPC  H13B 4235   4.514   0.811   6.098 -0.6714 -0.8234 -0.2280
   32SAPC  H13C 4236   4.565   0.732   5.956 -2.2915  3.0295 -0.8946
   32SAPC   C14 4237   4.601   0.993   5.904 -0.0859 -0.0329  0.1791
   32SAPC  H14A 4238   4.522   1.031   5.968 -1.2023  0.5223 -1.4965
   32SAPC  H14B 4239   4.662   1.071   5.862  0.1781 -1.1092 -1.4670
   32SAPC  H14C 4240   4.556   0.939   5.822  0.7096 -0.8723  0.2916
   32SAPC   C15 4241   4.808   0.860   5.934 -0.1333 -0.3384  0.5773
   32SAPC  H15A 4242   4.877   0.941   5.917  0.2259 -0.7656 -0.0198
   32SAPC  H15B 4243   4.844   0.789   6.007  0.4029  0.6446  1.2849
   32SAPC  H15C 4244   4.792   0.806   5.842  1.3872 -1.2485  0.8257
   32SAPC   C11 4245   4.600   1.044   6.211 -0.1729  0.4442 -0.5580
   32SAPC  H11A 4246   4.643   1.116   6.284 -1.0154  0.8120 -0.4131
   32SAPC  H11B 4247   4.560   0.954   6.263  1.3380  1.5344  2.5748
   32SAPC     P 4248   4.344   1.109   6.169 -0.6863 -0.6761 -0.6157
   32SAPC   O13 4249   4.278   1.214   6.084 -0.1667  0.0708  0.2572
   32SAPC   O14 4250   4.304   0.964   6.148  0.4744  0.1564  0.1280
   32SAPC   O12 4251   4.500   1.120   6.138 -0.0532 -0.0908  0.6891
   32SAPC   O11 4252   4.344   1.143   6.322  0.3476 -0.7702  0.2822
   32SAPC    C1 4253   4.337   1.270   6.378  0.2269  0.4500  1.0367
   32SAPC    HA 4254   4.272   1.340   6.321 -1.4894 -1.3120  0.7843
   32SAPC    HB 4255   4.300   1.257   6.482 -1.2367 -3.0729  0.1416
   32SAPC    C2 4256   4.477   1.325   6.381 -0.5719 -0.1730 -0.0297
   32SAPC    HS 4257   4.510   1.329   6.275 -1.9936  0.1785 -0.4687
   32SAPC   O21 4258   4.553   1.257   6.476  0.5242  0.8877 -0.6431
   32SAPC   C21 4259   4.682   1.286   6.479 -0.1067  0.1627 -0.4537
   32SAPC   O22 4260   4.732   1.380   6.415 -0.2089 -0.2055  0.4225
   32SAPC   C22 4261   4.744   1.208   6.595 -0.2634  0.7192  0.0755
   32SAPC   H2R 4262   4.717   1.257   6.691 -0.5256  1.1886 -0.2369
   32SAPC   H2S 4263   4.708   1.103   6.589  1.2034  0.2029 -0.1305
   32SAPC    C3 4264   4.454   1.471   6.416 -0.5496 -1.0017  0.6496
   32SAPC    HX 4265   4.397   1.512   6.330  0.8174  2.4729  1.3380
   32SAPC    HY 4266   4.550   1.526   6.420 -0.3334 -1.3742  0.5977
   32SAPC   O31 4267   4.377   1.482   6.540 -0.1324 -0.0786  0.2283
   32SAPC   C31 4268   4.421   1.547   6.645  0.1537  0.6821 -0.6053
   32SAPC   O32 4269   4.534   1.590   6.664 -0.0097  0.0352 -0.1969
   32SAPC   C32 4270   4.295   1.569   6.725 -0.4970  0.1772 -0.0024
   32SAPC   H2X 4271   4.243   1.471   6.737  1.8017 -0.9868  0.5740
   32SAPC   H2Y 4272   4.237   1.643   6.665  2.8734  2.4486 -0.6100
   32SAPC   C23 4273   4.893   1.210   6.578 -0.1784 -0.6818  0.4900
   32SAPC   H3R 4274   4.934   1.310   6.555 -0.2320 -1.2796 -2.3387
   32SAPC   H3S 4275   4.925   1.142   6.496  0.4094  1.3111 -0.9845
   32SAPC   C24 4276   4.960   1.172   6.717  0.1595  0.5789  0.1113
   32SAPC   H4R 4277   4.912   1.254   6.775 -1.4190 -0.4508  0.2993
   32SAPC   H4S 4278   5.068   1.198   6.709  0.6040 -1.2468  0.1344
   32SAPC   C25 4279   4.929   1.034   6.768 -0.2099  0.9407  0.0620
   32SAPC   H5R 4280   4.821   1.015   6.775  0.0147 -0.3295  0.1980
   32SAPC   C26 4281   5.021   0.946   6.793  0.2300  0.5844 -0.3869
   32SAPC   H6R 4282   4.985   0.848   6.828 -1.2933  0.5656 -1.9273
   32SAPC   C27 4283   5.172   0.949   6.767 -0.4408  0.0856 -0.0954
   32SAPC   H7R 4284   5.211   1.052   6.779 -0.6699 -0.0674  2.2503
   32SAPC   H7S 4285   5.198   0.930   6.661  1.1875  2.3913 -0.1373
   32SAPC   C28 4286   5.254   0.841   6.840  0.0983  1.2046  0.0564
   32SAPC   H8R 4287   5.326   0.779   6.784 -2.9441 -1.3670 -1.1258
   32SAPC   C29 4288   5.262   0.828   6.972 -0.1006 -0.4392 -0.4430
   32SAPC   H9R 4289   5.333   0.761   7.023 -0.1681  0.8137  1.3689
   32SAPC  C210 4290   5.183   0.905   7.073  0.3335 -0.0836  0.1296
   32SAPC  H10R 4291   5.137   0.992   7.020  2.9006  2.3625  1.7238
   32SAPC  H10S 4292   5.253   0.944   7.150  2.3966  2.2569 -2.7806
   32SAPC  C211 4293   5.093   0.802   7.130 -0.7058 -0.1114 -0.1725
   32SAPC  H11R 4294   5.036   0.733   7.065 -0.5111 -0.2250 -0.2257
   32SAPC  C212 4295   5.066   0.782   7.259  0.8005  0.0234 -0.2863
   32SAPC  H12R 4296   5.005   0.696   7.291 -0.0081  1.0616  1.0279
   32SAPC  C213 4297   5.113   0.863   7.378 -0.0086  0.3897 -0.0810
   32SAPC  H13R 4298   5.021   0.921   7.401  0.1739  0.2189  1.1030
   32SAPC  H13S 4299   5.191   0.938   7.353 -1.6786  2.3398  0.4280
   32SAPC  C214 4300   5.157   0.791   7.504 -0.0830  0.6972  0.2227
   32SAPC  H14R 4301   5.229   0.709   7.491  0.9442  1.3344  1.7832
   32SAPC  C215 4302   5.104   0.809   7.629 -0.2188 -0.1129 -0.3006
   32SAPC  H15R 4303   5.149   0.760   7.716  1.8701 -1.6163 -2.1624
   32SAPC  C216 4304   5.005   0.916   7.673  0.0899 -0.3617  0.6609
   32SAPC  H16R 4305   4.929   0.873   7.742  0.4610 -2.5706 -0.2437
   32SAPC  H16S 4306   4.945   0.945   7.584  0.2070  0.3745  0.8245
   32SAPC  C217 4307   5.062   1.044   7.744  0.7486  0.2413  0.5127
   32SAPC  H17R 4308   4.973   1.103   7.775  0.0624 -0.4164 -0.1705
   32SAPC  H17S 4309   5.117   1.101   7.666  0.1460 -0.9841 -0.8370
   32SAPC  C218 4310   5.153   1.020   7.862  0.3116 -0.4014 -0.4309
   32SAPC  H18R 4311   5.194   1.118   7.897  0.4088 -0.8768  0.8059
   32SAPC  H18S 4312   5.231   0.945   7.840 -1.5841 -2.1536 -1.3752
   32SAPC  C219 4313   5.088   0.960   7.987  0.6215  0.4470 -0.7783
   32SAPC  H19R 4314   5.169   0.964   8.064 -1.2487 -3.2463  1.5256
   32SAPC  H19S 4315   5.059   0.854   7.973 -1.5115  1.3285 -3.3277
   32SAPC  C220 4316   4.961   1.024   8.031  0.4745  0.4957  0.7830
   32SAPC  H20R 4317   4.886   1.013   7.950  0.8438  0.5657  0.4280
   32SAPC  H20S 4318   4.968   1.134   8.039  1.7906  0.4812  0.1305
   32SAPC  H20T 4319   4.911   0.972   8.115  1.8316 -1.4041  0.4666
   32SAPC   C33 4320   4.320   1.610   6.870 -0.2812  0.2611  0.0907
   32SAPC   H3X 4321   4.344   1.718   6.878 -3.1693  0.9873 -0.6470
   32SAPC   H3Y 4322   4.411   1.560   6.910  0.6887  2.3759  0.5998
   32SAPC   C34 4323   4.205   1.583   6.965 -0.2357  1.4032  0.1527
   32SAPC   H4X 4324   4.209   1.472   6.975  0.3124  1.0548 -3.1573
   32SAPC   H4Y 4325   4.106   1.607   6.920 -0.3415  2.0271  0.7187
   32SAPC   C35 4326   4.233   1.661   7.090  1.1018  0.5579 -0.2200
   32SAPC   H5X 4327   4.138   1.667   7.147  0.5556 -0.8241 -0.9688
   32SAPC   H5Y 4328   4.265   1.766   7.074  1.7257  0.3559 -0.3274
   32SAPC   C36 4329   4.333   1.592   7.186 -1.1025 -0.0333 -0.2371
   32SAPC   H6X 4330   4.431   1.598   7.134 -0.9355  0.7092  0.1548
   32SAPC   H6Y 4331   4.293   1.489   7.197 -2.9252  0.7762  1.0042
   32SAPC   C37 4332   4.337   1.663   7.323 -0.3892  0.0700 -0.1777
   32SAPC   H7X 4333   4.245   1.640   7.382  0.5016 -1.7648  0.5417
   32SAPC   H7Y 4334   4.355   1.772   7.311  1.3986  0.2179  3.2643
   32SAPC   C38 4335   4.464   1.618   7.399 -0.0264  0.8991 -0.1480
   32SAPC   H8X 4336   4.475   1.678   7.492  1.8381  1.3691 -0.6327
   32SAPC   H8Y 4337   4.560   1.641   7.347  1.1099  2.2682  2.4091
   32SAPC   C39 4338   4.473   1.470   7.435  0.1949 -0.0804  0.0905
   32SAPC   H9X 4339   4.568   1.448   7.488  0.5645 -0.4731 -0.7317
   32SAPC   H9Y 4340   4.468   1.419   7.337 -4.0743  1.1002 -0.4078
   32SAPC  C310 4341   4.346   1.422   7.513 -0.3766  0.0270  0.3353
   32SAPC  H10X 4342   4.349   1.311   7.513 -0.9485 -0.0167 -1.7920
   32SAPC  H10Y 4343   4.247   1.446   7.468 -0.3609  0.8658  0.7358
   32SAPC  C311 4344   4.337   1.490   7.655  0.6081 -0.3419  0.5352
   32SAPC  H11X 4345   4.253   1.436   7.704  1.6353 -2.6332 -0.1633
   32SAPC  H11Y 4346   4.314   1.599   7.651 -0.2997 -0.5575 -0.3500
   32SAPC  C312 4347   4.448   1.472   7.750  0.0200  0.0564 -0.3969
   32SAPC  H12X 4348   4.538   1.522   7.707  0.3984  0.1458  0.4838
   32SAPC  H12Y 4349   4.474   1.364   7.750  0.5187  0.1643  1.0742
   32SAPC  C313 4350   4.423   1.542   7.885 -0.0329  0.6434  0.0141
   32SAPC  H13X 4351   4.327   1.500   7.922 -0.0842  1.1095  0.4055
   32SAPC  H13Y 4352   4.404   1.651   7.873 -0.1838  0.9116  2.4745
   32SAPC  C314 4353   4.540   1.530   7.975 -0.5870  0.5704 -0.6712
   32SAPC  H14X 4354   4.636   1.563   7.929  0.5363 -1.5994  0.0482
   32SAPC  H14Y 4355   4.565   1.426   8.002 -1.9449  0.5678  0.6192
   32SAPC  C315 4356   4.516   1.608   8.110 -0.4797 -0.1219 -0.1019
   32SAPC  H15X 4357   4.409   1.606   8.139 -1.0826 -1.5676 -2.3081
   32SAPC  H15Y 4358   4.529   1.715   8.080 -0.0064  0.0045  0.5210
   32SAPC  C316 4359   4.603   1.556   8.228  0.1697 -0.1178  0.3529
   32SAPC  H16X 4360   4.706   1.588   8.202 -0.6047 -0.4298 -3.3433
   32SAPC  H16Y 4361   4.591   1.445   8.229 -1.2470  0.0238  0.4256
   32SAPC  C317 4362   4.553   1.626   8.358 -0.0794  0.5917 -0.4997
   32SAPC  H17X 4363   4.454   1.580   8.378  1.6147 -1.8282  2.8653
   32SAPC  H17Y 4364   4.554   1.734   8.333  0.7066  0.5646 -0.6150
   32SAPC  C318 4365   4.631   1.585   8.488  0.2987 -0.2380  0.1550
   32SAPC  H18X 4366   4.637   1.475   8.500  1.3735 -0.1950  0.0178
   32SAPC  H18Y 4367   4.575   1.625   8.575  0.3295 -0.5599  0.3232
   32SAPC  H18Z 4368   4.730   1.636   8.483 -0.4120  1.1879  0.2163
   33POPC     N 4369   0.544   2.367  10.741  0.4210 -0.2067 -0.1493
   33POPC   C12 4370   0.567   2.519  10.728 -0.1712  0.7888 -0.1117
   33POPC  H12A 4371   0.508   2.574  10.799 -1.7864  0.0637 -0.8809
   33POPC  H12B 4372   0.535   2.553  10.630  0.6655  1.5157 -0.1464
   33POPC   C13 4373   0.574   2.330  10.879  0.1107  0.0374 -0.0314
   33POPC  H13A 4374   0.680   2.312  10.888  0.5283  2.3413 -0.0171
   33POPC  H13B 4375   0.551   2.405  10.953  0.8506  0.2068  0.0211
   33POPC  H13C 4376   0.530   2.235  10.908  1.6671 -1.0403 -1.1364
   33POPC   C14 4377   0.401   2.344  10.717  0.8068  0.2891 -0.2363
   33POPC  H14A 4378   0.341   2.383  10.798  0.6295  0.1980 -0.3250
   33POPC  H14B 4379   0.356   2.389  10.629  0.7030 -2.6766 -1.7725
   33POPC  H14C 4380   0.395   2.237  10.720  1.0040  0.2792 -0.1735
   33POPC   C15 4381   0.627   2.299  10.646  0.4349 -0.2557  0.5594
   33POPC  H15A 4382   0.725   2.344  10.654 -0.1404  1.4819 -1.4823
   33POPC  H15B 4383   0.597   2.324  10.545 -3.9232  1.0964  2.0464
   33POPC  H15C 4384   0.626   2.191  10.657 -0.7966 -0.1136  2.0033
   33POPC   C11 4385   0.713   2.570  10.734 -0.2091 -0.5155  0.3637
   33POPC  H11A 4386   0.757   2.545  10.833 -1.0810  1.9727  1.3986
   33POPC  H11B 4387   0.702   2.680  10.738 -1.9287 -0.7047  1.2927
   33POPC     P 4388   0.929   2.564  10.581  0.3980  0.0523 -0.3876
   33POPC   O13 4389   1.023   2.566  10.698  0.5397 -0.3595  0.1273
   33POPC   O14 4390   0.913   2.693  10.512 -0.1809 -0.5742 -0.1097
   33POPC   O12 4391   0.786   2.517  10.618 -0.5917  0.0722  0.3709
   33POPC   O11 4392   0.985   2.456  10.476 -0.1210  0.7631  0.2713
   33POPC    C1 4393   0.895   2.372  10.407 -0.1508  0.0849  0.5983
   33POPC    HA 4394   0.829   2.317  10.478 -1.5365 -1.2022 -1.6257
   33POPC    HB 4395   0.833   2.435  10.339 -1.1630  0.6276  1.9977
   33POPC    C2 4396   0.976   2.278  10.315  0.7654 -0.3237 -0.9568
   33POPC    HS 4397   1.054   2.225  10.374  0.3599  0.8019  0.6170
   33POPC   O21 4398   1.043   2.353  10.212  0.6648  0.3102  0.5109
   33POPC   C21 4399   1.163   2.396  10.233 -0.5131 -0.0428  0.7125
   33POPC   O22 4400   1.240   2.351  10.317 -0.0518 -0.0064  0.6953
   33POPC   C22 4401   1.201   2.506  10.129  0.4907 -0.4110 -0.4538
   33POPC   H2R 4402   1.213   2.611  10.163 -3.0400 -0.1255  0.0529
   33POPC   H2S 4403   1.118   2.507  10.056 -0.4213 -1.7520  0.5375
   33POPC    C3 4404   0.899   2.160  10.240  0.2337 -0.1027  0.0115
   33POPC    HX 4405   0.845   2.090  10.309 -0.7077  0.1212 -0.4920
   33POPC    HY 4406   0.965   2.081  10.199  0.7673 -0.0953  0.8398
   33POPC   O31 4407   0.802   2.206  10.145 -0.2083 -0.4679 -1.0287
   33POPC   C31 4408   0.854   2.215  10.021 -0.2352 -0.4831  0.5710
   33POPC   O32 4409   0.967   2.178   9.991  0.1861 -0.0593 -0.4700
   33POPC   C32 4410   0.758   2.296   9.930 -0.2494 -0.4382  0.1347
   33POPC   H2X 4411   0.695   2.360   9.995  2.2148  0.9004  1.2891
   33POPC   H2Y 4412   0.690   2.222   9.883 -0.3654 -0.3768  0.2061
   33POPC   C23 4413   1.328   2.479  10.045  0.2164 -0.4948 -0.1131
   33POPC   H3R 4414   1.414   2.479  10.116 -0.4121 -1.5621  0.6493
   33POPC   H3S 4415   1.354   2.571   9.989 -0.2456 -0.2792  0.0278
   33POPC   C24 4416   1.322   2.358   9.955  0.1977  0.8997 -0.2738
   33POPC   H4R 4417   1.291   2.267  10.011  0.2932  0.1408 -1.4262
   33POPC   H4S 4418   1.425   2.331   9.925  0.5015  3.9797 -2.2545
   33POPC   C25 4419   1.240   2.393   9.827  0.2291  0.0846 -0.4250
   33POPC   H5R 4420   1.282   2.488   9.788  2.1415 -0.6501 -0.1846
   33POPC   H5S 4421   1.130   2.410   9.829  0.2931  0.6842 -1.5105
   33POPC   C26 4422   1.246   2.270   9.730 -0.0361  0.8163  0.9235
   33POPC   H6R 4423   1.188   2.183   9.769  1.2546  1.0949  3.6308
   33POPC   H6S 4424   1.349   2.228   9.726  0.4261  2.1882 -2.5082
   33POPC   C27 4425   1.188   2.306   9.589  0.2453 -0.2400  0.1973
   33POPC   H7R 4426   1.100   2.370   9.610 -0.0215 -0.2376 -0.8954
   33POPC   H7S 4427   1.156   2.211   9.539 -0.4996 -0.1300  0.4590
   33POPC   C28 4428   1.279   2.385   9.494  0.0436  0.3927  0.1849
   33POPC   H8R 4429   1.307   2.479   9.545  2.4009  0.6831 -1.5535
   33POPC   H8S 4430   1.224   2.423   9.405  1.9373  0.7805 -0.8491
   33POPC   C29 4431   1.392   2.304   9.443  0.2294  0.0795  0.6457
   33POPC   H91 4432   1.461   2.268   9.521 -0.5425  0.6683  1.6130
   33POPC  C210 4433   1.416   2.263   9.316  0.0767 -0.1257 -0.2322
   33POPC  H101 4434   1.491   2.183   9.307 -2.9691 -3.5848  3.2288
   33POPC  C211 4435   1.336   2.297   9.191  0.5382 -0.7191 -0.1922
   33POPC  H11R 4436   1.398   2.363   9.126  1.6856 -2.1807 -0.5936
   33POPC  H11S 4437   1.239   2.348   9.211  0.7743  0.0604 -1.0136
   33POPC  C212 4438   1.308   2.158   9.124 -0.7658  0.1498  0.5020
   33POPC  H12R 4439   1.221   2.170   9.056 -0.5471 -0.7787  0.0563
   33POPC  H12S 4440   1.273   2.076   9.190  2.1099 -0.4303  1.3500
   33POPC  C213 4441   1.428   2.096   9.038 -0.2623 -0.2275 -0.6024
   33POPC  H13R 4442   1.394   2.012   8.975 -1.0291  0.6524 -1.3846
   33POPC  H13S 4443   1.512   2.061   9.102 -0.1429  0.0001 -0.6340
   33POPC  C214 4444   1.478   2.200   8.938 -0.2705 -0.4030  0.3873
   33POPC  H14R 4445   1.556   2.150   8.877  0.3521  2.2403 -1.0698
   33POPC  H14S 4446   1.522   2.285   8.995  2.2365 -0.4796 -1.3782
   33POPC  C215 4447   1.383   2.267   8.836  0.8139  0.1802  0.6014
   33POPC  H15R 4448   1.435   2.341   8.772  1.1290 -0.8611 -0.3734
   33POPC  H15S 4449   1.321   2.325   8.908  0.4565  0.9046 -0.2814
   33POPC  C216 4450   1.276   2.182   8.761 -0.5538  0.6183 -0.1236
   33POPC  H16R 4451   1.206   2.234   8.692 -0.5859 -1.0180 -1.3514
   33POPC  H16S 4452   1.217   2.132   8.840 -1.5693 -0.6911 -1.6973
   33POPC  C217 4453   1.349   2.075   8.672 -0.1056 -0.6587  0.0597
   33POPC  H17R 4454   1.433   2.029   8.728  1.6994 -0.2456 -2.2219
   33POPC  H17S 4455   1.396   2.135   8.591 -0.5554 -0.9963 -0.4546
   33POPC  C218 4456   1.268   1.970   8.604 -0.0378  0.6133 -0.7022
   33POPC  H18R 4457   1.162   1.966   8.637 -0.4725  2.6286 -1.7515
   33POPC  H18S 4458   1.309   1.869   8.622  1.5398  1.3583 -0.0724
   33POPC  H18T 4459   1.264   1.983   8.494 -0.0002  2.0868 -0.5372
   33POPC   C33 4460   0.840   2.383   9.829  0.2252  0.2458 -0.0553
   33POPC   H3X 4461   0.930   2.329   9.793  0.3857 -0.5019  1.4332
   33POPC   H3Y 4462   0.878   2.468   9.889 -0.6155 -0.2157  1.1664
   33POPC   C34 4463   0.758   2.430   9.699 -0.4453  0.1402 -0.2232
   33POPC   H4X 4464   0.809   2.516   9.650  0.7552  0.6638  1.8704
   33POPC   H4Y 4465   0.657   2.458   9.735 -0.2981 -1.4600  1.5207
   33POPC   C35 4466   0.729   2.326   9.595 -0.0697 -0.2937 -1.1886
   33POPC   H5X 4467   0.702   2.229   9.642  0.4753  0.4519  0.7271
   33POPC   H5Y 4468   0.821   2.312   9.535  0.2506  2.0666 -1.3049
   33POPC   C36 4469   0.607   2.361   9.502  0.0703 -0.4931  0.3289
   33POPC   H6X 4470   0.640   2.456   9.454 -1.1169  1.0177  2.4144
   33POPC   H6Y 4471   0.523   2.383   9.572  0.8883  2.8472  0.3562
   33POPC   C37 4472   0.598   2.253   9.393  0.2157  0.3373 -0.3744
   33POPC   H7X 4473   0.566   2.161   9.446  0.2754  0.9531  0.7459
   33POPC   H7Y 4474   0.690   2.236   9.332 -0.1677 -1.1604 -0.5484
   33POPC   C38 4475   0.483   2.270   9.289 -0.5038 -0.3124  0.2197
   33POPC   H8X 4476   0.518   2.357   9.230  2.1275 -0.8663  0.8877
   33POPC   H8Y 4477   0.379   2.275   9.328 -0.5122  0.2281  0.1298
   33POPC   C39 4478   0.482   2.152   9.184  0.6047 -0.3979  0.4398
   33POPC   H9X 4479   0.433   2.066   9.235  0.3572 -0.7574 -0.4001
   33POPC   H9Y 4480   0.588   2.119   9.180  0.5059 -0.5967 -0.7058
   33POPC  C310 4481   0.435   2.194   9.044 -0.0131  0.1704 -0.3071
   33POPC  H10X 4482   0.488   2.290   9.024 -1.3183  0.4838 -2.5763
   33POPC  H10Y 4483   0.324   2.203   9.046 -0.1137  0.2380 -3.2331
   33POPC  C311 4484   0.480   2.096   8.930  0.2120  0.6678  0.1938
   33POPC  H11X 4485   0.441   1.994   8.949 -0.7884  1.5721  3.4667
   33POPC  H11Y 4486   0.591   2.097   8.927  0.1853  2.3764 -1.1613
   33POPC  C312 4487   0.433   2.137   8.790 -0.2661  0.2520  0.5217
   33POPC  H12X 4488   0.322   2.133   8.795 -0.2247  1.0877  2.3488
   33POPC  H12Y 4489   0.465   2.075   8.704 -2.7816 -1.5108  0.8178
   33POPC  C313 4490   0.483   2.280   8.762  0.1618  0.3044  0.7075
   33POPC  H13X 4491   0.594   2.291   8.771  0.2557 -1.5903  2.4161
   33POPC  H13Y 4492   0.437   2.343   8.841 -1.3954 -0.4015  0.3731
   33POPC  C314 4493   0.446   2.324   8.616  0.2823 -0.8864  0.6121
   33POPC  H14X 4494   0.336   2.313   8.606 -0.1208  2.8439  0.4024
   33POPC  H14Y 4495   0.498   2.258   8.542  0.3474  0.3226 -0.4422
   33POPC  C315 4496   0.482   2.470   8.584 -0.4424  0.3261  0.3714
   33POPC  H15X 4497   0.593   2.478   8.588 -0.2605 -0.1746 -2.6957
   33POPC  H15Y 4498   0.443   2.536   8.664 -1.0167 -0.9839  1.1958
   33POPC  C316 4499   0.441   2.514   8.446 -0.7371 -0.0354 -0.3122
   33POPC  H16X 4500   0.501   2.605   8.428 -0.2450 -0.1851  0.5689
   33POPC  H16Y 4501   0.334   2.544   8.440  0.0016  2.6095 -0.9351
   33POPC  H16Z 4502   0.470   2.439   8.369  1.9838  0.0656  0.5865
   34POPC     N 4503   0.181   3.197  10.784  0.4141  0.2875  0.4401
   34POPC   C12 4504   0.141   3.085  10.682  0.2458  0.8003 -0.4085
   34POPC  H12A 4505   0.098   3.139  10.598  2.1007 -2.1064 -3.3697
   34POPC  H12B 4506   0.064   3.022  10.725  0.8511 -0.2303 -0.8244
   34POPC   C13 4507   0.071   3.298  10.801 -0.4444  0.0188  0.0303
   34POPC  H13A 4508   0.034   3.344  10.711  1.7313 -0.1618 -0.9657
   34POPC  H13B 4509  -0.010   3.257  10.860  1.6882 -0.8144  2.4903
   34POPC  H13C 4510   0.110   3.387  10.848  1.7163 -0.3508 -1.0127
   34POPC   C14 4511   0.216   3.159  10.920 -0.1537  0.6437  0.3883
   34POPC  H14A 4512   0.141   3.091  10.957 -0.6810  0.2937 -1.2945
   34POPC  H14B 4513   0.302   3.094  10.918  0.0413  0.9331 -0.9510
   34POPC  H14C 4514   0.237   3.245  10.982  1.4554 -0.1036  0.9016
   34POPC   C15 4515   0.297   3.271  10.724 -0.2455  0.5490  0.7596
   34POPC  H15A 4516   0.273   3.323  10.633  0.4268  0.4648  0.5258
   34POPC  H15B 4517   0.387   3.213  10.705 -1.2735 -1.8545  2.9011
   34POPC  H15C 4518   0.333   3.335  10.803  5.1909 -0.5924 -0.5768
   34POPC   C11 4519   0.251   2.992  10.628  0.0738 -0.0662 -0.1355
   34POPC  H11A 4520   0.320   3.055  10.568 -0.4102 -0.3627 -1.0058
   34POPC  H11B 4521   0.193   2.917  10.570  1.9575 -1.9957  0.3633
   34POPC     P 4522   0.468   2.913  10.752 -0.0265 -0.1860 -0.1820
   34POPC   O13 4523   0.504   2.856  10.888 -0.9000  0.4716  0.3318
   34POPC   O14 4524   0.531   3.043  10.722 -1.1169  0.7341 -0.2418
   34POPC   O12 4525   0.310   2.926  10.741 -0.3068 -0.6383  0.0170
   34POPC   O11 4526   0.500   2.794  10.646  0.0920 -0.2206 -0.4832
   34POPC    C1 4527   0.550   2.840  10.520  0.0641 -0.1048  0.1315
   34POPC    HA 4528   0.655   2.874  10.530  0.5421 -1.5105 -0.0565
   34POPC    HB 4529   0.488   2.922  10.477  2.1077 -0.4640 -3.7090
   34POPC    C2 4530   0.545   2.722  10.423  0.0743  0.4763  0.2462
   34POPC    HS 4531   0.570   2.629  10.478  1.3713 -1.1083 -2.8844
   34POPC   O21 4532   0.627   2.756  10.310 -0.1839 -0.1188 -0.0416
   34POPC   C21 4533   0.653   2.648  10.237  0.0512  0.7002  0.0036
   34POPC   O22 4534   0.616   2.533  10.264  0.0456  0.4136 -0.0798
   34POPC   C22 4535   0.738   2.677  10.118 -0.5778  0.6470  0.8714
   34POPC   H2R 4536   0.819   2.602  10.131 -0.8194  0.1398 -0.5036
   34POPC   H2S 4537   0.779   2.780  10.122 -0.5320  0.6587  0.1626
   34POPC    C3 4538   0.393   2.705  10.375 -1.3286 -0.8720  0.0584
   34POPC    HX 4539   0.334   2.695  10.469 -1.3088  0.6817  0.2431
   34POPC    HY 4540   0.387   2.609  10.320  1.4537 -0.0193 -1.8341
   34POPC   O31 4541   0.348   2.813  10.294 -0.1563 -0.4642  0.0236
   34POPC   C31 4542   0.273   2.784  10.188  0.2032 -0.4850 -0.5227
   34POPC   O32 4543   0.234   2.675  10.164  0.0704  0.8604 -0.1145
   34POPC   C32 4544   0.241   2.904  10.106  0.6523 -0.2250 -0.5297
   34POPC   H2X 4545   0.334   2.942  10.059  1.9046 -1.8095  0.5997
   34POPC   H2Y 4546   0.180   2.975  10.165  1.1392  0.8319 -1.2907
   34POPC   C23 4547   0.662   2.660   9.989 -0.2485  0.7637  0.3462
   34POPC   H3R 4548   0.616   2.558   9.993  0.2627  0.5894  2.1718
   34POPC   H3S 4549   0.730   2.671   9.902  0.5651  1.5630  1.0789
   34POPC   C24 4550   0.562   2.779   9.960 -0.4727 -0.0118  0.3524
   34POPC   H4R 4551   0.620   2.873   9.969 -0.9125  0.0188  3.4808
   34POPC   H4S 4552   0.486   2.765  10.040 -0.3686  1.2802  0.6858
   34POPC   C25 4553   0.502   2.773   9.822  0.3915  0.3610  0.3072
   34POPC   H5R 4554   0.399   2.813   9.829  0.1115 -0.1369 -0.8103
   34POPC   H5S 4555   0.487   2.672   9.779 -0.6189 -0.1618  1.8536
   34POPC   C26 4556   0.572   2.838   9.708 -0.1128 -0.3211  0.0658
   34POPC   H6R 4557   0.676   2.802   9.723  0.1249 -0.3354 -1.4772
   34POPC   H6S 4558   0.585   2.948   9.718  2.8296 -0.6705  0.5722
   34POPC   C27 4559   0.533   2.795   9.561  0.8339  0.2969  0.0833
   34POPC   H7R 4560   0.533   2.687   9.536 -1.1863  0.2193  0.3291
   34POPC   H7S 4561   0.608   2.828   9.487  0.3517 -1.3833 -1.1883
   34POPC   C28 4562   0.396   2.851   9.519 -0.8804  0.0364  1.1049
   34POPC   H8R 4563   0.388   2.956   9.553  0.4493  0.2602  0.7260
   34POPC   H8S 4564   0.320   2.781   9.560 -0.0619 -0.4319  1.8487
   34POPC   C29 4565   0.390   2.848   9.367  0.2669 -0.1253  0.5043
   34POPC   H91 4566   0.482   2.893   9.327 -0.5137  1.9970  1.0330
   34POPC  C210 4567   0.304   2.793   9.278 -1.1489 -0.7695  0.3636
   34POPC  H101 4568   0.329   2.795   9.171  1.2490  1.2754  0.9196
   34POPC  C211 4569   0.181   2.717   9.308  0.0369 -0.0730 -0.0587
   34POPC  H11R 4570   0.104   2.784   9.264 -0.2376 -1.8010 -2.3276
   34POPC  H11S 4571   0.161   2.696   9.415 -1.5251  0.8332 -0.1550
   34POPC  C212 4572   0.172   2.597   9.231  0.2530 -0.1955  0.1716
   34POPC  H12R 4573   0.070   2.557   9.248 -0.4479  0.8842 -1.3053
   34POPC  H12S 4574   0.249   2.524   9.263  1.9157  0.4108 -2.2992
   34POPC  C213 4575   0.187   2.605   9.080  0.1305 -0.0698 -0.2774
   34POPC  H13R 4576   0.284   2.642   9.039  0.3813  0.1725  0.5183
   34POPC  H13S 4577   0.113   2.685   9.061 -3.2188 -2.8954  0.4663
   34POPC  C214 4578   0.159   2.474   9.005  0.2428  0.1826 -0.4647
   34POPC  H14R 4579   0.059   2.443   9.044  1.4962  0.1543  2.8293
   34POPC  H14S 4580   0.231   2.396   9.035 -2.1987 -1.7854  0.5020
   34POPC  C215 4581   0.156   2.478   8.851  0.1114 -0.1497  0.0984
   34POPC  H15R 4582   0.257   2.497   8.808 -0.8167  0.2497 -2.0023
   34POPC  H15S 4583   0.100   2.569   8.819  2.3844  0.9556 -0.8436
   34POPC  C216 4584   0.108   2.348   8.788  0.2204  0.1746  0.5517
   34POPC  H16R 4585   0.145   2.270   8.858 -0.9486 -0.7235  0.1812
   34POPC  H16S 4586   0.150   2.320   8.689  0.8856 -0.8961  1.1371
   34POPC  C217 4587  -0.039   2.337   8.770  0.0725  0.2137 -0.3065
   34POPC  H17R 4588  -0.110   2.421   8.754 -2.1045 -1.5394 -0.2323
   34POPC  H17S 4589  -0.074   2.289   8.864 -2.4194 -0.7825 -1.6823
   34POPC  C218 4590  -0.073   2.241   8.654  0.3158  1.2377 -0.8280
   34POPC  H18R 4591  -0.040   2.268   8.552 -1.6097  0.3350 -1.7090
   34POPC  H18S 4592  -0.183   2.229   8.642  0.5629 -0.6633 -1.3096
   34POPC  H18T 4593  -0.019   2.145   8.671 -1.0157  0.6345  0.0683
   34POPC   C33 4594   0.146   2.859   9.992 -0.3957 -0.4572  0.5144
   34POPC   H3X 4595   0.067   2.813  10.055  0.4032 -0.9625  1.1624
   34POPC   H3Y 4596   0.186   2.779   9.926  0.7832  1.3971 -1.0669
   34POPC   C34 4597   0.094   2.977   9.910  0.5218  0.2668 -0.6033
   34POPC   H4X 4598   0.188   3.028   9.881  1.3940  0.3018  2.1783
   34POPC   H4Y 4599   0.040   3.050   9.975  0.0056  0.1818 -0.9312
   34POPC   C35 4600   0.017   2.948   9.780 -0.3819  0.3173 -0.8414
   34POPC   H5X 4601  -0.088   2.919   9.802  0.8511 -2.2938  1.9983
   34POPC   H5Y 4602   0.064   2.861   9.728  2.1181  0.7021  0.6939
   34POPC   C36 4603   0.005   3.071   9.697 -0.1550 -0.6633  0.9111
   34POPC   H6X 4604   0.104   3.093   9.651 -0.3434 -1.0043  0.3202
   34POPC   H6Y 4605  -0.026   3.160   9.755  0.8793  1.2615 -1.3897
   34POPC   C37 4606  -0.093   3.058   9.581  0.3234 -0.2924 -0.6830
   34POPC   H7X 4607  -0.097   3.159   9.533  1.7319  0.4411  0.7043
   34POPC   H7Y 4608  -0.197   3.033   9.613  1.0792 -0.5976  1.6398
   34POPC   C38 4609  -0.062   2.956   9.474  0.2445  0.6662  0.0022
   34POPC   H8X 4610  -0.026   2.867   9.530 -0.5645 -0.3709 -1.0826
   34POPC   H8Y 4611   0.021   2.986   9.407  0.4392 -0.2826 -0.1950
   34POPC   C39 4612  -0.182   2.946   9.373  0.3660  0.1246 -0.3777
   34POPC   H9X 4613  -0.206   3.051   9.348  2.0117  1.8419  4.5809
   34POPC   H9Y 4614  -0.267   2.902   9.430 -1.6284  1.9564 -1.8496
   34POPC  C310 4615  -0.138   2.863   9.256  0.7630 -0.5548 -0.0227
   34POPC  H10X 4616  -0.108   2.764   9.297 -0.1549 -1.0977 -0.6411
   34POPC  H10Y 4617  -0.047   2.912   9.213  0.8421  1.2927  2.1458
   34POPC  C311 4618  -0.233   2.841   9.135  0.4002  0.7484 -0.1888
   34POPC  H11X 4619  -0.301   2.929   9.125 -0.2923  0.5673  2.6361
   34POPC  H11Y 4620  -0.296   2.753   9.163  1.6789 -0.3124 -0.6361
   34POPC  C312 4621  -0.169   2.785   9.004 -0.5281  0.4632 -0.8211
   34POPC  H12X 4622  -0.111   2.695   9.033 -0.9884  0.2020 -0.7020
   34POPC  H12Y 4623  -0.090   2.859   8.981 -0.8176  0.2666 -2.4916
   34POPC  C313 4624  -0.269   2.739   8.890  0.7365  0.7596  0.1355
   34POPC  H13X 4625  -0.338   2.662   8.928 -0.2159  1.3953 -0.2815
   34POPC  H13Y 4626  -0.207   2.706   8.804 -0.3697 -0.9164 -0.0341
   34POPC  C314 4627  -0.356   2.854   8.836 -0.3105  0.2319 -1.0386
   34POPC  H14X 4628  -0.292   2.942   8.814  2.0644 -0.9932  0.6422
   34POPC  H14Y 4629  -0.417   2.886   8.923 -0.1127  0.9307 -1.1534
   34POPC  C315 4630  -0.433   2.825   8.710  0.5035 -0.3916  0.5232
   34POPC  H15X 4631  -0.504   2.739   8.715 -0.4172  0.3833  1.0369
   34POPC  H15Y 4632  -0.366   2.785   8.631 -0.6243 -0.2472 -0.5250
   34POPC  C316 4633  -0.505   2.953   8.648  0.0594  0.0940 -0.0281
   34POPC  H16X 4634  -0.598   2.965   8.706  0.7232  1.7220  0.7201
   34POPC  H16Y 4635  -0.533   2.936   8.542 -0.0817  2.3972 -0.3775
   34POPC  H16Z 4636  -0.439   3.042   8.656  0.5851 -0.2960  0.0714
   35POPC     N 4637   6.507   6.698  11.251  0.2640 -0.3676 -0.2586
   35POPC   C12 4638   6.569   6.746  11.114 -0.0091 -0.0089  0.0853
   35POPC  H12A 4639   6.576   6.854  11.107 -0.4757 -0.0372 -0.9292
   35POPC  H12B 4640   6.497   6.729  11.036 -0.5973 -1.3432  0.9113
   35POPC   C13 4641   6.591   6.745  11.362 -0.0797 -0.2697 -0.1159
   35POPC  H13A 4642   6.597   6.853  11.353 -1.2432 -0.0832  1.1562
   35POPC  H13B 4643   6.566   6.707  11.460  1.0307 -1.0715 -0.1319
   35POPC  H13C 4644   6.691   6.717  11.331 -0.2630 -0.4806 -0.5208
   35POPC   C14 4645   6.368   6.745  11.271  0.0638 -0.7828 -0.1032
   35POPC  H14A 4646   6.299   6.713  11.195  0.4768  0.0951 -0.8639
   35POPC  H14B 4647   6.332   6.708  11.366 -1.1925 -3.1155 -1.4428
   35POPC  H14C 4648   6.362   6.853  11.265  2.5141 -0.5802  0.6859
   35POPC   C15 4649   6.500   6.552  11.255  0.0140  0.0825 -0.0373
   35POPC  H15A 4650   6.599   6.511  11.251 -0.3808 -0.7798 -1.5715
   35POPC  H15B 4651   6.446   6.510  11.170  0.6783 -0.7281 -0.0680
   35POPC  H15C 4652   6.457   6.512  11.345  1.9545 -1.9317  0.0280
   35POPC   C11 4653   6.706   6.684  11.070 -0.8448  0.3022  0.2086
   35POPC  H11A 4654   6.736   6.702  10.964  1.2301 -2.4700  0.2754
   35POPC  H11B 4655   6.697   6.573  11.067  0.8941  0.1775 -2.2166
   35POPC     P 4656   6.858   6.873  11.143 -0.0960  0.0335  0.3319
   35POPC   O13 4657   6.995   6.892  11.188  0.5604  0.4382 -0.1286
   35POPC   O14 4658   6.758   6.958  11.208 -0.6829 -0.0005 -0.0874
   35POPC   O12 4659   6.808   6.721  11.167  0.1619  0.6629  0.2505
   35POPC   O11 4660   6.849   6.892  10.987  0.1545 -0.0206 -0.5244
   35POPC    C1 4661   6.745   6.976  10.925  0.0657  0.0986  0.9511
   35POPC    HA 4662   6.772   7.083  10.937 -3.3755  1.2177 -0.6304
   35POPC    HB 4663   6.647   6.964  10.976  0.4734  0.7924  1.9106
   35POPC    C2 4664   6.731   6.934  10.776 -0.4567  0.3826  0.2326
   35POPC    HS 4665   6.684   6.834  10.789 -1.8519  1.1433  1.2132
   35POPC   O21 4666   6.859   6.937  10.716 -0.3866 -0.1998  0.7373
   35POPC   C21 4667   6.873   6.834  10.629  0.1642 -0.7297  0.0066
   35POPC   O22 4668   6.793   6.752  10.592 -0.1617  0.1285 -0.1046
   35POPC   C22 4669   7.020   6.831  10.588  0.6462  0.0764 -0.7529
   35POPC   H2R 4670   7.086   6.800  10.672  1.5407  0.8367 -1.1676
   35POPC   H2S 4671   7.052   6.936  10.572 -0.6550  1.0469  2.5523
   35POPC    C3 4672   6.641   7.033  10.706 -0.8414  0.4865 -0.0519
   35POPC    HX 4673   6.696   7.129  10.707 -2.6466  1.5637 -1.0463
   35POPC    HY 4674   6.549   7.041  10.768  0.2739  1.5316  1.5030
   35POPC   O31 4675   6.603   6.986  10.571  0.6302  0.0719 -0.4269
   35POPC   C31 4676   6.641   7.065  10.468  0.4568  0.6695 -0.5858
   35POPC   O32 4677   6.712   7.161  10.476 -0.2750 -0.2563  0.6031
   35POPC   C32 4678   6.581   7.010  10.332  0.0530 -0.4774 -0.2098
   35POPC   H2X 4679   6.570   7.102  10.270 -3.1512 -0.9563 -0.4429
   35POPC   H2Y 4680   6.479   6.973  10.353 -1.0837  2.1794 -0.8071
   35POPC   C23 4681   7.045   6.747  10.465 -0.4129 -0.2574  0.8582
   35POPC   H3R 4682   6.973   6.783  10.388  1.0892  0.3716 -0.2828
   35POPC   H3S 4683   7.018   6.640  10.477  1.0262 -0.9989 -2.1150
   35POPC   C24 4684   7.183   6.769  10.396  0.7877 -0.1128  0.2484
   35POPC   H4R 4685   7.255   6.723  10.467  1.2733  0.5376  0.1809
   35POPC   H4S 4686   7.206   6.877  10.409 -0.0311 -0.1747  2.3510
   35POPC   C25 4687   7.187   6.708  10.250 -0.2691  0.5744 -0.0096
   35POPC   H5R 4688   7.173   6.599  10.261  1.3571  0.4937  1.6340
   35POPC   H5S 4689   7.290   6.725  10.211 -0.3316 -0.8236 -0.7830
   35POPC   C26 4690   7.090   6.764  10.149 -0.1133 -0.3002  0.5535
   35POPC   H6R 4691   7.090   6.873  10.169  0.9293 -0.6537  2.6448
   35POPC   H6S 4692   6.991   6.714  10.163  0.0331  0.3190  4.2863
   35POPC   C27 4693   7.142   6.724  10.010 -0.4695 -0.5769  0.1136
   35POPC   H7R 4694   7.160   6.614  10.007  1.3872 -0.3306  1.1799
   35POPC   H7S 4695   7.235   6.784   9.997 -1.3126  0.5410 -0.9104
   35POPC   C28 4696   7.049   6.768   9.899  0.4553  0.8359  0.3591
   35POPC   H8R 4697   7.013   6.871   9.920  1.1719  0.9665  0.9877
   35POPC   H8S 4698   6.952   6.716   9.913 -0.7647  2.9969  0.0427
   35POPC   C29 4699   7.104   6.754   9.757  0.2760 -0.9189  0.0445
   35POPC   H91 4700   7.192   6.816   9.737  0.1619 -0.5221  0.7644
   35POPC  C210 4701   7.042   6.686   9.659 -0.9121  0.0244 -0.0617
   35POPC  H101 4702   7.086   6.684   9.558  1.7537 -0.6191  1.0569
   35POPC  C211 4703   6.913   6.611   9.666  0.1107 -0.4356 -0.2862
   35POPC  H11R 4704   6.844   6.684   9.714  1.7379  0.9133  0.0404
   35POPC  H11S 4705   6.916   6.525   9.736  1.1028 -1.0745 -1.1012
   35POPC  C212 4706   6.841   6.568   9.530  0.0566  0.6415  0.3022
   35POPC  H12R 4707   6.738   6.535   9.557  0.3007 -1.4037 -1.1524
   35POPC  H12S 4708   6.899   6.484   9.486  1.8055  2.3912 -0.8084
   35POPC  C213 4709   6.827   6.692   9.430 -0.1348 -0.6188 -0.4585
   35POPC  H13R 4710   6.929   6.714   9.394  0.6783  0.3009  2.2672
   35POPC  H13S 4711   6.802   6.782   9.491  3.3542 -0.8902  1.5302
   35POPC  C214 4712   6.737   6.683   9.312  0.7356  0.8255  0.1421
   35POPC  H14R 4713   6.738   6.779   9.257  0.4201 -0.1875 -1.6593
   35POPC  H14S 4714   6.632   6.671   9.349  0.6284 -1.6777 -0.9013
   35POPC  C215 4715   6.793   6.573   9.217 -0.0902 -0.3225  0.3577
   35POPC  H15R 4716   6.825   6.485   9.276  1.4262  0.4729  0.7614
   35POPC  H15S 4717   6.886   6.614   9.172 -0.9620  2.0593  0.6301
   35POPC  C216 4718   6.703   6.522   9.104  0.0248  0.9550  0.5799
   35POPC  H16R 4719   6.779   6.484   9.033  0.4080  2.3036  0.2469
   35POPC  H16S 4720   6.649   6.609   9.060  0.5397  0.4775 -1.0231
   35POPC  C217 4721   6.614   6.400   9.129  0.7719 -0.0218  0.1522
   35POPC  H17R 4722   6.679   6.319   9.169  0.1896 -0.4204  0.3106
   35POPC  H17S 4723   6.575   6.364   9.031  3.7225 -0.2110 -1.0124
   35POPC  C218 4724   6.489   6.425   9.221 -0.1780  0.1697  0.4336
   35POPC  H18R 4725   6.504   6.478   9.317  0.0287  2.2687 -0.7383
   35POPC  H18S 4726   6.461   6.322   9.253  2.2846 -0.5982  0.2558
   35POPC  H18T 4727   6.409   6.482   9.170  1.2047  2.3623  0.6194
   35POPC   C33 4728   6.653   6.884  10.275 -0.0047 -0.0051 -0.1364
   35POPC   H3X 4729   6.626   6.793  10.332  1.8093 -0.5680 -0.1549
   35POPC   H3Y 4730   6.762   6.906  10.277 -0.5179  3.1541 -2.2185
   35POPC   C34 4731   6.602   6.845  10.134  0.1868  0.0503 -0.0867
   35POPC   H4X 4732   6.492   6.860  10.131 -0.2257 -2.7999 -3.4166
   35POPC   H4Y 4733   6.622   6.736  10.122  0.5733  0.3095 -2.0588
   35POPC   C35 4734   6.683   6.919  10.027  0.7602 -1.0505 -0.8170
   35POPC   H5X 4735   6.787   6.926  10.066  0.1233  0.8241  0.6638
   35POPC   H5Y 4736   6.655   7.026  10.022  2.1403 -0.6795 -0.9576
   35POPC   C36 4737   6.692   6.857   9.886 -0.4164 -0.2942 -0.2332
   35POPC   H6X 4738   6.703   6.747   9.882  0.1179 -0.1698 -3.1100
   35POPC   H6Y 4739   6.783   6.906   9.843  1.6967 -0.4368  3.8580
   35POPC   C37 4740   6.568   6.892   9.808 -1.6701  0.1411 -0.2642
   35POPC   H7X 4741   6.566   7.002   9.795  1.1073  0.4319  1.4128
   35POPC   H7Y 4742   6.474   6.855   9.856 -0.3038 -0.7366  1.8142
   35POPC   C38 4743   6.576   6.835   9.669  0.6194  0.2264  0.6014
   35POPC   H8X 4744   6.581   6.725   9.681 -0.2862  0.2826  1.5374
   35POPC   H8Y 4745   6.663   6.886   9.624  2.1835 -1.4889  1.6126
   35POPC   C39 4746   6.459   6.870   9.585  0.5978 -0.6690 -0.0003
   35POPC   H9X 4747   6.498   6.914   9.491 -0.5046  1.2308  0.3945
   35POPC   H9Y 4748   6.397   6.947   9.636  0.6256  1.7269 -3.3648
   35POPC  C310 4749   6.365   6.753   9.548  0.4836  0.0167  0.7540
   35POPC  H10X 4750   6.316   6.713   9.639 -3.0376 -0.4930 -1.2823
   35POPC  H10Y 4751   6.426   6.669   9.507  0.2941 -0.1192  0.7472
   35POPC  C311 4752   6.266   6.782   9.444  0.5059  0.0819  0.1608
   35POPC  H11X 4753   6.202   6.869   9.471 -0.2048  0.3460 -2.3056
   35POPC  H11Y 4754   6.207   6.692   9.417  2.4134 -1.3415  0.6807
   35POPC  C312 4755   6.337   6.840   9.310 -0.8496  0.3385 -0.9864
   35POPC  H12X 4756   6.434   6.787   9.296 -1.7165 -1.4985 -0.1997
   35POPC  H12Y 4757   6.355   6.946   9.337 -0.8899  0.0349  0.2428
   35POPC  C313 4758   6.246   6.829   9.189 -0.1217 -0.5397  0.0391
   35POPC  H13X 4759   6.152   6.888   9.203  0.4168  0.8174 -1.8010
   35POPC  H13Y 4760   6.219   6.723   9.176  4.0405 -1.7475  0.4607
   35POPC  C314 4761   6.322   6.894   9.067 -0.6905  0.2799  1.1404
   35POPC  H14X 4762   6.374   6.986   9.101 -1.2368  1.5866 -1.4249
   35POPC  H14Y 4763   6.246   6.926   8.992 -0.1753 -0.6037  0.2371
   35POPC  C315 4764   6.410   6.786   8.998  0.2068 -0.2717  0.2253
   35POPC  H15X 4765   6.342   6.702   8.973  1.3011  0.1020 -4.3986
   35POPC  H15Y 4766   6.486   6.758   9.075  1.8835 -0.4106 -1.4425
   35POPC  C316 4767   6.489   6.844   8.884  0.5133 -0.4613  0.2593
   35POPC  H16X 4768   6.412   6.901   8.829 -0.4995 -0.3794  1.7425
   35POPC  H16Y 4769   6.535   6.765   8.821  1.0324 -0.6432  0.8475
   35POPC  H16Z 4770   6.556   6.924   8.923  0.4875 -0.8117  1.0331
   36POPC     N 4771   0.400   5.324  11.014  0.1886 -0.8324  0.3126
   36POPC   C12 4772   0.262   5.283  11.074  0.1994  0.1319  0.5838
   36POPC  H12A 4773   0.245   5.352  11.155 -0.9982  1.4821 -0.7998
   36POPC  H12B 4774   0.271   5.186  11.123  3.0005 -0.1032 -0.3484
   36POPC   C13 4775   0.407   5.461  10.958 -1.0541  0.2981 -0.8083
   36POPC  H13A 4776   0.422   5.542  11.029  0.7064 -0.3807 -0.3765
   36POPC  H13B 4777   0.481   5.455  10.880  0.6398 -1.2043  0.8407
   36POPC  H13C 4778   0.308   5.472  10.917 -1.7037 -1.8460  0.1098
   36POPC   C14 4779   0.508   5.319  11.125 -0.1518  0.2124  0.0030
   36POPC  H14A 4780   0.501   5.227  11.181 -0.9125  0.9819  1.1734
   36POPC  H14B 4781   0.611   5.329  11.094  0.2856 -1.2373  0.9479
   36POPC  H14C 4782   0.488   5.396  11.198 -1.3553 -1.4548  1.4841
   36POPC   C15 4783   0.447   5.220  10.912  0.2636 -0.1575  0.6380
   36POPC  H15A 4784   0.386   5.225  10.823  0.4068  0.2409  0.5585
   36POPC  H15B 4785   0.442   5.115  10.936  0.9120 -0.6782 -1.4397
   36POPC  H15C 4786   0.545   5.247  10.877 -0.4523  0.7627 -0.7168
   36POPC   C11 4787   0.142   5.280  10.977  0.1512  1.0972  0.6079
   36POPC  H11A 4788   0.055   5.253  11.041 -1.6006  2.3512 -1.1700
   36POPC  H11B 4789   0.156   5.197  10.905 -1.4177  0.8194  0.6071
   36POPC     P 4790   0.019   5.513  10.972  0.0791  0.3390 -0.2352
   36POPC   O13 4791   0.071   5.649  10.938  0.3331  0.0063 -0.2658
   36POPC   O14 4792   0.010   5.487  11.120  0.3231  0.0522 -0.0103
   36POPC   O12 4793   0.122   5.414  10.909  0.3015  0.1452  0.5135
   36POPC   O11 4794  -0.118   5.486  10.912 -0.9218  0.6812  0.3608
   36POPC    C1 4795  -0.130   5.445  10.774  0.5895  0.4762  0.1777
   36POPC    HA 4796  -0.209   5.367  10.776  0.2646  0.8509  2.7992
   36POPC    HB 4797  -0.035   5.396  10.744  0.4349  0.5338 -0.4115
   36POPC    C2 4798  -0.164   5.554  10.675  0.2289  0.1044 -0.2502
   36POPC    HS 4799  -0.201   5.492  10.590 -0.8673 -0.8942  0.9248
   36POPC   O21 4800  -0.052   5.632  10.636  0.3181  0.5871 -0.7882
   36POPC   C21 4801   0.023   5.590  10.539 -0.3276  0.3941  0.3479
   36POPC   O22 4802  -0.007   5.492  10.473  0.4267  0.3070 -0.0581
   36POPC   C22 4803   0.152   5.674  10.521  0.5237  0.0848 -0.4918
   36POPC   H2R 4804   0.212   5.641  10.609  0.6073  1.6061  0.0281
   36POPC   H2S 4805   0.122   5.780  10.532 -0.9515 -0.3162 -0.5358
   36POPC    C3 4806  -0.284   5.634  10.725 -0.2498 -0.3151  0.4408
   36POPC    HX 4807  -0.245   5.689  10.813  0.4536 -0.1463  0.0321
   36POPC    HY 4808  -0.359   5.555  10.748 -0.8371 -0.4701 -1.8282
   36POPC   O31 4809  -0.331   5.723  10.624  0.4228 -0.2588 -0.2659
   36POPC   C31 4810  -0.271   5.830  10.606 -0.9450  0.2195 -0.4509
   36POPC   O32 4811  -0.183   5.881  10.672 -0.2384 -0.0104  0.0418
   36POPC   C32 4812  -0.326   5.893  10.480  0.5531  0.0199 -0.6960
   36POPC   H2X 4813  -0.260   5.982  10.468 -2.6776  2.9120  1.7474
   36POPC   H2Y 4814  -0.424   5.940  10.500  1.0143  0.3451  0.8942
   36POPC   C23 4815   0.217   5.644  10.383  0.3424  0.6577 -0.5182
   36POPC   H3R 4816   0.236   5.534  10.383 -2.4228  0.1268 -1.5649
   36POPC   H3S 4817   0.312   5.700  10.393  0.3956  0.4055  0.3657
   36POPC   C24 4818   0.149   5.690  10.257  0.5912 -0.7747 -0.1151
   36POPC   H4R 4819   0.152   5.800  10.248 -0.9471 -0.5228  2.2480
   36POPC   H4S 4820   0.048   5.644  10.253  0.1651  0.1627 -0.1591
   36POPC   C25 4821   0.225   5.648  10.132  0.1798  0.6621 -0.8403
   36POPC   H5R 4822   0.233   5.537  10.134  1.4626  0.7784  1.9891
   36POPC   H5S 4823   0.330   5.683  10.144  0.3286 -0.5983  1.7094
   36POPC   C26 4824   0.156   5.693   9.998  0.5421  0.6921  0.2639
   36POPC   H6R 4825   0.121   5.799  10.001 -3.2283 -0.4770  0.3972
   36POPC   H6S 4826   0.059   5.639   9.987  0.6014  0.5619  0.3956
   36POPC   C27 4827   0.252   5.681   9.875  0.3389  0.5621  0.0355
   36POPC   H7R 4828   0.284   5.576   9.860  0.9115  0.5072  1.6226
   36POPC   H7S 4829   0.344   5.740   9.894 -0.5746  2.3372 -0.9475
   36POPC   C28 4830   0.176   5.731   9.753 -0.5612 -0.0434 -0.3194
   36POPC   H8R 4831   0.136   5.833   9.765 -0.0662  0.2353 -0.9996
   36POPC   H8S 4832   0.088   5.665   9.735 -2.6314  2.3239  0.9124
   36POPC   C29 4833   0.271   5.737   9.633  0.0826  0.3647  0.2200
   36POPC   H91 4834   0.379   5.749   9.651  0.6772 -3.4159 -0.5058
   36POPC  C210 4835   0.240   5.704   9.506  0.8768  0.1559  0.3203
   36POPC  H101 4836   0.315   5.722   9.427  1.1330  0.4583  0.6316
   36POPC  C211 4837   0.099   5.674   9.463 -0.0555  0.2873  0.0340
   36POPC  H11R 4838   0.032   5.750   9.510  1.4156  1.8834 -0.4232
   36POPC  H11S 4839   0.079   5.575   9.508  1.0813 -1.1986 -2.6362
   36POPC  C212 4840   0.083   5.680   9.312  0.6375  0.2739 -0.3409
   36POPC  H12R 4841   0.116   5.773   9.261  0.0664  1.7639  1.9116
   36POPC  H12S 4842  -0.026   5.690   9.297  0.7588 -0.0353 -1.4534
   36POPC  C213 4843   0.139   5.554   9.242 -0.1458  0.4842  0.7458
   36POPC  H13R 4844   0.109   5.460   9.293  0.3863 -0.6157 -0.8955
   36POPC  H13S 4845   0.248   5.555   9.223 -0.4036 -1.2563 -0.9252
   36POPC  C214 4846   0.081   5.542   9.098  0.5429 -0.8029  0.1809
   36POPC  H14R 4847   0.083   5.642   9.050 -0.3919 -0.6293  0.4767
   36POPC  H14S 4848  -0.026   5.516   9.114  0.8641 -2.3216  0.0056
   36POPC  C215 4849   0.160   5.445   9.012  0.7509  0.2343 -0.8213
   36POPC  H15R 4850   0.168   5.349   9.068  0.8455  1.2480  0.9555
   36POPC  H15S 4851   0.263   5.485   9.006  0.5120  0.8369 -0.9692
   36POPC  C216 4852   0.096   5.420   8.877 -0.6568 -0.2226  0.6573
   36POPC  H16R 4853   0.087   5.515   8.820 -1.6079 -1.7238 -1.7881
   36POPC  H16S 4854  -0.007   5.377   8.886 -0.9303 -0.2750 -2.3292
   36POPC  C217 4855   0.174   5.324   8.783 -0.1529  0.4652 -0.1472
   36POPC  H17R 4856   0.276   5.366   8.766  0.7732 -2.1574 -1.4140
   36POPC  H17S 4857   0.125   5.323   8.684 -0.9025 -1.6258  0.2285
   36POPC  C218 4858   0.200   5.182   8.826  0.7537 -0.1147  0.2751
   36POPC  H18R 4859   0.108   5.133   8.866  1.7898 -1.3464  1.1895
   36POPC  H18S 4860   0.266   5.187   8.915  1.2000  1.7059 -0.1557
   36POPC  H18T 4861   0.262   5.126   8.752 -0.6051 -1.8190  0.3784
   36POPC   C33 4862  -0.306   5.800  10.354 -0.4091  0.1031  0.0686
   36POPC   H3X 4863  -0.393   5.731  10.357  0.9562 -1.6482  0.8502
   36POPC   H3Y 4864  -0.207   5.750  10.363 -0.9513 -1.0490 -0.3335
   36POPC   C34 4865  -0.293   5.882  10.223 -0.1240  0.5917 -0.3663
   36POPC   H4X 4866  -0.376   5.954  10.212  0.9150  1.8520 -0.0197
   36POPC   H4Y 4867  -0.300   5.804  10.145 -0.9529  1.5969 -1.3055
   36POPC   C35 4868  -0.152   5.936  10.203  0.1339 -0.6808  0.1843
   36POPC   H5X 4869  -0.073   5.858  10.200  0.8762 -0.1658  3.7916
   36POPC   H5Y 4870  -0.119   5.996  10.290  0.5897 -0.9875  0.2232
   36POPC   C36 4871  -0.135   6.011  10.068 -0.4442 -0.4273 -0.4024
   36POPC   H6X 4872  -0.027   6.026  10.045  0.0266  1.6394  2.8230
   36POPC   H6Y 4873  -0.179   6.113  10.069  3.4315  1.3340 -0.7036
   36POPC   C37 4874  -0.195   5.943   9.945 -0.3527 -0.8293 -0.0061
   36POPC   H7X 4875  -0.305   5.959   9.945 -0.1553  0.6606 -1.5156
   36POPC   H7Y 4876  -0.165   5.836   9.951  1.3861 -0.2986  1.0276
   36POPC   C38 4877  -0.139   6.015   9.829 -0.5712 -0.5851  0.4495
   36POPC   H8X 4878  -0.032   5.986   9.832  0.1352  2.0160  1.9537
   36POPC   H8Y 4879  -0.154   6.123   9.849 -2.2174 -0.6937 -0.1055
   36POPC   C39 4880  -0.207   5.988   9.695  0.4805  0.2029  0.5158
   36POPC   H9X 4881  -0.313   6.020   9.697  0.3392 -0.2991  1.5107
   36POPC   H9Y 4882  -0.217   5.878   9.683 -1.1883  0.5712 -1.6392
   36POPC  C310 4883  -0.138   6.057   9.581 -0.2234  0.7823 -0.5168
   36POPC  H10X 4884  -0.029   6.035   9.584 -0.4818 -0.3846  1.6884
   36POPC  H10Y 4885  -0.129   6.165   9.603  2.2171  0.7156 -1.0061
   36POPC  C311 4886  -0.213   6.019   9.451  0.3500 -0.4191 -0.4711
   36POPC  H11X 4887  -0.291   6.098   9.447  0.3292 -0.2032  2.8000
   36POPC  H11Y 4888  -0.253   5.916   9.463  1.3963 -0.8430 -0.5405
   36POPC  C312 4889  -0.129   6.036   9.323 -0.0274  0.4119 -0.1484
   36POPC  H12X 4890  -0.024   6.010   9.347 -0.2997  0.2743  0.8885
   36POPC  H12Y 4891  -0.143   6.135   9.274 -1.0314  0.1995 -0.3065
   36POPC  C313 4892  -0.161   5.940   9.204 -0.1595 -0.3531 -0.1488
   36POPC  H13X 4893  -0.209   5.845   9.237  0.2401 -0.2669  0.6996
   36POPC  H13Y 4894  -0.068   5.915   9.148 -0.2858  0.8190 -0.8832
   36POPC  C314 4895  -0.255   6.016   9.098  0.5835 -0.2316  0.0686
   36POPC  H14X 4896  -0.265   5.946   9.013 -0.4078  0.4040 -0.3379
   36POPC  H14Y 4897  -0.217   6.112   9.057  0.2122  0.5979  1.6272
   36POPC  C315 4898  -0.398   6.035   9.154  0.1860 -0.3335 -0.2484
   36POPC  H15X 4899  -0.404   6.119   9.227 -0.8395 -1.7971  1.3812
   36POPC  H15Y 4900  -0.422   5.939   9.204 -2.3445  0.3808 -0.0443
   36POPC  C316 4901  -0.513   6.052   9.056 -0.5672  0.1083 -0.2053
   36POPC  H16X 4902  -0.609   6.074   9.108  0.6624 -0.3491  2.3525
   36POPC  H16Y 4903  -0.530   5.958   8.999  1.3319 -0.6733  0.4763
   36POPC  H16Z 4904  -0.499   6.126   8.974  1.3644 -0.1569 -0.1459
   37POPC     N 4905   6.417   1.401   6.828 -0.8638 -0.1851 -0.2711
   37POPC   C12 4906   6.442   1.528   6.751  0.2016 -0.2191  0.2353
   37POPC  H12A 4907   6.474   1.519   6.649 -1.2761  2.5181 -0.5229
   37POPC  H12B 4908   6.526   1.578   6.797  0.7929  0.0751 -1.1561
   37POPC   C13 4909   6.304   1.335   6.758 -0.3273  0.9514 -0.3970
   37POPC  H13A 4910   6.216   1.394   6.778 -0.6558  0.2636  0.2176
   37POPC  H13B 4911   6.311   1.331   6.650 -0.3084  0.7995 -0.3913
   37POPC  H13C 4912   6.286   1.235   6.794 -1.8210  2.1101  2.2869
   37POPC   C14 4913   6.543   1.316   6.808 -0.0180  0.3157 -0.5059
   37POPC  H14A 4914   6.627   1.358   6.861  0.3318 -0.8929 -0.0938
   37POPC  H14B 4915   6.537   1.217   6.849 -1.4121  1.0730  1.1727
   37POPC  H14C 4916   6.569   1.311   6.703 -0.4729  1.8287 -0.7074
   37POPC   C15 4917   6.374   1.421   6.968  0.0996 -0.0690 -0.0051
   37POPC  H15A 4918   6.286   1.483   6.980 -0.5785 -1.3448  1.9100
   37POPC  H15B 4919   6.449   1.474   7.025  0.3968  0.2743 -0.7180
   37POPC  H15C 4920   6.342   1.330   7.017 -4.6260  1.0182 -0.7905
   37POPC   C11 4921   6.331   1.630   6.739  0.2632 -0.7183 -0.5776
   37POPC  H11A 4922   6.369   1.723   6.691  1.3544  0.0117  1.6528
   37POPC  H11B 4923   6.296   1.657   6.841  0.6554 -0.5578 -0.4864
   37POPC     P 4924   6.087   1.655   6.631  0.1156  0.1926 -0.2624
   37POPC   O13 4925   6.020   1.575   6.528  0.2366  0.1043 -0.0198
   37POPC   O14 4926   6.111   1.796   6.608  0.0331 -0.3011 -0.4311
   37POPC   O12 4927   6.225   1.582   6.658  0.0209 -0.5104  0.1128
   37POPC   O11 4928   6.013   1.636   6.775 -0.6326  0.3277 -0.4395
   37POPC    C1 4929   5.898   1.714   6.803  0.1369 -1.2576 -0.2866
   37POPC    HA 4930   5.850   1.765   6.717 -1.0998  1.2018  1.7927
   37POPC    HB 4931   5.924   1.796   6.873  0.9185 -0.7272 -1.1866
   37POPC    C2 4932   5.781   1.626   6.858 -0.4044 -0.7314  0.6199
   37POPC    HS 4933   5.687   1.684   6.862  0.3338  0.4208  1.7782
   37POPC   O21 4934   5.824   1.573   6.989  0.0996 -0.0960 -0.1082
   37POPC   C21 4935   5.794   1.661   7.085 -0.4060 -0.2256 -0.3015
   37POPC   O22 4936   5.747   1.774   7.071 -0.0780  0.0746 -0.4796
   37POPC   C22 4937   5.838   1.602   7.221  0.0286  0.2066  0.3628
   37POPC   H2R 4938   5.924   1.663   7.255  1.7263 -1.6284 -0.5384
   37POPC   H2S 4939   5.869   1.496   7.208  0.5045  0.1763  1.6909
   37POPC    C3 4940   5.755   1.506   6.759 -0.3218  0.3113 -0.8907
   37POPC    HX 4941   5.856   1.462   6.750 -0.8512 -0.9771 -0.5506
   37POPC    HY 4942   5.736   1.536   6.654 -1.1962 -1.6616 -1.3140
   37POPC   O31 4943   5.656   1.410   6.809  0.3615 -0.5533 -0.3031
   37POPC   C31 4944   5.533   1.460   6.815  0.0545 -0.1386 -0.3017
   37POPC   O32 4945   5.503   1.572   6.786 -0.3518  0.0368  0.1681
   37POPC   C32 4946   5.441   1.351   6.860 -0.3631  0.3937  0.0950
   37POPC   H2X 4947   5.494   1.293   6.939  0.5174  0.1115 -0.6906
   37POPC   H2Y 4948   5.417   1.285   6.773  0.6031 -0.8797  0.7740
   37POPC   C23 4949   5.731   1.623   7.334 -0.0146  0.2199 -0.0313
   37POPC   H3R 4950   5.706   1.731   7.348 -0.2239  0.1175  0.3758
   37POPC   H3S 4951   5.785   1.594   7.427 -1.6107 -2.0543  0.2229
   37POPC   C24 4952   5.611   1.532   7.309 -0.0294 -0.6342  0.3201
   37POPC   H4R 4953   5.649   1.427   7.313 -3.8164 -2.1938 -1.9658
   37POPC   H4S 4954   5.569   1.567   7.213  0.5522  1.5801  0.8618
   37POPC   C25 4955   5.505   1.556   7.411  0.4571 -0.7503 -0.4104
   37POPC   H5R 4956   5.406   1.533   7.366  0.5537 -3.3416  0.6199
   37POPC   H5S 4957   5.511   1.661   7.448  1.8850 -1.3176  1.0309
   37POPC   C26 4958   5.529   1.456   7.524  0.1115 -0.4050 -0.6118
   37POPC   H6R 4959   5.623   1.474   7.581 -0.1039  0.0718 -0.4030
   37POPC   H6S 4960   5.542   1.359   7.473  0.9379 -1.5936  1.7816
   37POPC   C27 4961   5.413   1.445   7.624 -0.3181  0.4589  0.5630
   37POPC   H7R 4962   5.320   1.437   7.563 -0.2480 -0.7975  0.5902
   37POPC   H7S 4963   5.402   1.540   7.679 -0.7095  0.9771 -0.3998
   37POPC   C28 4964   5.412   1.312   7.698 -0.5577 -0.0580 -0.6267
   37POPC   H8R 4965   5.509   1.301   7.752 -1.4966 -0.4157  1.0261
   37POPC   H8S 4966   5.398   1.227   7.628  2.0949 -1.7657  0.8312
   37POPC   C29 4967   5.297   1.336   7.798 -0.4092  0.7467  0.4770
   37POPC   H91 4968   5.202   1.326   7.744  0.7755  0.4153 -1.6103
   37POPC  C210 4969   5.306   1.349   7.935 -0.2876 -0.0444  0.3265
   37POPC  H101 4970   5.216   1.339   7.997  0.2991 -1.5813  0.9357
   37POPC  C211 4971   5.436   1.342   8.009  0.2424 -0.2552  0.2450
   37POPC  H11R 4972   5.441   1.445   8.051 -0.7074  0.0047 -0.2644
   37POPC  H11S 4973   5.527   1.322   7.947  0.4449  5.7125 -1.6999
   37POPC  C212 4974   5.423   1.244   8.124 -0.0186  0.0184  0.1800
   37POPC  H12R 4975   5.415   1.141   8.083  0.0240  0.2582 -0.4316
   37POPC  H12S 4976   5.331   1.266   8.184  1.1815  1.6757  1.4530
   37POPC  C213 4977   5.549   1.242   8.218  0.3304 -0.1476  0.0648
   37POPC  H13R 4978   5.571   1.342   8.260  1.5840  0.1673 -1.3145
   37POPC  H13S 4979   5.631   1.207   8.151  1.2087 -0.3545  1.2210
   37POPC  C214 4980   5.535   1.140   8.332 -0.5583  0.5710  0.9648
   37POPC  H14R 4981   5.527   1.041   8.282  1.9966  0.8457 -0.0819
   37POPC  H14S 4982   5.441   1.165   8.386 -0.5106  1.1723  0.7658
   37POPC  C215 4983   5.640   1.154   8.442 -0.4107 -0.1738  0.0251
   37POPC  H15R 4984   5.679   1.258   8.450  0.6437 -0.7321  2.3924
   37POPC  H15S 4985   5.727   1.107   8.392 -0.9294 -2.6820  1.4295
   37POPC  C216 4986   5.616   1.078   8.569  0.1735 -0.1329  0.1829
   37POPC  H16R 4987   5.715   1.069   8.618  0.8763  1.4001 -0.8891
   37POPC  H16S 4988   5.583   0.976   8.542  0.5975 -0.0517 -0.6651
   37POPC  C217 4989   5.511   1.148   8.656 -0.3364 -0.8182 -1.2386
   37POPC  H17R 4990   5.413   1.153   8.604 -0.7138 -1.5631 -0.6088
   37POPC  H17S 4991   5.547   1.250   8.679 -1.2712 -0.7186 -0.1342
   37POPC  C218 4992   5.487   1.061   8.783  0.5311  0.1308  0.0030
   37POPC  H18R 4993   5.414   1.106   8.854  2.8235 -0.7449  3.0391
   37POPC  H18S 4994   5.587   1.057   8.832 -0.0876 -3.3336  1.1323
   37POPC  H18T 4995   5.457   0.954   8.774  2.1505 -0.7066  3.5427
   37POPC   C33 4996   5.309   1.407   6.912 -0.4232  0.7193 -0.7955
   37POPC   H3X 4997   5.237   1.333   6.872  1.0543 -1.1663 -0.0258
   37POPC   H3Y 4998   5.272   1.492   6.851 -1.1757  0.5528 -0.5789
   37POPC   C34 4999   5.278   1.415   7.057  0.1672 -0.1672  0.4386
   37POPC   H4X 5000   5.183   1.470   7.070 -0.5713 -1.6981  1.6410
   37POPC   H4Y 5001   5.362   1.471   7.105  0.1999  0.4852 -0.3550
   37POPC   C35 5002   5.265   1.274   7.130 -0.2602 -0.8501 -0.6180
   37POPC   H5X 5003   5.360   1.219   7.115 -0.6354 -1.4401 -0.8388
   37POPC   H5Y 5004   5.188   1.210   7.082 -1.4179  1.4400 -1.8829
   37POPC   C36 5005   5.233   1.285   7.280  0.6157 -0.3754 -0.5454
   37POPC   H6X 5006   5.310   1.339   7.340  0.5197  3.0158 -3.2936
   37POPC   H6Y 5007   5.227   1.183   7.324 -0.8047  0.5493  1.4836
   37POPC   C37 5008   5.110   1.363   7.306  0.2373 -0.0964 -0.2051
   37POPC   H7X 5009   5.040   1.328   7.227  0.4886 -1.0053 -0.0252
   37POPC   H7Y 5010   5.117   1.470   7.277 -0.6952 -0.4284 -1.7432
   37POPC   C38 5011   5.044   1.353   7.439 -0.1435 -0.6300  0.9034
   37POPC   H8X 5012   5.120   1.389   7.512 -0.9958  1.7438  0.6859
   37POPC   H8Y 5013   5.020   1.246   7.454  0.1204 -0.6945  0.8594
   37POPC   C39 5014   4.905   1.431   7.453 -0.5886 -0.1294 -1.0891
   37POPC   H9X 5015   4.818   1.365   7.472 -1.5391  1.3956 -0.0680
   37POPC   H9Y 5016   4.897   1.493   7.361 -2.0539 -0.0665 -0.9289
   37POPC  C310 5017   4.913   1.520   7.573 -0.2843  1.2967  0.2919
   37POPC  H10X 5018   4.832   1.595   7.564 -0.9129  0.5368 -0.4593
   37POPC  H10Y 5019   5.009   1.575   7.584  0.3207  0.3054  0.0660
   37POPC  C311 5020   4.882   1.441   7.704  0.5080  0.5032 -0.2781
   37POPC  H11X 5021   4.926   1.339   7.706  0.2266  0.3903  0.2081
   37POPC  H11Y 5022   4.774   1.418   7.698  0.4053  0.3394  1.8248
   37POPC  C312 5023   4.928   1.512   7.830  0.2183 -0.6020 -0.2034
   37POPC  H12X 5024   4.865   1.601   7.848  1.8860  0.5345  0.1354
   37POPC  H12Y 5025   5.031   1.551   7.819  0.5218 -0.8186  1.7385
   37POPC  C313 5026   4.920   1.420   7.949  0.0403  0.5575 -1.1517
   37POPC  H13X 5027   4.979   1.328   7.927 -1.6895 -0.3438 -2.1740
   37POPC  H13Y 5028   4.815   1.390   7.972  0.3971 -1.8516 -2.4554
   37POPC  C314 5029   4.966   1.488   8.074  0.0915  0.5274 -0.7564
   37POPC  H14X 5030   4.926   1.591   8.079 -1.8519 -0.2119 -0.2267
   37POPC  H14Y 5031   5.068   1.514   8.041 -1.1451  3.1608 -2.6843
   37POPC  C315 5032   4.951   1.403   8.207  0.5618 -0.1454 -0.3051
   37POPC  H15X 5033   4.986   1.299   8.190  0.5086 -0.1138 -0.6098
   37POPC  H15Y 5034   4.840   1.402   8.219  0.5301  0.3798 -0.5337
   37POPC  C316 5035   5.002   1.457   8.336  0.3145  0.1834 -0.5251
   37POPC  H16X 5036   4.970   1.561   8.360 -1.2158 -0.3408 -0.2336
   37POPC  H16Y 5037   5.113   1.454   8.336  0.3589  1.2891 -1.6003
   37POPC  H16Z 5038   4.977   1.391   8.421  0.0509  0.7194 -0.1857
   38POPC     N 5039   0.039   4.411   6.017 -0.8330  0.2490  0.7584
   38POPC   C12 5040  -0.021   4.345   6.139  0.6360  0.1332 -0.5045
   38POPC  H12A 5041   0.014   4.396   6.227  1.2159 -1.1893  0.0462
   38POPC  H12B 5042   0.018   4.244   6.146  0.4252  0.1774  1.4531
   38POPC   C13 5043   0.187   4.386   6.020  0.0892  0.1896 -0.0236
   38POPC  H13A 5044   0.255   4.446   5.962  3.3246 -0.4836  2.8701
   38POPC  H13B 5045   0.219   4.392   6.123 -0.7490  1.4250  0.1732
   38POPC  H13C 5046   0.203   4.287   5.980  1.1595  0.5691 -0.5410
   38POPC   C14 5047  -0.019   4.364   5.891 -0.3170  0.3170 -0.4393
   38POPC  H14A 5048  -0.120   4.400   5.873 -0.6517 -0.0980  0.5649
   38POPC  H14B 5049   0.043   4.387   5.806 -0.4102 -1.6217 -1.0700
   38POPC  H14C 5050  -0.029   4.256   5.892 -0.3353  0.3155 -0.7094
   38POPC   C15 5051   0.017   4.560   6.030 -0.9688  0.4581 -0.7416
   38POPC  H15A 5052  -0.090   4.576   6.041 -1.0005  0.5237 -1.1507
   38POPC  H15B 5053   0.041   4.602   5.934 -0.2621 -0.0861 -0.8004
   38POPC  H15C 5054   0.062   4.609   6.115 -1.5723 -0.9928  0.4316
   38POPC   C11 5055  -0.178   4.338   6.149 -1.2374  0.2506 -0.1606
   38POPC  H11A 5056  -0.194   4.255   6.221 -0.2703 -0.6494 -0.9767
   38POPC  H11B 5057  -0.223   4.305   6.053 -1.2321  0.1406 -0.1244
   38POPC     P 5058  -0.243   4.493   6.360 -0.0311  0.2570 -0.0647
   38POPC   O13 5059  -0.366   4.428   6.410 -0.2241  0.0035  0.1482
   38POPC   O14 5060  -0.240   4.638   6.372 -0.7455  0.2387 -0.0309
   38POPC   O12 5061  -0.242   4.464   6.201  0.7187 -0.9892 -0.9705
   38POPC   O11 5062  -0.122   4.417   6.432  0.3284  0.1849  0.0648
   38POPC    C1 5063  -0.002   4.482   6.462  0.1959  0.2354 -0.4981
   38POPC    HA 5064  -0.002   4.586   6.421 -2.3403  0.6577  0.4767
   38POPC    HB 5065   0.076   4.418   6.415 -0.0952 -0.8961  0.5387
   38POPC    C2 5066   0.027   4.477   6.616  0.5222 -0.2477 -0.1365
   38POPC    HS 5067  -0.054   4.526   6.674 -0.2017 -0.5891 -0.8502
   38POPC   O21 5068   0.160   4.524   6.640  0.5525  0.0168 -0.9879
   38POPC   C21 5069   0.180   4.652   6.642 -0.2491 -0.0513  0.3272
   38POPC   O22 5070   0.093   4.732   6.622 -0.3331 -0.5712  0.0710
   38POPC   C22 5071   0.333   4.676   6.646  0.5386 -0.0693 -0.4912
   38POPC   H2R 5072   0.355   4.699   6.540  1.7671 -0.6105 -0.3566
   38POPC   H2S 5073   0.383   4.581   6.673  1.6414  0.5718 -0.2469
   38POPC    C3 5074   0.003   4.331   6.671 -0.0560 -0.9485  0.1727
   38POPC    HX 5075   0.075   4.279   6.604  0.8598  2.4119 -1.5659
   38POPC    HY 5076  -0.100   4.303   6.641 -0.1507 -0.2267 -0.1903
   38POPC   O31 5077   0.022   4.324   6.816  0.1417 -0.0342  0.4080
   38POPC   C31 5078   0.103   4.225   6.856 -0.4680 -0.5637 -0.4115
   38POPC   O32 5079   0.135   4.125   6.801  0.0783 -0.4078 -0.4021
   38POPC   C32 5080   0.140   4.255   6.996  0.2697 -0.0817  0.8749
   38POPC   H2X 5081   0.052   4.275   7.060  1.0880  0.7122  1.7699
   38POPC   H2Y 5082   0.198   4.350   7.000  1.3124 -0.7471  1.6702
   38POPC   C23 5083   0.366   4.787   6.750  0.0008 -0.5742 -0.4694
   38POPC   H3R 5084   0.294   4.870   6.736  1.0325  0.2537 -0.9923
   38POPC   H3S 5085   0.468   4.825   6.726 -0.4151  1.1511  0.3820
   38POPC   C24 5086   0.361   4.732   6.893 -0.7644 -0.1583  0.2014
   38POPC   H4R 5087   0.434   4.650   6.907 -0.2928  0.3110  0.5446
   38POPC   H4S 5088   0.257   4.694   6.903 -0.6028 -0.8521 -0.7008
   38POPC   C25 5089   0.394   4.836   7.010 -0.2393 -0.1624  0.0031
   38POPC   H5R 5090   0.299   4.864   7.060  1.4661  3.5351  1.2818
   38POPC   H5S 5091   0.437   4.924   6.958 -2.2359  1.3396  0.8571
   38POPC   C26 5092   0.495   4.778   7.113 -0.4571 -0.3721 -0.1321
   38POPC   H6R 5093   0.515   4.865   7.179 -0.3848 -2.2716  2.4426
   38POPC   H6S 5094   0.587   4.745   7.060  0.2347  1.2499  0.0222
   38POPC   C27 5095   0.427   4.667   7.183 -0.0211  0.1260  0.5486
   38POPC   H7R 5096   0.404   4.579   7.120  1.9179 -0.1514  0.1981
   38POPC   H7S 5097   0.330   4.707   7.221 -1.6969 -0.6246 -2.7161
   38POPC   C28 5098   0.509   4.616   7.304 -0.8414  0.1930 -0.4670
   38POPC   H8R 5099   0.543   4.707   7.358 -2.8311 -0.3806  1.8223
   38POPC   H8S 5100   0.606   4.572   7.271  0.6730  3.5917 -0.7837
   38POPC   C29 5101   0.433   4.520   7.398 -0.1098 -0.3764 -0.0216
   38POPC   H91 5102   0.389   4.432   7.348 -1.4730  0.2305  0.0973
   38POPC  C210 5103   0.406   4.539   7.525 -0.3891 -0.2056  0.1620
   38POPC  H101 5104   0.349   4.461   7.579  2.4423 -0.8571  2.3349
   38POPC  C211 5105   0.440   4.652   7.617  0.0615 -0.1672 -0.1325
   38POPC  H11R 5106   0.378   4.741   7.591  0.4657  0.1251 -0.1016
   38POPC  H11S 5107   0.547   4.681   7.611  0.3836 -1.2947  0.1316
   38POPC  C212 5108   0.416   4.626   7.771  0.0726 -0.4708  0.6584
   38POPC  H12R 5109   0.463   4.528   7.794  1.9885  0.2763 -0.0210
   38POPC  H12S 5110   0.305   4.618   7.784 -0.0839 -0.3637 -0.5983
   38POPC  C213 5111   0.473   4.742   7.856 -0.0567 -0.2168  0.1525
   38POPC  H13R 5112   0.433   4.838   7.815 -0.8629  0.2084  1.9127
   38POPC  H13S 5113   0.583   4.753   7.856  0.2709 -3.0098  2.1272
   38POPC  C214 5114   0.449   4.736   8.003 -0.4882  0.3346 -0.7770
   38POPC  H14R 5115   0.498   4.648   8.049 -1.0676  1.6218  2.4166
   38POPC  H14S 5116   0.340   4.735   8.021 -0.6898  1.6759 -1.8261
   38POPC  C215 5117   0.495   4.851   8.090 -0.1836 -0.1999  0.4387
   38POPC  H15R 5118   0.464   4.946   8.042  0.1034 -0.4251 -0.1892
   38POPC  H15S 5119   0.604   4.845   8.074 -0.5068 -0.2659 -1.9507
   38POPC  C216 5120   0.451   4.843   8.236  0.1593 -0.7265  0.0113
   38POPC  H16R 5121   0.504   4.759   8.286 -1.9155 -1.5676  0.8686
   38POPC  H16S 5122   0.342   4.825   8.240 -0.2829  1.0515 -2.6458
   38POPC  C217 5123   0.477   4.961   8.318  0.5271 -0.2310 -0.6122
   38POPC  H17R 5124   0.455   4.936   8.424 -0.9626  1.8230 -0.4240
   38POPC  H17S 5125   0.412   5.049   8.301  0.8112  0.0265 -0.3490
   38POPC  C218 5126   0.619   5.015   8.321  0.0747 -0.5040 -0.5038
   38POPC  H18R 5127   0.640   5.071   8.227  3.1339 -0.8795 -0.0731
   38POPC  H18S 5128   0.691   4.932   8.333 -0.1448 -0.5026  0.9250
   38POPC  H18T 5129   0.638   5.082   8.408 -0.7182  1.5418 -1.8596
   38POPC   C33 5130   0.218   4.141   7.067 -0.6828 -0.0470 -0.6265
   38POPC   H3X 5131   0.303   4.116   7.000 -1.2477 -0.0306 -1.3622
   38POPC   H3Y 5132   0.162   4.046   7.082 -3.0395  1.3373 -0.4075
   38POPC   C34 5133   0.281   4.191   7.197  0.3998 -0.4363  0.3956
   38POPC   H4X 5134   0.297   4.301   7.201  1.2571 -0.6018  1.9245
   38POPC   H4Y 5135   0.379   4.148   7.224  0.7358  0.6583  0.9676
   38POPC   C35 5136   0.190   4.149   7.319 -0.2158 -0.6138 -0.1236
   38POPC   H5X 5137   0.184   4.038   7.313 -0.2761 -0.5749 -0.7313
   38POPC   H5Y 5138   0.089   4.181   7.288  1.1469  2.0024 -2.0267
   38POPC   C36 5139   0.219   4.195   7.461  0.2431  0.2365  0.3104
   38POPC   H6X 5140   0.168   4.292   7.477 -2.2925 -0.7184 -1.5491
   38POPC   H6Y 5141   0.327   4.203   7.485 -0.0292  1.3393  1.2168
   38POPC   C37 5142   0.165   4.100   7.564 -0.4078  0.2504  0.0315
   38POPC   H7X 5143   0.198   3.997   7.542 -0.8484 -0.6122  3.1042
   38POPC   H7Y 5144   0.055   4.105   7.549 -0.4985  1.4542  0.9574
   38POPC   C38 5145   0.207   4.124   7.708 -0.4475  0.1024 -0.7563
   38POPC   H8X 5146   0.317   4.120   7.721 -0.6566 -0.8905  0.8688
   38POPC   H8Y 5147   0.163   4.045   7.773 -2.2228  1.3281 -0.4422
   38POPC   C39 5148   0.151   4.258   7.763 -0.2557  1.1080  0.2187
   38POPC   H9X 5149   0.043   4.273   7.739 -0.3366 -0.4204 -0.4028
   38POPC   H9Y 5150   0.209   4.337   7.712  0.3836  0.0220 -0.7513
   38POPC  C310 5151   0.162   4.265   7.915 -0.4221 -0.2913  0.0057
   38POPC  H10X 5152   0.088   4.198   7.964 -0.4280 -0.7431 -0.6047
   38POPC  H10Y 5153   0.126   4.367   7.938  0.9915  0.0712  0.6201
   38POPC  C311 5154   0.303   4.239   7.979  0.8105 -0.2314 -0.2455
   38POPC  H11X 5155   0.377   4.287   7.911  0.0255  1.7498  0.2672
   38POPC  H11Y 5156   0.330   4.131   7.983  0.5081 -0.3277 -0.7855
   38POPC  C312 5157   0.327   4.310   8.115 -0.7850  0.0332 -0.0472
   38POPC  H12X 5158   0.251   4.268   8.185  0.4213  0.5428  1.5941
   38POPC  H12Y 5159   0.312   4.419   8.106  1.2662  0.3326 -0.1243
   38POPC  C313 5160   0.470   4.283   8.171  0.4183 -0.1780  0.3890
   38POPC  H13X 5161   0.549   4.307   8.097  1.6751  1.8921  2.3635
   38POPC  H13Y 5162   0.494   4.177   8.197 -1.8624 -1.1365 -1.2037
   38POPC  C314 5163   0.491   4.366   8.295  0.1581  0.2419 -0.0284
   38POPC  H14X 5164   0.398   4.373   8.355 -0.6851 -0.1037 -1.2683
   38POPC  H14Y 5165   0.524   4.467   8.263 -0.1447  0.1369 -0.6869
   38POPC  C315 5166   0.604   4.311   8.388 -0.2887  0.4258  0.0851
   38POPC  H15X 5167   0.695   4.269   8.340 -0.6996 -3.2533  2.2696
   38POPC  H15Y 5168   0.568   4.223   8.445  1.8716  0.6122  1.7692
   38POPC  C316 5169   0.648   4.415   8.487  0.0510 -0.4505  0.0319
   38POPC  H16X 5170   0.733   4.383   8.551  0.4416  0.8345  0.1556
   38POPC  H16Y 5171   0.569   4.445   8.559 -0.3712 -0.9448 -0.2218
   38POPC  H16Z 5172   0.677   4.509   8.437 -3.4148  1.6308  1.6988
   39POPC     N 5173   3.948   1.696   5.991 -0.0220 -0.2391 -0.3695
   39POPC   C12 5174   3.988   1.820   6.071 -0.4408 -0.4596  0.1054
   39POPC  H12A 5175   3.988   1.909   6.009  2.1992 -0.8946 -0.5829
   39POPC  H12B 5176   4.086   1.811   6.115  0.2067 -0.9165 -1.4082
   39POPC   C13 5177   3.804   1.710   5.947 -0.6117  0.1106  0.4165
   39POPC  H13A 5178   3.798   1.790   5.874  2.4927 -0.5116 -0.6056
   39POPC  H13B 5179   3.770   1.619   5.902  2.3686  0.3904 -2.6667
   39POPC  H13C 5180   3.749   1.731   6.037  0.9731  2.3580  0.9323
   39POPC   C14 5181   4.040   1.683   5.874 -0.2049 -0.0400  0.3453
   39POPC  H14A 5182   4.001   1.748   5.797 -3.0775 -2.0194  0.0710
   39POPC  H14B 5183   4.141   1.707   5.905  0.2318 -3.0129  1.3863
   39POPC  H14C 5184   4.041   1.581   5.838 -0.1249 -0.0486  0.3711
   39POPC   C15 5185   3.962   1.574   6.075  0.4290 -0.1585  0.5157
   39POPC  H15A 5186   4.051   1.579   6.134  0.3040 -1.3373  0.8159
   39POPC  H15B 5187   3.953   1.490   6.007 -1.1652  1.2379 -1.0909
   39POPC  H15C 5188   3.881   1.567   6.146 -0.1023 -0.3277 -0.0939
   39POPC   C11 5189   3.910   1.864   6.201 -0.0447  0.4979  0.6665
   39POPC  H11A 5190   3.962   1.952   6.242  1.5236  0.7202 -1.7285
   39POPC  H11B 5191   3.932   1.777   6.267  1.1086 -0.7028 -1.2507
   39POPC     P 5192   3.707   2.016   6.140  0.2281 -0.3794  0.0103
   39POPC   O13 5193   3.562   1.995   6.118  0.5060 -0.7023 -0.2674
   39POPC   O14 5194   3.777   2.088   6.028 -0.7787  0.2029  0.2722
   39POPC   O12 5195   3.769   1.877   6.173 -0.1112  0.5289 -0.1496
   39POPC   O11 5196   3.731   2.103   6.273  0.7638  0.2870 -0.0344
   39POPC    C1 5197   3.700   2.033   6.396 -0.0794 -0.0185 -0.2122
   39POPC    HA 5198   3.746   1.932   6.400  0.1012  0.0372 -0.8051
   39POPC    HB 5199   3.592   2.044   6.419  0.0735 -1.1308  1.0707
   39POPC    C2 5200   3.780   2.100   6.516 -0.0236 -0.0524  0.6466
   39POPC    HS 5201   3.754   2.029   6.597  2.2022 -1.2836  0.3276
   39POPC   O21 5202   3.732   2.235   6.543  0.5251 -0.6493  0.3050
   39POPC   C21 5203   3.626   2.244   6.627 -0.8853  0.3979 -0.5724
   39POPC   O22 5204   3.570   2.147   6.679  0.2659  0.1149 -0.0956
   39POPC   C22 5205   3.582   2.393   6.641 -0.7033 -0.1732  0.1466
   39POPC   H2R 5206   3.593   2.441   6.541  3.5181  1.1247  1.1238
   39POPC   H2S 5207   3.660   2.449   6.697  0.4058 -0.9998 -0.5367
   39POPC    C3 5208   3.937   2.111   6.495  0.2993  0.2714 -0.1731
   39POPC    HX 5209   3.961   2.177   6.409 -0.1996  0.3993 -0.2176
   39POPC    HY 5210   3.955   2.004   6.472 -0.4014 -0.0045  0.5357
   39POPC   O31 5211   4.005   2.174   6.612  0.2361  0.2325  0.1121
   39POPC   C31 5212   4.127   2.114   6.631  0.0838 -0.4059  0.1558
   39POPC   O32 5213   4.176   2.047   6.540 -0.1392 -0.1784 -0.2415
   39POPC   C32 5214   4.179   2.153   6.770  0.2566  0.3540  0.0359
   39POPC   H2X 5215   4.289   2.138   6.767  0.0891 -1.0918  0.7517
   39POPC   H2Y 5216   4.145   2.259   6.776 -1.0147  0.0297 -1.0647
   39POPC   C23 5217   3.441   2.408   6.710 -0.1058 -0.5480 -1.1867
   39POPC   H3R 5218   3.371   2.332   6.668 -0.8777 -1.0753  0.9671
   39POPC   H3S 5219   3.396   2.505   6.682 -1.3193  0.3045  3.3310
   39POPC   C24 5220   3.426   2.390   6.861 -0.7884  0.7727  0.3433
   39POPC   H4R 5221   3.486   2.463   6.920 -0.3735  1.9842 -1.5243
   39POPC   H4S 5222   3.450   2.283   6.880  1.9178  1.3157  0.1657
   39POPC   C25 5223   3.279   2.410   6.903 -0.8985  0.3083  0.3360
   39POPC   H5R 5224   3.224   2.358   6.821 -0.9013 -4.0974  2.9598
   39POPC   H5S 5225   3.241   2.514   6.915 -1.1587  0.4261 -1.3262
   39POPC   C26 5226   3.240   2.344   7.035  0.1062  0.2355  0.2601
   39POPC   H6R 5227   3.297   2.387   7.120  2.9973 -2.6011 -0.1414
   39POPC   H6S 5228   3.276   2.239   7.035 -0.3492  0.0793  0.0843
   39POPC   C27 5229   3.089   2.347   7.072  1.3890  0.2461  0.4099
   39POPC   H7R 5230   3.027   2.332   6.981  0.1851  2.5808  0.8219
   39POPC   H7S 5231   3.069   2.451   7.102  1.2529  1.4077 -3.4160
   39POPC   C28 5232   3.056   2.246   7.183 -0.2338 -0.1253  0.0170
   39POPC   H8R 5233   3.136   2.262   7.259  0.8962  0.5395 -1.2829
   39POPC   H8S 5234   3.059   2.144   7.141  0.3881 -0.5567  1.0688
   39POPC   C29 5235   2.923   2.272   7.248 -0.0968  0.1826  0.5709
   39POPC   H91 5236   2.850   2.198   7.213 -0.7731  0.8312  0.6044
   39POPC  C210 5237   2.894   2.366   7.339 -0.2282 -0.2086 -0.7658
   39POPC  H101 5238   2.794   2.375   7.384 -1.3735 -0.1491 -3.2342
   39POPC  C211 5239   2.994   2.464   7.392  0.5384  0.6934 -0.3700
   39POPC  H11R 5240   2.971   2.565   7.352 -0.9850  0.7450  0.5785
   39POPC  H11S 5241   3.093   2.443   7.347  0.6182  0.1430  0.0609
   39POPC  C212 5242   2.988   2.456   7.541  0.4891 -0.1361 -0.5651
   39POPC  H12R 5243   2.885   2.463   7.582  1.3417 -0.2937  1.6562
   39POPC  H12S 5244   3.039   2.548   7.575 -1.2533  1.2154 -1.4838
   39POPC  C213 5245   3.071   2.336   7.603 -0.0847 -0.1509  0.8633
   39POPC  H13R 5246   3.173   2.326   7.558 -0.3262 -0.6302  0.4121
   39POPC  H13S 5247   3.016   2.248   7.565  0.4987  0.1860 -0.8091
   39POPC  C214 5248   3.077   2.355   7.757 -0.2333  0.2444  0.1141
   39POPC  H14R 5249   3.097   2.463   7.772  1.9734  0.2318 -2.3321
   39POPC  H14S 5250   3.164   2.302   7.802  1.2172  1.7963 -0.7839
   39POPC  C215 5251   2.949   2.322   7.831  0.5941 -0.3922 -0.2072
   39POPC  H15R 5252   2.933   2.212   7.827  0.4191 -0.3936  0.5461
   39POPC  H15S 5253   2.857   2.355   7.778  1.4883  2.6391  0.0117
   39POPC  C216 5254   2.951   2.378   7.975  0.3521  0.0667  0.2211
   39POPC  H16R 5255   3.051   2.355   8.017  0.9905  0.5309 -1.0163
   39POPC  H16S 5256   2.876   2.324   8.036 -0.8976  1.8525  0.3133
   39POPC  C217 5257   2.916   2.532   7.997 -0.5483  0.4353 -0.1102
   39POPC  H17R 5258   2.820   2.546   7.942 -0.0303 -2.4771 -1.8554
   39POPC  H17S 5259   2.994   2.584   7.937  0.1325 -1.1046 -0.5822
   39POPC  C218 5260   2.924   2.586   8.137 -0.1537 -0.4943  0.3040
   39POPC  H18R 5261   2.851   2.532   8.202 -0.4321  2.3947  2.4847
   39POPC  H18S 5262   2.882   2.689   8.137 -0.5929 -0.6507  1.8568
   39POPC  H18T 5263   3.025   2.582   8.182 -0.7762 -0.8001  1.7242
   39POPC   C33 5264   4.106   2.084   6.881 -0.2257 -0.3163  0.3664
   39POPC   H3X 5265   4.139   1.978   6.887 -1.9248 -0.7963  1.8063
   39POPC   H3Y 5266   3.996   2.079   6.863  0.0913 -1.5645 -1.2989
   39POPC   C34 5267   4.133   2.142   7.023 -0.2826 -0.1598  0.3250
   39POPC   H4X 5268   4.073   2.233   7.044 -0.1100  0.0250  0.0164
   39POPC   H4Y 5269   4.239   2.174   7.033 -0.1764 -0.7620  1.2474
   39POPC   C35 5270   4.095   2.043   7.128 -0.0691  0.2199 -0.0295
   39POPC   H5X 5271   4.139   1.943   7.107 -2.9598 -0.6760 -2.1646
   39POPC   H5Y 5272   3.986   2.022   7.127  0.2630 -1.6317  1.2546
   39POPC   C36 5273   4.140   2.079   7.272  0.0951 -0.2449  0.2175
   39POPC   H6X 5274   4.095   2.176   7.301  1.9182  0.3436  1.1434
   39POPC   H6Y 5275   4.251   2.084   7.271  0.1108 -0.6517 -0.6665
   39POPC   C37 5276   4.109   1.980   7.384 -0.5524  0.7384 -0.2437
   39POPC   H7X 5277   4.153   1.879   7.368  1.6920  1.4363  1.2862
   39POPC   H7Y 5278   3.999   1.970   7.384 -0.8796  3.5398  1.9720
   39POPC   C38 5279   4.162   2.026   7.522 -0.0846 -0.3510 -0.7343
   39POPC   H8X 5280   4.124   2.129   7.539 -0.6783 -0.8432  0.9825
   39POPC   H8Y 5281   4.272   2.027   7.514  0.5136 -2.5577  4.8688
   39POPC   C39 5282   4.113   1.946   7.648  0.4059 -0.0843 -0.7995
   39POPC   H9X 5283   4.142   1.840   7.634  1.3086 -0.0009  0.3979
   39POPC   H9Y 5284   4.003   1.955   7.651  0.5503  1.6215 -0.0465
   39POPC  C310 5285   4.173   1.987   7.784  1.1445  0.2900 -0.5920
   39POPC  H10X 5286   4.160   2.095   7.804  0.6940  0.3956 -1.4640
   39POPC  H10Y 5287   4.283   1.966   7.786  0.6300 -2.6058 -0.2794
   39POPC  C311 5288   4.101   1.914   7.897  0.4501 -0.4963  0.1589
   39POPC  H11X 5289   4.112   1.805   7.878  0.6074 -0.1662 -1.7658
   39POPC  H11Y 5290   3.991   1.929   7.887  0.2453 -1.3471  1.0055
   39POPC  C312 5291   4.137   1.950   8.039 -0.1300  0.2873  0.1752
   39POPC  H12X 5292   4.070   1.894   8.108  0.4310  0.6987  1.0633
   39POPC  H12Y 5293   4.120   2.058   8.055 -0.2818  0.1137  1.1983
   39POPC  C313 5294   4.286   1.909   8.067  0.1113  0.3945  0.2546
   39POPC  H13X 5295   4.353   1.952   7.990 -0.0427 -1.8517 -1.1838
   39POPC  H13Y 5296   4.283   1.798   8.071 -1.8836  0.3525 -1.4270
   39POPC  C314 5297   4.341   1.959   8.203  0.0552  0.0965 -0.5446
   39POPC  H14X 5298   4.302   2.063   8.205  0.7477  0.3545 -0.1470
   39POPC  H14Y 5299   4.452   1.964   8.214 -0.0498 -0.6680  1.0077
   39POPC  C315 5300   4.267   1.872   8.309 -0.2373  0.2167 -0.0733
   39POPC  H15X 5301   4.312   1.771   8.296 -0.7115  0.3069 -2.6596
   39POPC  H15Y 5302   4.157   1.867   8.294  0.1743 -5.4779 -2.7839
   39POPC  C316 5303   4.284   1.921   8.452  0.0169 -0.5445 -0.2477
   39POPC  H16X 5304   4.392   1.933   8.473 -0.0757  0.7411 -0.4914
   39POPC  H16Y 5305   4.253   1.840   8.522 -1.1394  1.5531  1.7481
   39POPC  H16Z 5306   4.242   2.022   8.471  0.3113 -0.2995 -0.9030
   40POPC     N 5307   3.004   6.738   5.800 -0.5783  0.1643  0.2620
   40POPC   C12 5308   2.885   6.749   5.899 -0.2016 -0.9144  0.3230
   40POPC  H12A 5309   2.805   6.684   5.868  0.9143 -1.5314 -1.2817
   40POPC  H12B 5310   2.853   6.853   5.897  1.5185 -0.3991 -2.8329
   40POPC   C13 5311   3.114   6.826   5.844  0.2593 -0.2127  0.3058
   40POPC  H13A 5312   3.207   6.784   5.811 -0.0134  0.2713 -1.0911
   40POPC  H13B 5313   3.098   6.932   5.827  0.3939  0.1839  2.3922
   40POPC  H13C 5314   3.134   6.822   5.951  0.0542 -3.3614  0.2571
   40POPC   C14 5315   3.049   6.597   5.785  0.5058  0.6234 -0.1239
   40POPC  H14A 5316   2.972   6.531   5.748 -0.7035  1.9890 -0.1080
   40POPC  H14B 5317   3.136   6.609   5.724 -1.2836  1.5329 -2.5846
   40POPC  H14C 5318   3.068   6.557   5.884 -1.9118 -3.0525 -1.0213
   40POPC   C15 5319   2.962   6.779   5.659 -0.1643  0.5593 -0.4366
   40POPC  H15A 5320   2.923   6.880   5.666 -1.3116  0.0511  0.4261
   40POPC  H15B 5321   2.886   6.713   5.622 -1.2331  0.6622  1.5173
   40POPC  H15C 5322   3.050   6.771   5.596  1.5756  2.0869  1.6836
   40POPC   C11 5323   2.906   6.705   6.046 -0.0635  0.2778 -0.2588
   40POPC  H11A 5324   2.935   6.598   6.053 -0.5782  0.0271 -1.8361
   40POPC  H11B 5325   2.803   6.721   6.084  0.7020  1.1388  1.5019
   40POPC     P 5326   2.970   6.846   6.266 -0.2746 -0.0892 -0.0402
   40POPC   O13 5327   2.892   6.968   6.239  0.0062  0.2470 -0.1210
   40POPC   O14 5328   3.103   6.860   6.324  0.2193 -0.1501  0.2620
   40POPC   O12 5329   2.996   6.782   6.122  0.0385  0.5778 -0.1369
   40POPC   O11 5330   2.894   6.725   6.337 -0.5917 -0.0179 -0.8110
   40POPC    C1 5331   2.947   6.595   6.356  0.3011 -0.3074  0.0746
   40POPC    HA 5332   3.047   6.590   6.307  1.5534  0.2050  2.4896
   40POPC    HB 5333   2.883   6.517   6.310 -0.7607 -0.2245  1.3959
   40POPC    C2 5334   2.963   6.557   6.505 -0.6435  0.3412 -0.0496
   40POPC    HS 5335   2.971   6.447   6.514  0.9222  0.4509  0.1615
   40POPC   O21 5336   2.860   6.617   6.584  0.0658  0.2141  0.0197
   40POPC   C21 5337   2.742   6.550   6.576 -0.1376 -0.0123  0.1323
   40POPC   O22 5338   2.714   6.461   6.494 -0.1058 -0.3117  0.6634
   40POPC   C22 5339   2.637   6.612   6.665  0.4579 -0.1380 -0.2476
   40POPC   H2R 5340   2.545   6.560   6.630  0.3367 -1.1091  1.4533
   40POPC   H2S 5341   2.627   6.717   6.631 -0.9541 -1.1546 -3.1818
   40POPC    C3 5342   3.111   6.597   6.550  0.6274  0.0477  0.5537
   40POPC    HX 5343   3.136   6.703   6.525  0.1193  0.0104 -0.1321
   40POPC    HY 5344   3.173   6.541   6.477 -0.7419  0.4885 -0.9924
   40POPC   O31 5345   3.145   6.557   6.686 -0.4902 -0.2254  0.6962
   40POPC   C31 5346   3.199   6.440   6.706 -0.2946  0.8197 -0.4652
   40POPC   O32 5347   3.218   6.358   6.618  0.2406 -0.5020 -0.5266
   40POPC   C32 5348   3.253   6.425   6.852  0.4239  0.1085  0.4676
   40POPC   H2X 5349   3.327   6.506   6.871  0.5933  0.5770 -2.0948
   40POPC   H2Y 5350   3.321   6.337   6.854  1.7415  1.0390 -1.7452
   40POPC   C23 5351   2.650   6.591   6.814  1.0202  0.5185 -0.0562
   40POPC   H3R 5352   2.742   6.639   6.853  0.6913 -0.1741  1.5946
   40POPC   H3S 5353   2.666   6.484   6.838 -0.0272  0.5327  0.7209
   40POPC   C24 5354   2.521   6.649   6.887  0.2515 -0.5219  0.3455
   40POPC   H4R 5355   2.445   6.569   6.876 -1.7145  1.5430 -1.6494
   40POPC   H4S 5356   2.498   6.743   6.834  0.5389 -0.2154  0.7633
   40POPC   C25 5357   2.549   6.692   7.025  0.1590 -0.2446 -0.6155
   40POPC   H5R 5358   2.451   6.728   7.063  0.2240 -1.5307  0.8182
   40POPC   H5S 5359   2.625   6.773   7.026 -0.7281  0.5978  0.1630
   40POPC   C26 5360   2.601   6.591   7.126  0.4398 -0.3880 -0.6692
   40POPC   H6R 5361   2.697   6.552   7.085  0.9862 -1.3292  1.4676
   40POPC   H6S 5362   2.521   6.514   7.136  1.8762 -1.7632  0.3386
   40POPC   C27 5363   2.616   6.653   7.267 -0.6268 -0.4517  0.1551
   40POPC   H7R 5364   2.524   6.706   7.301 -0.3735 -0.1025  0.3073
   40POPC   H7S 5365   2.696   6.731   7.263 -0.0677 -0.9847  0.8210
   40POPC   C28 5366   2.674   6.545   7.366  0.3554  0.6955 -0.5777
   40POPC   H8R 5367   2.772   6.512   7.326 -0.4666 -1.1316 -1.1409
   40POPC   H8S 5368   2.601   6.463   7.354  2.7383 -1.3155 -1.7911
   40POPC   C29 5369   2.680   6.596   7.509 -0.5425 -0.1636  0.4882
   40POPC   H91 5370   2.736   6.690   7.518  2.9326 -2.1466  0.3645
   40POPC  C210 5371   2.623   6.546   7.616  0.0391 -0.3891 -0.4422
   40POPC  H101 5372   2.640   6.605   7.707  0.1255 -0.4877 -0.3953
   40POPC  C211 5373   2.542   6.419   7.626 -0.0959  0.8617 -0.6630
   40POPC  H11R 5374   2.565   6.347   7.545  3.6801  0.9358  0.2539
   40POPC  H11S 5375   2.437   6.454   7.618  0.0041  1.3977  0.3073
   40POPC  C212 5376   2.544   6.356   7.768 -0.3715 -0.7733 -0.9048
   40POPC  H12R 5377   2.648   6.325   7.788 -0.2290  0.6794  0.6734
   40POPC  H12S 5378   2.479   6.267   7.782 -0.0244 -1.1086 -1.4115
   40POPC  C213 5379   2.500   6.442   7.889 -0.1540 -0.8302  0.1528
   40POPC  H13R 5380   2.413   6.395   7.939  0.0976  0.4830  1.8897
   40POPC  H13S 5381   2.470   6.539   7.846  0.6744 -0.5702  0.1429
   40POPC  C214 5382   2.612   6.472   7.990  0.4447 -0.0604  0.2156
   40POPC  H14R 5383   2.709   6.490   7.938  0.1113  1.8707  0.2254
   40POPC  H14S 5384   2.619   6.387   8.061  0.4737  1.2496  1.8214
   40POPC  C215 5385   2.577   6.580   8.100  0.7641 -0.3200 -0.1955
   40POPC  H15R 5386   2.472   6.564   8.133  0.4516 -0.7532 -1.3780
   40POPC  H15S 5387   2.579   6.684   8.063 -0.9753  0.1676  1.0035
   40POPC  C216 5388   2.680   6.567   8.219 -0.0973 -0.7733  0.2585
   40POPC  H16R 5389   2.784   6.590   8.187 -0.4367 -1.6736 -1.5930
   40POPC  H16S 5390   2.671   6.464   8.259 -0.7726 -0.3292  1.2495
   40POPC  C217 5391   2.642   6.646   8.349 -0.7262  0.8903 -0.0358
   40POPC  H17R 5392   2.638   6.756   8.333  0.5458  0.9241 -0.2369
   40POPC  H17S 5393   2.728   6.617   8.414 -0.1811  0.9031 -0.7410
   40POPC  C218 5394   2.520   6.595   8.430 -0.1903  0.5368  0.5587
   40POPC  H18R 5395   2.426   6.642   8.395 -0.3813 -1.4758 -1.7794
   40POPC  H18S 5396   2.526   6.612   8.539 -0.6134  4.1424  0.0827
   40POPC  H18T 5397   2.526   6.485   8.421 -1.4546  0.3103  2.4016
   40POPC   C33 5398   3.143   6.435   6.958 -0.1745  0.3363 -0.0598
   40POPC   H3X 5399   3.075   6.522   6.944  0.4147  0.8490  0.2869
   40POPC   H3Y 5400   3.192   6.461   7.054 -0.7515 -0.3402  0.4275
   40POPC   C34 5401   3.066   6.301   6.978 -0.7439 -0.0704 -0.3061
   40POPC   H4X 5402   3.126   6.208   6.975 -1.9778 -0.8883 -0.0470
   40POPC   H4Y 5403   2.995   6.314   6.893  0.9137 -1.5554 -1.9792
   40POPC   C35 5404   2.989   6.309   7.109 -0.7964  0.2783  0.1898
   40POPC   H5X 5405   2.918   6.224   7.103  0.4982 -0.7711 -0.6947
   40POPC   H5Y 5406   2.940   6.409   7.110  0.0419  0.7302 -1.2743
   40POPC   C36 5407   3.076   6.296   7.242 -0.1560 -0.5893  0.8322
   40POPC   H6X 5408   3.169   6.357   7.242 -0.3175 -0.2912  3.1960
   40POPC   H6Y 5409   3.108   6.190   7.246 -0.2850 -0.6374  0.5976
   40POPC   C37 5410   2.996   6.335   7.354 -0.4921 -0.3087 -0.4419
   40POPC   H7X 5411   2.906   6.271   7.366 -1.0631  0.8227  1.6027
   40POPC   H7Y 5412   2.958   6.438   7.334  0.1245  0.1117  0.5097
   40POPC   C38 5413   3.063   6.330   7.491 -0.4984  0.2942  0.0391
   40POPC   H8X 5414   3.143   6.407   7.484  0.9114 -1.0125  1.3262
   40POPC   H8Y 5415   3.119   6.234   7.497  0.0036  0.6136  0.5622
   40POPC   C39 5416   2.969   6.336   7.605 -0.2824 -0.7082 -0.1212
   40POPC   H9X 5417   2.906   6.245   7.595 -1.0635 -0.1764 -0.1904
   40POPC   H9Y 5418   2.902   6.425   7.600  1.9026  0.9810  0.1651
   40POPC  C310 5419   3.045   6.352   7.735 -0.1919  0.8880  0.5310
   40POPC  H10X 5420   3.075   6.459   7.744 -0.6881  0.9446  1.5981
   40POPC  H10Y 5421   3.138   6.292   7.735 -1.4844 -1.1720  0.6552
   40POPC  C311 5422   2.957   6.323   7.855 -0.0501  0.3389 -0.5255
   40POPC  H11X 5423   2.923   6.217   7.855 -0.2784  0.3655  2.5455
   40POPC  H11Y 5424   2.864   6.384   7.859 -0.0827  0.1540  3.3376
   40POPC  C312 5425   3.030   6.359   7.983 -0.5939  0.1967 -0.3996
   40POPC  H12X 5426   3.063   6.465   7.984 -0.7895  0.2504  0.6937
   40POPC  H12Y 5427   3.123   6.302   7.965  1.0734  3.5010 -2.8234
   40POPC  C313 5428   2.950   6.326   8.116  0.1638  0.5680 -0.1059
   40POPC  H13X 5429   2.943   6.215   8.113 -1.3551  0.6356  0.5745
   40POPC  H13Y 5430   2.846   6.365   8.123 -0.2635 -0.7162  1.0285
   40POPC  C314 5431   3.023   6.359   8.246 -0.4913 -0.6841  0.2223
   40POPC  H14X 5432   3.026   6.468   8.265  1.3102 -0.5607 -0.6423
   40POPC  H14Y 5433   3.126   6.319   8.233 -1.6655 -3.3293 -1.4122
   40POPC  C315 5434   2.966   6.291   8.371  0.1759  0.2350  0.0428
   40POPC  H15X 5435   2.949   6.183   8.352 -0.0873  0.1769  0.6342
   40POPC  H15Y 5436   2.869   6.339   8.392 -1.3894 -1.1087 -3.6977
   40POPC  C316 5437   3.059   6.302   8.487 -0.1274 -0.2708  0.4305
   40POPC  H16X 5438   3.166   6.312   8.459 -0.1189 -1.3372  0.0559
   40POPC  H16Y 5439   3.052   6.222   8.564  0.2300 -0.3430  0.3923
   40POPC  H16Z 5440   3.041   6.401   8.534  0.7407  0.7582 -1.3437
   41CHL1    C3 5441   1.437   3.401   9.953 -0.0341 -0.3174 -0.6958
   41CHL1    H3 5442   1.472   3.296   9.947 -1.7923 -0.9659 -0.0622
   41CHL1    O3 5443   1.461   3.435  10.090  0.8022  0.6948  0.0119
   41CHL1   H3' 5444   1.435   3.528  10.094  1.1729  0.8058 -0.1095
   41CHL1    C4 5445   1.514   3.505   9.875 -0.2100  0.9271  0.3939
   41CHL1   H4A 5446   1.476   3.608   9.895  0.7240  1.8815 -2.4940
   41CHL1   H4B 5447   1.621   3.493   9.899  0.2586  1.6862 -1.2384
   41CHL1    C5 5448   1.486   3.486   9.721  0.7061 -0.2284  0.6516
   41CHL1    C6 5449   1.589   3.473   9.636 -0.0812 -0.5557 -0.4014
   41CHL1    H6 5450   1.693   3.464   9.671  0.8217  2.8213 -2.0452
   41CHL1    C7 5451   1.572   3.461   9.485 -0.1624  0.3076  1.1423
   41CHL1   H7A 5452   1.657   3.511   9.435  1.2339 -1.3028  1.8438
   41CHL1   H7B 5453   1.571   3.351   9.471 -2.4806  0.1378  2.3835
   41CHL1    C8 5454   1.434   3.497   9.432  0.4328 -0.8811  0.3189
   41CHL1    H8 5455   1.429   3.608   9.434  1.9120 -0.8161  2.0370
   41CHL1   C14 5456   1.407   3.444   9.287 -0.1460  0.1508 -1.0689
   41CHL1   H14 5457   1.397   3.333   9.289 -1.1502  0.2179 -1.8386
   41CHL1   C15 5458   1.513   3.478   9.184  1.0937  0.4839  0.4683
   41CHL1  H15A 5459   1.532   3.585   9.206  2.0730  0.1825  1.1620
   41CHL1  H15B 5460   1.614   3.433   9.196  0.2749 -2.0074 -1.5033
   41CHL1   C16 5461   1.444   3.445   9.052  0.0728  0.1835  0.3375
   41CHL1  H16A 5462   1.463   3.522   8.974  0.3184  1.2485  1.4328
   41CHL1  H16B 5463   1.486   3.349   9.015 -1.8292  0.3465 -2.4126
   41CHL1   C17 5464   1.293   3.418   9.085 -0.4823 -0.2934  0.8535
   41CHL1   H17 5465   1.272   3.310   9.100  0.0382 -0.6375 -0.7328
   41CHL1   C13 5466   1.277   3.488   9.224 -0.6536  0.1054  0.0286
   41CHL1   C18 5467   1.273   3.646   9.205  0.2826  0.1787  0.2433
   41CHL1  H18A 5468   1.171   3.676   9.174  0.6467 -0.3556 -1.5322
   41CHL1  H18B 5469   1.288   3.689   9.307  1.6109 -0.7185  0.4390
   41CHL1  H18C 5470   1.347   3.685   9.133 -0.6785  1.1374 -0.2299
   41CHL1   C12 5471   1.160   3.442   9.315 -0.3239  0.7337 -0.2458
   41CHL1  H12A 5472   1.070   3.499   9.284 -0.8393 -0.6078 -1.2661
   41CHL1  H12B 5473   1.143   3.332   9.305 -2.8631  0.9683  1.0225
   41CHL1   C11 5474   1.187   3.480   9.470  0.3435 -0.4443 -0.0459
   41CHL1  H11A 5475   1.173   3.590   9.478 -2.1049 -0.8677  2.2885
   41CHL1  H11B 5476   1.113   3.427   9.534  0.7522  0.5131  1.2486
   41CHL1    C9 5477   1.326   3.442   9.524 -0.3598 -0.4418 -0.5407
   41CHL1    H9 5478   1.352   3.334   9.520 -0.2659 -0.4259 -0.3736
   41CHL1   C10 5479   1.342   3.489   9.677  0.2967  0.5687 -0.4815
   41CHL1   C19 5480   1.288   3.636   9.693 -0.4735 -0.1143 -0.2876
   41CHL1  H19A 5481   1.177   3.639   9.703 -0.3737  2.2695  0.3879
   41CHL1  H19B 5482   1.316   3.683   9.790 -3.2871 -0.7018  0.8543
   41CHL1  H19C 5483   1.304   3.700   9.604 -2.2254  0.5495 -0.1463
   41CHL1    C1 5484   1.258   3.393   9.767  0.0545 -0.6162 -0.3142
   41CHL1   H1A 5485   1.150   3.390   9.743 -0.3990 -1.2036  1.7552
   41CHL1   H1B 5486   1.293   3.289   9.751  1.6863 -0.5584  2.5417
   41CHL1    C2 5487   1.288   3.403   9.918 -0.2277 -0.3792 -0.6749
   41CHL1   H2A 5488   1.228   3.323   9.967  0.1167 -1.8281 -2.5468
   41CHL1   H2B 5489   1.249   3.499   9.955 -0.4378 -0.1785 -1.4111
   41CHL1   C20 5490   1.198   3.467   8.968 -0.0362  0.2967  0.4775
   41CHL1   H20 5491   1.197   3.578   8.975  2.3140  0.2507  2.0267
   41CHL1   C21 5492   1.061   3.398   8.999  0.3878 -0.2623 -0.5547
   41CHL1  H21A 5493   0.994   3.441   8.922  1.0013  1.3837 -0.1995
   41CHL1  H21B 5494   1.026   3.437   9.097  1.3565 -1.8068  0.4347
   41CHL1  H21C 5495   1.051   3.288   9.003 -1.3905 -0.0984 -0.0828
   41CHL1   C22 5496   1.246   3.442   8.823  0.1814  0.0903 -0.1678
   41CHL1  H22A 5497   1.162   3.480   8.762 -0.0016 -1.5804 -0.9887
   41CHL1  H22B 5498   1.335   3.506   8.801 -1.5475  1.7292 -2.5815
   41CHL1   C23 5499   1.273   3.297   8.797 -0.3106  0.3119 -0.1118
   41CHL1  H23A 5500   1.352   3.260   8.866 -0.9199  2.7251  1.9397
   41CHL1  H23B 5501   1.187   3.240   8.840  1.6429 -1.6050  1.3710
   41CHL1   C24 5502   1.320   3.263   8.662  0.0014 -0.1055  0.7941
   41CHL1  H24A 5503   1.232   3.251   8.596  0.6114 -1.2308  0.1617
   41CHL1  H24B 5504   1.392   3.342   8.631  0.3999 -1.2125 -1.1797
   41CHL1   C25 5505   1.387   3.123   8.660 -0.3334  0.1224  0.3837
   41CHL1   H25 5506   1.454   3.126   8.749 -1.5896  0.0668  1.3412
   41CHL1   C26 5507   1.288   3.013   8.681  0.3033  0.5555  0.1080
   41CHL1  H26A 5508   1.232   2.991   8.588 -0.5623 -3.5628  1.4787
   41CHL1  H26B 5509   1.336   2.915   8.705 -0.5935  0.3112  0.9845
   41CHL1  H26C 5510   1.207   3.045   8.749  0.7379  0.1179  0.8451
   41CHL1   C27 5511   1.464   3.099   8.534  0.3629 -0.0607 -0.7341
   41CHL1  H27A 5512   1.563   3.149   8.534 -0.0471  0.7673  0.7132
   41CHL1  H27B 5513   1.486   2.993   8.509  0.9747  0.6246 -3.2800
   41CHL1  H27C 5514   1.417   3.136   8.440  2.3720  1.3787 -1.2007
   42CHL1    C3 5515   1.236   2.913   9.783  0.0385 -0.3534 -0.2271
   42CHL1    H3 5516   1.337   2.914   9.736 -1.0826  0.2453 -2.6944
   42CHL1    O3 5517   1.244   2.946   9.922  0.1321  0.1520  0.1963
   42CHL1   H3' 5518   1.153   2.936   9.952  0.2536 -2.5891 -0.2163
   42CHL1    C4 5519   1.147   3.012   9.715  0.6465 -0.3464  0.4808
   42CHL1   H4A 5520   1.047   2.998   9.762 -0.2565  1.6787 -0.7631
   42CHL1   H4B 5521   1.176   3.119   9.721  1.2980 -0.2395 -3.6452
   42CHL1    C5 5522   1.134   2.976   9.567  0.8887  0.0226 -0.1074
   42CHL1    C6 5523   1.178   3.059   9.471 -0.4461  0.1273 -0.1109
   42CHL1    H6 5524   1.238   3.147   9.500 -0.6413  0.3906 -0.5021
   42CHL1    C7 5525   1.165   3.020   9.323  0.7100 -0.4487 -0.7923
   42CHL1   H7A 5526   1.156   3.109   9.257 -1.3890  0.4035  0.5816
   42CHL1   H7B 5527   1.257   2.960   9.305  0.8320 -0.9109  1.2178
   42CHL1    C8 5528   1.053   2.912   9.295  0.2629 -0.1630 -0.3928
   42CHL1    H8 5529   0.955   2.958   9.322  0.5367  0.8984 -1.2137
   42CHL1   C14 5530   1.065   2.857   9.149 -0.6550 -0.7225 -0.5543
   42CHL1   H14 5531   1.165   2.810   9.146 -0.2075 -0.0479  2.3974
   42CHL1   C15 5532   1.067   2.964   9.039  0.3730  0.3501 -0.2484
   42CHL1  H15A 5533   0.996   3.048   9.052 -2.1830 -1.4706 -1.9429
   42CHL1  H15B 5534   1.155   3.019   9.000 -0.7155  1.7799 -0.7302
   42CHL1   C16 5535   1.014   2.884   8.923  0.0298  0.2471 -0.0193
   42CHL1  H16A 5536   0.920   2.932   8.890 -0.0429 -0.1581 -0.4148
   42CHL1  H16B 5537   1.092   2.886   8.844  1.2564 -0.6882  1.1588
   42CHL1   C17 5538   0.979   2.738   8.965  0.7093 -0.6560 -0.2353
   42CHL1   H17 5539   1.066   2.672   8.947 -0.0362 -1.9243  0.7944
   42CHL1   C13 5540   0.961   2.753   9.119  0.3461 -0.6736  0.1644
   42CHL1   C18 5541   0.818   2.807   9.145 -0.0867  0.0352 -0.1878
   42CHL1  H18A 5542   0.809   2.838   9.251 -2.2538  0.2893 -0.4108
   42CHL1  H18B 5543   0.783   2.897   9.089 -0.3053 -0.0150 -0.1315
   42CHL1  H18C 5544   0.754   2.717   9.134  2.7251 -2.1109  0.3775
   42CHL1   C12 5545   0.994   2.633   9.206  0.0056  0.1159 -0.7304
   42CHL1  H12A 5546   0.940   2.538   9.188 -2.1600  1.1231  0.2883
   42CHL1  H12B 5547   1.101   2.602   9.197  0.4277  0.0117  3.5561
   42CHL1   C11 5548   0.978   2.674   9.356  0.5772  0.3770 -0.6289
   42CHL1  H11A 5549   0.870   2.687   9.375  0.9494  1.9244  0.5227
   42CHL1  H11B 5550   1.008   2.586   9.416 -2.3689 -1.2476 -1.4636
   42CHL1    C9 5551   1.071   2.794   9.397 -0.5574 -0.0747 -0.1344
   42CHL1    H9 5552   1.172   2.753   9.376 -0.6041 -0.7754  0.9644
   42CHL1   C10 5553   1.066   2.840   9.548  0.3201 -0.5783 -0.1014
   42CHL1   C19 5554   0.919   2.832   9.588  0.3185  0.0089 -0.3266
   42CHL1  H19A 5555   0.907   2.875   9.690  1.1817 -1.8088  0.5691
   42CHL1  H19B 5556   0.847   2.884   9.522 -1.1952  2.1173  2.8558
   42CHL1  H19C 5557   0.895   2.725   9.606 -0.2670  0.4248  1.4847
   42CHL1    C1 5558   1.153   2.740   9.625 -0.0057 -0.0607 -0.2373
   42CHL1   H1A 5559   1.102   2.642   9.614 -2.2329  0.7162  2.4487
   42CHL1   H1B 5560   1.252   2.736   9.576  0.1350  1.0086 -0.0612
   42CHL1    C2 5561   1.177   2.772   9.770  0.5322  0.2329 -0.0277
   42CHL1   H2A 5562   1.227   2.689   9.824 -0.9484 -0.9245 -0.3791
   42CHL1   H2B 5563   1.075   2.777   9.815  1.7243  0.1881  2.8228
   42CHL1   C20 5564   0.852   2.682   8.890  0.4912  0.6131 -0.2136
   42CHL1   H20 5565   0.768   2.753   8.904 -0.3464  0.0469 -2.2213
   42CHL1   C21 5566   0.817   2.541   8.940  0.6285  0.2332 -0.3942
   42CHL1  H21A 5567   0.762   2.543   9.036 -3.6322  0.4696 -2.6852
   42CHL1  H21B 5568   0.909   2.479   8.944  0.5569  0.1121 -0.5715
   42CHL1  H21C 5569   0.755   2.492   8.861  1.8683  1.4717 -2.1833
   42CHL1   C22 5570   0.862   2.674   8.733 -0.2216 -0.2596  0.6985
   42CHL1  H22A 5571   0.763   2.643   8.693  0.7870 -0.0172 -2.0607
   42CHL1  H22B 5572   0.875   2.776   8.692 -0.0002 -1.0836 -1.3734
   42CHL1   C23 5573   0.969   2.584   8.670  0.0260  0.3410  0.6301
   42CHL1  H23A 5574   1.062   2.630   8.709 -0.8753  2.9360 -0.1649
   42CHL1  H23B 5575   0.947   2.483   8.708  2.2336  0.3533  2.0172
   42CHL1   C24 5576   0.978   2.582   8.520  0.0880  0.5619  0.2806
   42CHL1  H24A 5577   1.013   2.682   8.488  1.3894  0.6670  1.9364
   42CHL1  H24B 5578   1.057   2.510   8.491  0.2292  0.5570  0.6704
   42CHL1   C25 5579   0.849   2.532   8.443 -1.2645 -0.0586 -0.4396
   42CHL1   H25 5580   0.763   2.583   8.491  0.7904  1.0009  2.2536
   42CHL1   C26 5581   0.856   2.583   8.300 -0.3571 -0.0861 -0.3265
   42CHL1  H26A 5582   0.917   2.514   8.239  0.0641 -1.3545  1.5067
   42CHL1  H26B 5583   0.751   2.572   8.265 -0.4273 -0.4424 -0.0109
   42CHL1  H26C 5584   0.889   2.689   8.309  1.4800 -0.7225  0.7393
   42CHL1   C27 5585   0.824   2.375   8.470 -0.0005 -0.7650  0.1695
   42CHL1  H27A 5586   0.735   2.354   8.407 -0.3511  2.3510 -0.4796
   42CHL1  H27B 5587   0.924   2.332   8.444 -0.1399 -0.9999  0.0228
   42CHL1  H27C 5588   0.797   2.360   8.576  1.1008  1.2213  0.7614
   43CHL1    C3 5589   1.771   3.168   9.798 -0.1051 -0.1101 -0.1000
   43CHL1    H3 5590   1.716   3.264   9.787 -3.7469 -2.2353 -1.2114
   43CHL1    O3 5591   1.772   3.140   9.936 -0.7960 -0.2740  0.0327
   43CHL1   H3' 5592   1.848   3.189   9.967  1.0525 -2.8788 -0.2529
   43CHL1    C4 5593   1.704   3.048   9.730 -0.5497 -0.8029 -0.1769
   43CHL1   H4A 5594   1.753   2.952   9.756  0.7153 -0.3376 -0.8270
   43CHL1   H4B 5595   1.604   3.038   9.779  0.7186  1.6589  3.0581
   43CHL1    C5 5596   1.706   3.064   9.583 -0.0291  0.4296 -0.4975
   43CHL1    C6 5597   1.588   3.066   9.519  0.1181 -0.2095 -0.1478
   43CHL1    H6 5598   1.496   3.068   9.578 -0.3108  0.6972 -0.8332
   43CHL1    C7 5599   1.572   3.076   9.374 -0.1860  0.5388  0.1180
   43CHL1   H7A 5600   1.508   2.995   9.334  1.9958 -0.6981 -0.9321
   43CHL1   H7B 5601   1.531   3.176   9.348 -1.0790  0.4809  1.2298
   43CHL1    C8 5602   1.712   3.063   9.299  0.3677  0.2152  0.2998
   43CHL1    H8 5603   1.739   2.956   9.287  1.4784  0.6102 -0.9171
   43CHL1   C14 5604   1.708   3.121   9.158 -0.2803 -0.5763  0.8462
   43CHL1   H14 5605   1.694   3.230   9.170  0.7272 -0.2113 -1.2384
   43CHL1   C15 5606   1.593   3.069   9.058  0.5749 -0.3255 -0.5656
   43CHL1  H15A 5607   1.597   2.958   9.053  1.0623 -0.2896 -1.0141
   43CHL1  H15B 5608   1.488   3.104   9.062  0.5725 -0.4013  0.1110
   43CHL1   C16 5609   1.651   3.117   8.927  0.0582 -0.5043  0.3346
   43CHL1  H16A 5610   1.675   3.026   8.869 -0.5023  0.2925 -1.1608
   43CHL1  H16B 5611   1.585   3.197   8.886 -0.0574 -0.7829 -0.0185
   43CHL1   C17 5612   1.793   3.177   8.945 -0.5302 -0.1966 -0.0017
   43CHL1   H17 5613   1.778   3.286   8.960  1.5988  0.3830 -1.9194
   43CHL1   C13 5614   1.839   3.118   9.080  0.5179 -0.1393 -0.2986
   43CHL1   C18 5615   1.890   2.972   9.057 -0.5279  0.3398 -0.3337
   43CHL1  H18A 5616   1.838   2.923   8.971 -2.3525  1.3804  0.1309
   43CHL1  H18B 5617   1.994   2.974   9.019 -1.0365  0.6600 -1.7242
   43CHL1  H18C 5618   1.875   2.906   9.145  0.0552 -0.3046 -0.7196
   43CHL1   C12 5619   1.947   3.198   9.159 -0.0393 -0.2261 -0.2629
   43CHL1  H12A 5620   2.039   3.223   9.101  0.6660 -1.7302  0.1707
   43CHL1  H12B 5621   1.913   3.302   9.173  1.8628  0.4450 -0.4001
   43CHL1   C11 5622   1.964   3.133   9.293  0.0393  0.0409 -0.0759
   43CHL1  H11A 5623   1.999   3.027   9.291  1.8494  0.5800  1.5408
   43CHL1  H11B 5624   2.030   3.190   9.362 -0.5800  1.3318 -0.5387
   43CHL1    C9 5625   1.832   3.128   9.375  0.1684 -0.2760 -0.1136
   43CHL1    H9 5626   1.799   3.234   9.382 -1.1733 -0.7445  0.8428
   43CHL1   C10 5627   1.843   3.077   9.522  0.3885 -0.3928 -0.0626
   43CHL1   C19 5628   1.907   2.940   9.522  0.6436 -0.1880 -0.3550
   43CHL1  H19A 5629   1.867   2.872   9.444 -0.4645  0.5340 -0.4324
   43CHL1  H19B 5630   2.015   2.954   9.501  0.2154  2.4509 -1.0631
   43CHL1  H19C 5631   1.901   2.888   9.620 -3.6684  2.1891  0.7661
   43CHL1    C1 5632   1.919   3.184   9.602  0.2090  0.4414  0.0491
   43CHL1   H1A 5633   2.026   3.188   9.575 -0.0470  0.7423 -0.9586
   43CHL1   H1B 5634   1.879   3.288   9.593  0.2837  0.6030  1.4763
   43CHL1    C2 5635   1.918   3.161   9.754 -0.1021  0.3840 -0.4307
   43CHL1   H2A 5636   1.967   3.248   9.802 -0.9976  2.5614 -3.3166
   43CHL1   H2B 5637   1.964   3.068   9.793  0.3955  0.5906 -0.5136
   43CHL1   C20 5638   1.889   3.175   8.829 -0.1182  0.5619  0.0798
   43CHL1   H20 5639   1.930   3.073   8.810  0.9629  1.0424 -0.2293
   43CHL1   C21 5640   2.017   3.256   8.857 -0.2453 -0.2789 -0.2702
   43CHL1  H21A 5641   1.978   3.353   8.894  0.5081  0.0811 -0.4071
   43CHL1  H21B 5642   2.074   3.276   8.764 -0.0014 -0.1403 -0.0896
   43CHL1  H21C 5643   2.092   3.192   8.908  0.2762  0.7442  0.2430
   43CHL1   C22 5644   1.824   3.222   8.695  0.1369  0.1516  0.1530
   43CHL1  H22A 5645   1.900   3.214   8.616  2.3557  2.7151  1.9104
   43CHL1  H22B 5646   1.733   3.163   8.670 -0.5343  1.6021 -0.9492
   43CHL1   C23 5647   1.794   3.378   8.696 -0.1828  0.5966  0.6502
   43CHL1  H23A 5648   1.719   3.394   8.777 -1.7464 -0.2344 -0.6167
   43CHL1  H23B 5649   1.886   3.435   8.717 -0.5731  1.2852  0.5010
   43CHL1   C24 5650   1.727   3.422   8.572 -0.1774  0.1974  0.5047
   43CHL1  H24A 5651   1.791   3.401   8.484  1.0629  1.3408  1.1128
   43CHL1  H24B 5652   1.632   3.367   8.559 -0.2024 -0.2442  2.3691
   43CHL1   C25 5653   1.685   3.572   8.552 -0.1154 -1.3609  0.6768
   43CHL1   H25 5654   1.770   3.644   8.554 -1.5478  0.4367 -1.5420
   43CHL1   C26 5655   1.606   3.592   8.417  0.0463  0.2315  0.2021
   43CHL1  H26A 5656   1.682   3.590   8.337  0.8311 -3.1210  0.9860
   43CHL1  H26B 5657   1.524   3.518   8.412  1.8280 -1.7070 -0.9573
   43CHL1  H26C 5658   1.566   3.696   8.421  1.1054  0.6074  1.6270
   43CHL1   C27 5659   1.596   3.621   8.672  0.7359  0.1154  0.0046
   43CHL1  H27A 5660   1.493   3.582   8.658  0.7392 -0.2874  1.0514
   43CHL1  H27B 5661   1.645   3.594   8.768 -1.1842 -1.9716  0.4356
   43CHL1  H27C 5662   1.585   3.732   8.671  2.5289  0.3068  0.3346
   44CHL1    C3 5663   2.029   3.793  10.128  0.5254 -0.0519  0.1853
   44CHL1    H3 5664   2.005   3.901  10.141  0.1008 -0.2146  0.8371
   44CHL1    O3 5665   2.054   3.737  10.256 -0.3741  0.2217 -0.0983
   44CHL1   H3' 5666   2.078   3.814  10.309 -0.1856 -1.0694  1.7475
   44CHL1    C4 5667   1.918   3.717  10.053  0.2671  1.2123  0.5484
   44CHL1   H4A 5668   1.946   3.610  10.050  0.1752  1.2005  0.1039
   44CHL1   H4B 5669   1.831   3.714  10.122 -0.0958  0.5493  0.0596
   44CHL1    C5 5670   1.885   3.757   9.912 -0.1572 -0.1131  0.4777
   44CHL1    C6 5671   1.765   3.801   9.872  0.2122  0.0587 -0.3527
   44CHL1    H6 5672   1.685   3.797   9.947 -0.7471 -0.0730 -1.3620
   44CHL1    C7 5673   1.734   3.824   9.720  0.3028 -0.4256 -0.0795
   44CHL1   H7A 5674   1.652   3.751   9.710 -1.9206  2.1486 -1.0893
   44CHL1   H7B 5675   1.684   3.922   9.707  1.5458  0.5584  2.1047
   44CHL1    C8 5676   1.855   3.780   9.626  0.3595 -0.4873  0.4942
   44CHL1    H8 5677   1.857   3.669   9.614 -0.3448 -0.4499  0.0032
   44CHL1   C14 5678   1.837   3.850   9.495  0.0227 -0.2377 -0.2870
   44CHL1   H14 5679   1.841   3.954   9.533  0.1811 -0.3647  0.0517
   44CHL1   C15 5680   1.698   3.851   9.427 -0.3326  0.0458 -0.0743
   44CHL1  H15A 5681   1.667   3.745   9.440 -0.5058  0.0307 -0.5861
   44CHL1  H15B 5682   1.616   3.908   9.475 -1.0774 -0.4580 -0.7464
   44CHL1   C16 5683   1.718   3.903   9.285 -0.2362 -0.0543  0.1172
   44CHL1  H16A 5684   1.672   3.843   9.204 -1.5451  1.4431 -0.2708
   44CHL1  H16B 5685   1.692   4.010   9.272  3.8648  1.1809  1.2799
   44CHL1   C17 5686   1.874   3.910   9.272 -0.0040  0.4451 -0.1727
   44CHL1   H17 5687   1.888   4.019   9.293 -2.7703  0.4527  1.9736
   44CHL1   C13 5688   1.930   3.822   9.386  0.3017 -0.0602  0.3686
   44CHL1   C18 5689   1.923   3.668   9.350  0.1992  0.2078 -0.0227
   44CHL1  H18A 5690   1.979   3.660   9.255 -1.0053 -0.7329 -0.6626
   44CHL1  H18B 5691   1.984   3.609   9.422  0.2932 -1.3132 -1.3067
   44CHL1  H18C 5692   1.820   3.635   9.325 -0.4034  2.1980 -0.2549
   44CHL1   C12 5693   2.068   3.863   9.443 -0.1478  0.1816 -0.1585
   44CHL1  H12A 5694   2.155   3.825   9.385  1.2621  2.7745  0.1850
   44CHL1  H12B 5695   2.084   3.971   9.423  2.2979  0.1443  1.3612
   44CHL1   C11 5696   2.101   3.807   9.582  0.1086 -0.4323 -0.0148
   44CHL1  H11A 5697   2.123   3.700   9.565  0.4670 -0.3813  0.1226
   44CHL1  H11B 5698   2.187   3.865   9.621 -2.0213  1.5970  1.8417
   44CHL1    C9 5699   1.988   3.818   9.687 -0.2791 -0.0885  0.4898
   44CHL1    H9 5700   1.986   3.928   9.705 -2.1434 -0.3169  1.7408
   44CHL1   C10 5701   2.011   3.749   9.826  0.5948 -0.4036  1.0096
   44CHL1   C19 5702   2.055   3.605   9.797 -0.4528 -0.2029  0.2072
   44CHL1  H19A 5703   1.975   3.546   9.747 -1.8980  0.3515  1.8115
   44CHL1  H19B 5704   2.143   3.597   9.731 -1.9952  0.1260 -1.9519
   44CHL1  H19C 5705   2.072   3.551   9.892 -1.8988 -0.3653  0.3925
   44CHL1    C1 5706   2.128   3.823   9.891 -0.6979  0.2759  0.1849
   44CHL1   H1A 5707   2.212   3.798   9.822 -0.5615  0.9322  0.1128
   44CHL1   H1B 5708   2.112   3.932   9.886  0.2424  0.4991  1.8662
   44CHL1    C2 5709   2.156   3.786  10.039 -0.1363 -0.3288 -0.4240
   44CHL1   H2A 5710   2.231   3.853  10.086 -0.6882  0.2914 -0.4278
   44CHL1   H2B 5711   2.185   3.679  10.046  1.4448  0.0521 -0.9302
   44CHL1   C20 5712   1.933   3.889   9.129  0.4000 -0.5370  0.3565
   44CHL1   H20 5713   1.896   3.790   9.094  0.9144  0.3272 -2.8493
   44CHL1   C21 5714   2.088   3.900   9.126  0.0971 -0.4831 -0.3977
   44CHL1  H21A 5715   2.122   3.991   9.180  0.6569 -0.7555 -0.2820
   44CHL1  H21B 5716   2.116   3.910   9.019 -0.6162 -0.1008 -0.5551
   44CHL1  H21C 5717   2.138   3.817   9.181 -3.8966 -1.9644  1.2016
   44CHL1   C22 5718   1.872   3.997   9.028 -0.1088  0.2580 -0.1624
   44CHL1  H22A 5719   1.763   4.001   9.048 -0.4205 -1.6103 -1.3239
   44CHL1  H22B 5720   1.914   4.099   9.029 -0.6323  0.5174 -2.0851
   44CHL1   C23 5721   1.863   3.950   8.882 -0.2772  0.7164 -0.4870
   44CHL1  H23A 5722   1.968   3.954   8.845 -0.4902  3.8274 -0.8492
   44CHL1  H23B 5723   1.826   3.846   8.870  0.9053  0.2543 -0.2468
   44CHL1   C24 5724   1.780   4.039   8.798  0.5260 -0.6378  0.7535
   44CHL1  H24A 5725   1.674   4.029   8.831  0.2880 -0.5361  0.0360
   44CHL1  H24B 5726   1.815   4.143   8.817  2.8763 -0.7546 -2.5153
   44CHL1   C25 5727   1.786   4.009   8.646 -0.2070 -0.0002  0.5609
   44CHL1   H25 5728   1.792   3.898   8.642 -0.6154  0.0021 -0.1532
   44CHL1   C26 5729   1.651   4.052   8.568  0.4398 -0.7696 -0.2923
   44CHL1  H26A 5730   1.644   4.025   8.461  2.0188 -0.6402 -0.4532
   44CHL1  H26B 5731   1.570   4.002   8.624  1.2317 -0.6373  0.9929
   44CHL1  H26C 5732   1.650   4.163   8.580  1.4900 -0.7655 -0.1891
   44CHL1   C27 5733   1.901   4.081   8.582  0.1424 -0.9557  0.3885
   44CHL1  H27A 5734   1.990   4.053   8.642  0.7807  1.6776  0.7684
   44CHL1  H27B 5735   1.919   4.041   8.480 -0.8212  2.2989 -1.1409
   44CHL1  H27C 5736   1.896   4.192   8.581  1.2951 -0.8739 -2.6249
   45CHL1    C3 5737   5.573   1.790  10.187  0.2585 -0.2522  0.4693
   45CHL1    H3 5738   5.679   1.798  10.219  0.7608 -2.2059 -0.6223
   45CHL1    O3 5739   5.499   1.818  10.299 -0.1390 -0.2172  0.3778
   45CHL1   H3' 5740   5.415   1.777  10.276  0.9876 -1.2582 -2.0644
   45CHL1    C4 5741   5.551   1.900  10.084  0.3491 -0.0432 -0.2107
   45CHL1   H4A 5742   5.442   1.906  10.067 -0.0636  0.5957  2.3707
   45CHL1   H4B 5743   5.584   1.990  10.141  1.7681 -0.5080 -0.2565
   45CHL1    C5 5744   5.630   1.880   9.959  0.0471  0.3937  0.1365
   45CHL1    C6 5745   5.702   1.980   9.911  0.7781 -0.3163 -0.4417
   45CHL1    H6 5746   5.702   2.079   9.960 -1.8441 -0.1015 -0.7898
   45CHL1    C7 5747   5.783   1.970   9.786 -0.5687  0.1575 -0.2273
   45CHL1   H7A 5748   5.766   2.061   9.723 -2.0561  0.5042  0.6608
   45CHL1   H7B 5749   5.889   1.982   9.820 -0.3068 -1.4328 -0.4767
   45CHL1    C8 5750   5.751   1.843   9.703  0.0037  0.2444  0.9076
   45CHL1    H8 5751   5.847   1.818   9.652  0.9234 -0.2427  2.8386
   45CHL1   C14 5752   5.669   1.868   9.581 -0.6475 -0.2756 -0.1265
   45CHL1   H14 5753   5.564   1.898   9.600 -0.9348 -2.9475  2.9388
   45CHL1   C15 5754   5.725   1.980   9.486  0.4938 -0.1864 -0.2301
   45CHL1  H15A 5755   5.686   2.079   9.519  0.5901 -0.4226  0.6014
   45CHL1  H15B 5756   5.836   1.985   9.482  0.4501 -0.2328 -1.5734
   45CHL1   C16 5757   5.698   1.935   9.343  0.0021  0.5875 -0.5136
   45CHL1  H16A 5758   5.592   1.942   9.312 -0.1594  0.1476 -0.0501
   45CHL1  H16B 5759   5.755   1.987   9.263  2.0059  1.6638  1.5134
   45CHL1   C17 5760   5.719   1.785   9.354  0.3399 -0.4070 -0.4150
   45CHL1   H17 5761   5.830   1.785   9.367  0.6302  2.3371 -2.4541
   45CHL1   C13 5762   5.662   1.742   9.485 -0.4503 -0.4577  0.1226
   45CHL1   C18 5763   5.516   1.713   9.466 -0.8288  0.0082  0.5020
   45CHL1  H18A 5764   5.495   1.612   9.423 -2.0544  0.1768  0.6831
   45CHL1  H18B 5765   5.469   1.696   9.565  0.3787 -1.9161  0.7747
   45CHL1  H18C 5766   5.458   1.788   9.409  0.3026  1.9795  1.8805
   45CHL1   C12 5767   5.736   1.620   9.548 -0.1025  0.3726  0.2288
   45CHL1  H12A 5768   5.708   1.523   9.501  1.8031  0.4096 -1.0284
   45CHL1  H12B 5769   5.841   1.649   9.528  0.6147 -2.4975 -0.4169
   45CHL1   C11 5770   5.714   1.587   9.692  0.4074  0.5099 -0.0503
   45CHL1  H11A 5771   5.609   1.552   9.696  0.2320  0.8740 -1.1971
   45CHL1  H11B 5772   5.776   1.498   9.718 -1.5860 -0.8327  0.2016
   45CHL1    C9 5773   5.727   1.717   9.789 -0.1840  0.2578  0.1489
   45CHL1    H9 5774   5.823   1.692   9.840  0.2088 -1.9210 -1.6030
   45CHL1   C10 5775   5.625   1.733   9.901  0.4341 -0.5049  0.5194
   45CHL1   C19 5776   5.483   1.723   9.844  0.6300  0.0600  0.4815
   45CHL1  H19A 5777   5.445   1.621   9.820 -0.8858  0.4967  0.9194
   45CHL1  H19B 5778   5.402   1.753   9.914 -0.1508 -0.9425  0.0206
   45CHL1  H19C 5779   5.461   1.784   9.754 -3.7404 -3.7116 -1.2380
   45CHL1    C1 5780   5.638   1.623  10.011 -0.4195  0.4368  0.4998
   45CHL1   H1A 5781   5.612   1.525   9.965  0.2388  0.8002 -0.6574
   45CHL1   H1B 5782   5.747   1.619  10.030 -0.0021 -1.9454 -1.9659
   45CHL1    C2 5783   5.546   1.646  10.132 -0.6880  0.3711  0.1618
   45CHL1   H2A 5784   5.569   1.561  10.201  2.4769  0.4486 -0.6980
   45CHL1   H2B 5785   5.439   1.652  10.105 -0.7098  2.1359  0.5846
   45CHL1   C20 5786   5.688   1.707   9.235  1.2103  0.1023  0.0193
   45CHL1   H20 5787   5.671   1.601   9.264  0.3537  0.4793  0.8953
   45CHL1   C21 5788   5.821   1.677   9.161 -0.0943  0.5670 -0.2537
   45CHL1  H21A 5789   5.904   1.659   9.233 -0.1323  0.9632 -0.1117
   45CHL1  H21B 5790   5.845   1.768   9.102 -0.7012 -0.2315 -1.7592
   45CHL1  H21C 5791   5.809   1.589   9.094  0.1695  2.1824 -2.4833
   45CHL1   C22 5792   5.587   1.752   9.136  0.5485  0.2555  0.3897
   45CHL1  H22A 5793   5.500   1.805   9.180  0.5554  1.1455 -0.6267
   45CHL1  H22B 5794   5.634   1.821   9.062  0.7571 -1.5135 -1.1707
   45CHL1   C23 5795   5.546   1.628   9.046  0.2717 -0.8255 -0.3553
   45CHL1  H23A 5796   5.627   1.585   8.983  0.7468  0.5614 -0.7220
   45CHL1  H23B 5797   5.518   1.546   9.115 -1.4044 -1.6132 -1.9137
   45CHL1   C24 5798   5.416   1.638   8.964  0.9662 -0.2760  0.2549
   45CHL1  H24A 5799   5.328   1.666   9.027 -0.3940  1.0097 -2.1547
   45CHL1  H24B 5800   5.424   1.723   8.893 -0.8762 -0.6992 -0.4845
   45CHL1   C25 5801   5.386   1.509   8.892  0.3879 -0.5843  0.5493
   45CHL1   H25 5802   5.477   1.478   8.836 -0.4593  0.9242 -1.7702
   45CHL1   C26 5803   5.333   1.402   8.980 -0.3985  0.6526  0.0332
   45CHL1  H26A 5804   5.306   1.312   8.921  1.9763  0.8977 -1.5133
   45CHL1  H26B 5805   5.393   1.377   9.069 -1.3906  3.1618  1.4672
   45CHL1  H26C 5806   5.237   1.441   9.021  0.2919  2.0614  0.3666
   45CHL1   C27 5807   5.284   1.538   8.782  0.0384 -0.8541 -0.1062
   45CHL1  H27A 5808   5.241   1.446   8.738  1.4857 -0.4372 -2.4448
   45CHL1  H27B 5809   5.210   1.606   8.831  3.6611  2.5726  0.9369
   45CHL1  H27C 5810   5.331   1.598   8.702 -0.2979 -0.5121 -0.0493
   46CHL1    C3 5811   2.552   6.156  10.134  0.2051  0.0255 -0.0622
   46CHL1    H3 5812   2.613   6.064  10.147 -0.9392 -0.9493 -1.4604
   46CHL1    O3 5813   2.518   6.201  10.268 -0.1407 -0.1419  0.3217
   46CHL1   H3' 5814   2.598   6.173  10.315  0.9176 -1.8942 -2.3716
   46CHL1    C4 5815   2.638   6.267  10.066 -0.4562 -0.2550  0.0206
   46CHL1   H4A 5816   2.574   6.358  10.071  0.6375  0.6653 -1.8979
   46CHL1   H4B 5817   2.738   6.274  10.114  0.7341 -0.6838 -2.3439
   46CHL1    C5 5818   2.655   6.237   9.914 -0.0714 -0.3799 -0.8396
   46CHL1    C6 5819   2.774   6.237   9.855  0.5380 -0.4596 -0.6979
   46CHL1    H6 5820   2.865   6.255   9.916  0.9508 -0.7039 -1.2373
   46CHL1    C7 5821   2.792   6.214   9.710 -0.3121  0.1502  0.1411
   46CHL1   H7A 5822   2.855   6.299   9.673 -0.6381  0.2995 -0.0713
   46CHL1   H7B 5823   2.852   6.120   9.712  0.2769  0.4768 -1.3714
   46CHL1    C8 5824   2.666   6.218   9.622  0.0315 -0.2222 -0.5007
   46CHL1    H8 5825   2.622   6.320   9.620 -0.9571 -0.6140  0.7291
   46CHL1   C14 5826   2.689   6.172   9.484 -0.6382 -1.3415  0.2142
   46CHL1   H14 5827   2.741   6.075   9.498  0.3820 -0.7815  0.3207
   46CHL1   C15 5828   2.788   6.261   9.399  0.0269 -0.1437  0.6352
   46CHL1  H15A 5829   2.783   6.371   9.410 -0.1102  0.1011 -1.5494
   46CHL1  H15B 5830   2.892   6.243   9.435 -0.0692  0.7974  1.3778
   46CHL1   C16 5831   2.763   6.215   9.257  0.8576  0.5492  0.1132
   46CHL1  H16A 5832   2.746   6.299   9.186  0.1373 -0.2419 -0.6559
   46CHL1  H16B 5833   2.850   6.154   9.227 -0.3867 -0.4686 -1.5501
   46CHL1   C17 5834   2.642   6.118   9.268 -0.5071  0.0253 -0.5038
   46CHL1   H17 5835   2.686   6.017   9.286  0.5706  0.3590 -1.2203
   46CHL1   C13 5836   2.566   6.156   9.395 -0.2113  0.3270  0.1412
   46CHL1   C18 5837   2.493   6.286   9.369 -0.6181 -0.1085 -0.6654
   46CHL1  H18A 5838   2.549   6.351   9.299  1.5135 -2.0370 -0.8053
   46CHL1  H18B 5839   2.394   6.268   9.321 -1.5478 -2.4821  2.0495
   46CHL1  H18C 5840   2.466   6.342   9.461 -1.2578 -2.1518  0.4069
   46CHL1   C12 5841   2.476   6.045   9.461  0.2705 -0.1730  0.4791
   46CHL1  H12A 5842   2.386   6.017   9.403 -0.0726  0.2104  0.8220
   46CHL1  H12B 5843   2.537   5.953   9.473  0.4804 -0.2203 -0.8845
   46CHL1   C11 5844   2.438   6.090   9.606  0.3818  0.5610 -0.2446
   46CHL1  H11A 5845   2.354   6.164   9.608  0.2227  0.3688  0.3800
   46CHL1  H11B 5846   2.403   5.993   9.647 -0.3950  0.7884 -0.3613
   46CHL1    C9 5847   2.561   6.130   9.698  0.4121 -0.2173  0.7172
   46CHL1    H9 5848   2.608   6.030   9.711 -0.7846 -0.9449 -0.3893
   46CHL1   C10 5849   2.519   6.197   9.839 -0.9427 -0.8467 -0.1887
   46CHL1   C19 5850   2.435   6.328   9.825 -0.5089 -0.0803  0.2300
   46CHL1  H19A 5851   2.338   6.304   9.775  0.4640 -0.6773 -1.4123
   46CHL1  H19B 5852   2.412   6.383   9.919  0.7729 -1.3179  1.2882
   46CHL1  H19C 5853   2.496   6.398   9.764  0.6719 -0.8135  0.5661
   46CHL1    C1 5854   2.442   6.090   9.917 -0.8231  0.3944  0.7289
   46CHL1   H1A 5855   2.344   6.081   9.865  0.1930  0.0805 -1.1434
   46CHL1   H1B 5856   2.487   5.988   9.910 -0.3363  0.7600 -1.7085
   46CHL1    C2 5857   2.417   6.136  10.060  0.5242  0.4011 -0.1103
   46CHL1   H2A 5858   2.373   6.054  10.120 -0.9770 -0.3191 -2.1440
   46CHL1   H2B 5859   2.347   6.223  10.062 -0.4182 -0.3725  3.0802
   46CHL1   C20 5860   2.558   6.122   9.138 -0.5005 -0.7462 -0.8446
   46CHL1   H20 5861   2.521   6.225   9.119 -1.2803 -1.0466 -0.9913
   46CHL1   C21 5862   2.422   6.038   9.141  0.0411  0.5792  0.0102
   46CHL1  H21A 5863   2.353   6.099   9.204 -1.4593  0.3748 -1.3853
   46CHL1  H21B 5864   2.433   5.932   9.173  0.8824  0.1496 -1.6354
   46CHL1  H21C 5865   2.378   6.025   9.040 -0.7636  0.9877  0.3033
   46CHL1   C22 5866   2.642   6.084   9.013  0.2271  0.0296  0.4471
   46CHL1  H22A 5867   2.717   6.166   9.010 -2.3166  2.4472  0.6642
   46CHL1  H22B 5868   2.698   5.988   9.018  1.2731  0.6170  0.2312
   46CHL1   C23 5869   2.575   6.091   8.879 -0.3828  0.0087  0.0822
   46CHL1  H23A 5870   2.494   6.019   8.855 -0.1603  0.6429 -2.7603
   46CHL1  H23B 5871   2.518   6.184   8.862 -2.7664 -1.3715  0.2914
   46CHL1   C24 5872   2.671   6.083   8.761 -0.2382 -0.2966 -0.5159
   46CHL1  H24A 5873   2.724   6.178   8.741 -1.1185  0.0233 -1.3665
   46CHL1  H24B 5874   2.746   6.005   8.786  0.4799 -1.1036 -4.6979
   46CHL1   C25 5875   2.594   6.036   8.632 -0.4657 -0.5264 -0.3082
   46CHL1   H25 5876   2.531   5.946   8.649 -0.6797 -0.1340  1.0321
   46CHL1   C26 5877   2.516   6.153   8.568  0.4386 -0.0211 -0.6073
   46CHL1  H26A 5878   2.582   6.238   8.541  0.6434  0.7376  2.1179
   46CHL1  H26B 5879   2.482   6.110   8.472 -1.1238 -0.2776  0.0505
   46CHL1  H26C 5880   2.433   6.188   8.632  0.2241  2.5229 -2.2181
   46CHL1   C27 5881   2.698   5.997   8.532 -0.5293  0.8467 -0.8220
   46CHL1  H27A 5882   2.744   5.903   8.569 -1.0484  0.8878 -0.0811
   46CHL1  H27B 5883   2.656   5.968   8.433 -1.5281 -1.1388  0.1666
   46CHL1  H27C 5884   2.773   6.079   8.522  0.9558 -0.6940 -2.6102
   47CHL1    C3 5885   2.489   3.085  10.017  0.0489 -0.0275 -0.5341
   47CHL1    H3 5886   2.570   3.009  10.002 -0.9527 -1.0088 -1.0886
   47CHL1    O3 5887   2.477   3.087  10.158 -0.4553 -0.3064 -0.1776
   47CHL1   H3' 5888   2.412   3.154  10.181  2.1179  1.4065  2.4303
   47CHL1    C4 5889   2.539   3.224   9.965 -0.1041  0.0214  0.1305
   47CHL1   H4A 5890   2.462   3.298   9.996 -0.4384 -1.0010  1.8038
   47CHL1   H4B 5891   2.636   3.256  10.010 -0.4199  2.0168 -0.5451
   47CHL1    C5 5892   2.538   3.215   9.806 -0.2348  0.3396 -0.0365
   47CHL1    C6 5893   2.653   3.237   9.738  0.0554  0.4778  0.3755
   47CHL1    H6 5894   2.744   3.266   9.793  1.5370 -1.2253 -1.1264
   47CHL1    C7 5895   2.675   3.212   9.593  0.1135  1.3295 -0.0273
   47CHL1   H7A 5896   2.733   3.297   9.551 -0.7197  1.2078 -1.4463
   47CHL1   H7B 5897   2.749   3.131   9.575 -0.1218  1.6423 -2.5317
   47CHL1    C8 5898   2.545   3.196   9.513  0.6421  0.2892  0.5612
   47CHL1    H8 5899   2.498   3.296   9.518 -0.5703 -0.1228 -2.0322
   47CHL1   C14 5900   2.565   3.157   9.362 -0.0363 -0.4594  0.1907
   47CHL1   H14 5901   2.615   3.058   9.360  0.1309 -0.3485 -1.8342
   47CHL1   C15 5902   2.658   3.257   9.290 -0.3216  0.3217  0.3185
   47CHL1  H15A 5903   2.645   3.363   9.319  2.1585  0.7967 -0.2027
   47CHL1  H15B 5904   2.766   3.234   9.305 -0.6246 -0.6041  1.1422
   47CHL1   C16 5905   2.617   3.240   9.145  0.1087 -0.1311  0.3359
   47CHL1  H16A 5906   2.564   3.330   9.109  0.0461  0.3194  1.5412
   47CHL1  H16B 5907   2.697   3.206   9.076  1.0518  1.0579  0.8225
   47CHL1   C17 5908   2.498   3.130   9.152  0.2859 -0.2659  0.2365
   47CHL1   H17 5909   2.550   3.033   9.164  2.9057  0.8758 -1.4529
   47CHL1   C13 5910   2.435   3.146   9.288  0.2951  0.3638 -0.1458
   47CHL1   C18 5911   2.356   3.278   9.288  0.5141  0.3429  0.3458
   47CHL1  H18A 5912   2.340   3.320   9.389  1.2762 -0.6512  0.8820
   47CHL1  H18B 5913   2.408   3.360   9.233 -0.1041  0.1927 -0.4799
   47CHL1  H18C 5914   2.251   3.270   9.251 -0.2870 -0.5363  2.7325
   47CHL1   C12 5915   2.352   3.028   9.355  0.1371  0.4806  0.0250
   47CHL1  H12A 5916   2.252   3.021   9.307 -0.3139 -0.3728  1.0827
   47CHL1  H12B 5917   2.407   2.932   9.350  2.1356  1.4875  1.6226
   47CHL1   C11 5918   2.324   3.059   9.503  0.4557  0.2803  0.0665
   47CHL1  H11A 5919   2.247   3.139   9.500 -0.2220 -0.3605  0.2370
   47CHL1  H11B 5920   2.276   2.971   9.551  1.6559 -0.0910  0.5770
   47CHL1    C9 5921   2.453   3.095   9.585 -0.1572 -0.6411 -0.1704
   47CHL1    H9 5922   2.504   2.996   9.590  1.5235  0.2345  0.3777
   47CHL1   C10 5923   2.427   3.143   9.728 -0.2707 -1.0373 -0.7473
   47CHL1   C19 5924   2.313   3.241   9.718 -0.2608 -0.1660  0.2642
   47CHL1  H19A 5925   2.293   3.308   9.805 -0.6598 -1.1367  0.9240
   47CHL1  H19B 5926   2.335   3.306   9.630  0.1452  0.7719  1.0435
   47CHL1  H19C 5927   2.222   3.183   9.690  1.5932 -2.2456 -1.6682
   47CHL1    C1 5928   2.378   3.014   9.810  0.5236 -0.2888  0.3740
   47CHL1   H1A 5929   2.280   2.979   9.771  1.2271  1.3231 -3.0518
   47CHL1   H1B 5930   2.454   2.933   9.804 -0.2710 -0.9363 -1.3254
   47CHL1    C2 5931   2.358   3.043   9.958  0.4886 -0.6727 -0.0785
   47CHL1   H2A 5932   2.318   2.950  10.004 -0.6391  0.4211  1.2035
   47CHL1   H2B 5933   2.284   3.125   9.974  0.5992 -0.3459 -1.2039
   47CHL1   C20 5934   2.412   3.124   9.023  0.2240 -0.0705  0.7352
   47CHL1   H20 5935   2.372   3.227   9.017  0.9595  0.1366 -0.9552
   47CHL1   C21 5936   2.296   3.020   9.031 -0.2879 -0.4908 -0.1268
   47CHL1  H21A 5937   2.228   3.052   9.113  0.0818 -2.7587  1.1190
   47CHL1  H21B 5938   2.332   2.916   9.048  0.8839 -0.8961 -4.5548
   47CHL1  H21C 5939   2.233   3.024   8.939  0.5808  0.7953 -0.6720
   47CHL1   C22 5940   2.504   3.100   8.896  0.3271  0.4716  0.3328
   47CHL1  H22A 5941   2.584   3.177   8.897 -0.0033  0.8296 -0.1378
   47CHL1  H22B 5942   2.558   3.004   8.910 -0.7901 -0.3724 -1.0063
   47CHL1   C23 5943   2.420   3.092   8.771 -0.2816  0.1903  0.1409
   47CHL1  H23A 5944   2.378   2.990   8.758 -0.8048  0.4598 -0.3068
   47CHL1  H23B 5945   2.335   3.162   8.790 -0.5383 -0.4025  1.2657
   47CHL1   C24 5946   2.489   3.135   8.635 -0.0793  0.3001 -0.1044
   47CHL1  H24A 5947   2.514   3.243   8.641  1.4265 -0.0860  0.6062
   47CHL1  H24B 5948   2.582   3.078   8.616  1.5025  2.0360  2.1443
   47CHL1   C25 5949   2.390   3.117   8.508  0.2892 -0.5540  0.2218
   47CHL1   H25 5950   2.330   3.025   8.521 -2.2332  0.9590 -0.4017
   47CHL1   C26 5951   2.304   3.237   8.479  0.0844 -0.2866 -0.2746
   47CHL1  H26A 5952   2.235   3.216   8.394 -1.1010  1.5046  0.2339
   47CHL1  H26B 5953   2.355   3.335   8.463 -3.1808  1.3929 -0.8360
   47CHL1  H26C 5954   2.239   3.262   8.565  1.3232 -1.0976  0.9178
   47CHL1   C27 5955   2.477   3.092   8.383  0.7418  0.0442  0.1911
   47CHL1  H27A 5956   2.548   3.176   8.364  1.8156 -1.0380 -0.6450
   47CHL1  H27B 5957   2.536   3.004   8.417 -1.1663 -1.3559 -0.0569
   47CHL1  H27C 5958   2.421   3.054   8.296  2.4217 -1.3243 -0.3145
   48CHL1    C3 5959   3.457   3.939  10.188 -0.2394  0.7633 -0.0288
   48CHL1    H3 5960   3.456   4.047  10.164 -0.5447  0.8412  0.3284
   48CHL1    O3 5961   3.437   3.926  10.327  0.3659  0.9112 -0.1131
   48CHL1   H3' 5962   3.397   3.840  10.344  1.7040  0.1903 -0.5095
   48CHL1    C4 5963   3.335   3.884  10.115 -0.5235 -0.4416 -0.4558
   48CHL1   H4A 5964   3.313   3.776  10.132  2.7850 -1.4267 -1.9439
   48CHL1   H4B 5965   3.246   3.943  10.144 -0.9838 -1.3515 -0.0208
   48CHL1    C5 5966   3.356   3.898   9.964  0.0460  0.0957 -0.3032
   48CHL1    C6 5967   3.283   3.978   9.887 -0.4429  0.4680 -0.3799
   48CHL1    H6 5968   3.200   4.029   9.939  1.2705  0.0515  2.8807
   48CHL1    C7 5969   3.295   3.996   9.737  0.3119  0.5353 -0.5893
   48CHL1   H7A 5970   3.201   3.987   9.678 -1.6282  0.6423  2.3921
   48CHL1   H7B 5971   3.330   4.098   9.710  1.4958  0.6726  1.4022
   48CHL1    C8 5972   3.397   3.893   9.676 -0.9249  0.0160 -0.2661
   48CHL1    H8 5973   3.344   3.796   9.662 -4.0592  1.7511 -0.7463
   48CHL1   C14 5974   3.439   3.944   9.538 -0.3453  0.1084 -0.7321
   48CHL1   H14 5975   3.492   4.038   9.564 -1.8671  0.8929 -0.3871
   48CHL1   C15 5976   3.332   3.978   9.429 -0.5954  0.2407 -0.2270
   48CHL1  H15A 5977   3.254   3.899   9.433 -2.7316  2.3293  0.1403
   48CHL1  H15B 5978   3.274   4.073   9.435 -1.4600 -0.1505 -1.8612
   48CHL1   C16 5979   3.406   3.955   9.293  0.3530 -0.0934 -0.3400
   48CHL1  H16A 5980   3.349   3.874   9.243  0.6748 -1.2929  1.1897
   48CHL1  H16B 5981   3.406   4.043   9.225 -1.2422 -1.1919 -1.8060
   48CHL1   C17 5982   3.546   3.916   9.323 -0.7201 -0.1592  0.2259
   48CHL1   H17 5983   3.607   4.008   9.336 -1.7609  0.7337 -1.1384
   48CHL1   C13 5984   3.538   3.852   9.463  0.2216  0.1169  0.5792
   48CHL1   C18 5985   3.476   3.708   9.447  0.4773  0.6908 -0.3206
   48CHL1  H18A 5986   3.473   3.658   9.546  1.4265  1.2398 -0.0171
   48CHL1  H18B 5987   3.372   3.709   9.407  0.7295 -1.3484 -1.1294
   48CHL1  H18C 5988   3.531   3.648   9.372 -1.2700  0.0526 -1.1395
   48CHL1   C12 5989   3.662   3.842   9.537  0.4725  0.8974 -0.4053
   48CHL1  H12A 5990   3.733   3.770   9.491 -1.5765 -1.4455  0.0364
   48CHL1  H12B 5991   3.708   3.943   9.536  0.9800  0.6856  1.3356
   48CHL1   C11 5992   3.639   3.804   9.685  0.6688 -0.1966  0.4179
   48CHL1  H11A 5993   3.631   3.693   9.681 -3.0980  0.0429 -0.6503
   48CHL1  H11B 5994   3.738   3.827   9.730  2.1268  1.2858 -3.4136
   48CHL1    C9 5995   3.526   3.878   9.763 -0.3224  0.4319 -0.4973
   48CHL1    H9 5996   3.568   3.981   9.766  4.4485 -1.2988 -2.6218
   48CHL1   C10 5997   3.490   3.832   9.913 -0.3217  0.9117  1.1419
   48CHL1   C19 5998   3.466   3.678   9.917  0.0019 -0.4202  0.3940
   48CHL1  H19A 5999   3.372   3.661   9.861  1.5974 -0.9314 -2.2387
   48CHL1  H19B 6000   3.549   3.627   9.864  0.6605 -1.2185  2.1444
   48CHL1  H19C 6001   3.457   3.642  10.022 -2.3311  2.1568  1.1501
   48CHL1    C1 6002   3.615   3.871   9.999  0.1159 -0.3192 -0.3512
   48CHL1   H1A 6003   3.703   3.806   9.982 -0.0115 -0.4637 -0.4552
   48CHL1   H1B 6004   3.651   3.974   9.978 -0.2214 -0.2684 -0.6758
   48CHL1    C2 6005   3.585   3.873  10.155  0.1253 -0.0744 -0.3658
   48CHL1   H2A 6006   3.674   3.920  10.202  0.3193  0.4475 -1.2499
   48CHL1   H2B 6007   3.591   3.769  10.193  2.1134  0.6614  1.4360
   48CHL1   C20 6008   3.629   3.841   9.214  0.1371 -0.1416  0.8011
   48CHL1   H20 6009   3.693   3.766   9.267 -2.1311  0.9265  5.3576
   48CHL1   C21 6010   3.723   3.945   9.142 -0.7761 -0.4482  0.0460
   48CHL1  H21A 6011   3.759   3.907   9.044 -1.7524 -0.4935 -0.2996
   48CHL1  H21B 6012   3.803   3.987   9.206 -1.2617  0.0474  0.3307
   48CHL1  H21C 6013   3.652   4.023   9.108 -1.6829 -0.3525  2.0901
   48CHL1   C22 6014   3.545   3.767   9.104 -0.1012  0.1921  0.1478
   48CHL1  H22A 6015   3.462   3.714   9.156 -0.6876  0.9388 -0.0244
   48CHL1  H22B 6016   3.500   3.854   9.052 -1.3142 -1.3403 -1.4570
   48CHL1   C23 6017   3.609   3.685   8.995  0.1300  0.9013 -0.1362
   48CHL1  H23A 6018   3.692   3.739   8.945  0.1273  1.3443  0.3360
   48CHL1  H23B 6019   3.650   3.598   9.049 -0.8996  0.1055 -0.6186
   48CHL1   C24 6020   3.506   3.644   8.887 -0.7078 -0.5913 -0.8189
   48CHL1  H24A 6021   3.500   3.737   8.827  1.6110 -0.0561 -0.2595
   48CHL1  H24B 6022   3.557   3.570   8.822  0.3163 -1.1126  0.5598
   48CHL1   C25 6023   3.361   3.605   8.932  1.0385  0.1124 -0.2150
   48CHL1   H25 6024   3.311   3.686   8.991  0.6923 -1.1191  1.2204
   48CHL1   C26 6025   3.271   3.577   8.819  0.7945  0.4258 -0.2003
   48CHL1  H26A 6026   3.171   3.543   8.856  1.2693 -1.3158 -0.4609
   48CHL1  H26B 6027   3.263   3.660   8.745  0.0143 -0.3101 -0.9549
   48CHL1  H26C 6028   3.323   3.494   8.767 -0.7728 -0.5848 -0.1783
   48CHL1   C27 6029   3.366   3.484   9.030 -0.4529  0.0342  0.1151
   48CHL1  H27A 6030   3.260   3.461   9.052 -0.1901  0.7410  2.2251
   48CHL1  H27B 6031   3.406   3.396   8.974 -1.8194  0.2232 -1.1776
   48CHL1  H27C 6032   3.432   3.503   9.117 -1.0660  0.2215  0.5355
   49CHL1    C3 6033   2.120   5.104  10.158 -0.2948 -0.0383 -0.4541
   49CHL1    H3 6034   2.178   5.189  10.200 -0.0103 -0.6209  0.3310
   49CHL1    O3 6035   2.110   5.004  10.258 -0.2006  0.0331 -0.5235
   49CHL1   H3' 6036   2.035   4.949  10.234 -1.5121  0.7167  1.8175
   49CHL1    C4 6037   1.982   5.169  10.125 -0.0576  0.0597  1.1444
   49CHL1   H4A 6038   1.910   5.085  10.118 -1.4065  1.2480  0.6522
   49CHL1   H4B 6039   1.959   5.218  10.222 -1.4398  1.4735  0.1048
   49CHL1    C5 6040   1.991   5.251   9.996 -0.2375 -0.9309  0.2341
   49CHL1    C6 6041   1.955   5.380   9.991 -0.0380  0.0245 -0.0149
   49CHL1    H6 6042   1.927   5.435  10.083  0.0172 -0.1126  0.0848
   49CHL1    C7 6043   1.957   5.458   9.870 -0.1948  0.0448 -0.5457
   49CHL1   H7A 6044   1.876   5.533   9.877  0.2093  0.2895  2.0319
   49CHL1   H7B 6045   2.057   5.505   9.876 -0.2288  0.2758 -1.6566
   49CHL1    C8 6046   1.948   5.375   9.737  0.5801 -0.1364  1.1420
   49CHL1    H8 6047   1.842   5.342   9.729  0.0607  1.6779  0.2637
   49CHL1   C14 6048   1.973   5.460   9.610 -0.3822  0.0332 -0.0115
   49CHL1   H14 6049   2.077   5.502   9.613 -0.4909  0.3849 -1.0957
   49CHL1   C15 6050   1.881   5.585   9.595  0.1686 -0.2216  0.2193
   49CHL1  H15A 6051   1.777   5.549   9.609 -0.8274  2.2054 -0.7225
   49CHL1  H15B 6052   1.898   5.668   9.666  1.7103  0.1630 -0.5793
   49CHL1   C16 6053   1.893   5.625   9.449  0.4673  0.1232  0.4116
   49CHL1  H16A 6054   1.796   5.639   9.396  0.3389  1.3620  0.9681
   49CHL1  H16B 6055   1.962   5.711   9.439 -0.9265  1.2076 -0.0235
   49CHL1   C17 6056   1.965   5.501   9.383  0.3291  0.2259 -0.6037
   49CHL1   H17 6057   2.071   5.536   9.376  0.9398 -1.3779  0.5153
   49CHL1   C13 6058   1.945   5.387   9.483 -0.7045  0.6454  0.3155
   49CHL1   C18 6059   1.798   5.339   9.469 -0.3785 -0.2257  0.2468
   49CHL1  H18A 6060   1.786   5.274   9.380 -3.9737  0.2656  0.2887
   49CHL1  H18B 6061   1.765   5.272   9.551  1.6210 -0.7330  0.6663
   49CHL1  H18C 6062   1.731   5.427   9.464  0.0236  0.1339  1.0946
   49CHL1   C12 6063   2.044   5.274   9.479  0.1366 -0.2026  0.5602
   49CHL1  H12A 6064   2.019   5.209   9.392 -0.5294  0.8270 -0.0300
   49CHL1  H12B 6065   2.146   5.317   9.481  0.2473 -0.2584 -2.0330
   49CHL1   C11 6066   2.037   5.179   9.607  0.0081  0.7280  0.1262
   49CHL1  H11A 6067   1.952   5.110   9.587  3.3394 -3.5163  0.0204
   49CHL1  H11B 6068   2.127   5.114   9.609 -0.0208  0.7387  2.7856
   49CHL1    C9 6069   2.043   5.259   9.742  0.7097  0.3347 -0.2618
   49CHL1    H9 6070   2.142   5.308   9.756 -0.0544  1.4463  1.4875
   49CHL1   C10 6071   2.036   5.172   9.872 -0.0901  0.6587  0.1621
   49CHL1   C19 6072   1.929   5.057   9.846  0.0698 -0.0237 -0.1582
   49CHL1  H19A 6073   1.833   5.108   9.823 -2.5818 -3.8917  1.8519
   49CHL1  H19B 6074   1.958   4.991   9.762 -1.1742 -1.2858  0.4021
   49CHL1  H19C 6075   1.912   4.991   9.933 -1.5350 -0.2829 -0.6600
   49CHL1    C1 6076   2.176   5.117   9.912 -0.4635  0.5737  0.2382
   49CHL1   H1A 6077   2.224   5.066   9.825 -1.5207 -0.5620  0.3081
   49CHL1   H1B 6078   2.229   5.214   9.917 -1.7090  1.5633 -3.5769
   49CHL1    C2 6079   2.184   5.037  10.044  0.0554  0.3049  0.1627
   49CHL1   H2A 6080   2.286   4.997  10.066 -1.7707 -4.3664  0.6915
   49CHL1   H2B 6081   2.122   4.948  10.023  0.0563 -0.0555  1.6884
   49CHL1   C20 6082   1.915   5.478   9.240 -0.6350  0.0309 -0.0257
   49CHL1   H20 6083   1.808   5.449   9.247 -0.0928 -2.1198 -0.3395
   49CHL1   C21 6084   1.986   5.372   9.170  0.6043 -0.6903  0.1734
   49CHL1  H21A 6085   1.960   5.273   9.214  1.7731 -0.7008  0.8755
   49CHL1  H21B 6086   2.093   5.400   9.169  0.7891 -1.3838  0.5401
   49CHL1  H21C 6087   1.971   5.361   9.061 -0.9065 -1.9007  0.4781
   49CHL1   C22 6088   1.932   5.609   9.160 -0.1590  0.3591  0.4218
   49CHL1  H22A 6089   1.879   5.689   9.216 -2.0676 -0.2632 -0.4484
   49CHL1  H22B 6090   2.037   5.643   9.149 -0.5825  1.3060 -0.8149
   49CHL1   C23 6091   1.869   5.614   9.018 -0.1209  0.3730 -0.3797
   49CHL1  H23A 6092   1.906   5.531   8.954 -1.5159 -0.2791 -0.3554
   49CHL1  H23B 6093   1.762   5.591   9.039  0.2147 -0.1874  0.7406
   49CHL1   C24 6094   1.886   5.757   8.954  0.3587  0.5392  0.1941
   49CHL1  H24A 6095   1.847   5.830   9.028 -0.5680  1.7939 -1.5044
   49CHL1  H24B 6096   1.995   5.768   8.939  1.1143 -2.2142  2.9995
   49CHL1   C25 6097   1.804   5.784   8.823  0.0679  0.1134 -0.6380
   49CHL1   H25 6098   1.860   5.733   8.741  0.6706 -2.2084  1.1766
   49CHL1   C26 6099   1.658   5.725   8.822  1.4524  0.2943 -0.4091
   49CHL1  H26A 6100   1.602   5.780   8.744 -0.8497  1.3980  1.9714
   49CHL1  H26B 6101   1.665   5.614   8.821  0.5580  0.2321  0.2286
   49CHL1  H26C 6102   1.613   5.745   8.921  0.4816 -0.4439 -0.7014
   49CHL1   C27 6103   1.797   5.932   8.790  0.6868  0.5834 -0.6606
   49CHL1  H27A 6104   1.898   5.974   8.774  1.1405 -0.4432 -0.4953
   49CHL1  H27B 6105   1.734   5.951   8.701 -0.6915  1.0403  0.3766
   49CHL1  H27C 6106   1.757   5.988   8.877  2.2034 -0.7547  0.9455
   50CHL1    C3 6107   4.943   0.861  10.255  0.1358  0.7743 -0.0104
   50CHL1    H3 6108   4.838   0.831  10.233 -0.1802  1.7590  0.1336
   50CHL1    O3 6109   4.969   0.823  10.389  0.0457 -0.5548  0.4702
   50CHL1   H3' 6110   5.055   0.863  10.405  0.0263  0.4873 -1.9192
   50CHL1    C4 6111   5.034   0.785  10.158 -0.3271  0.7527 -0.0049
   50CHL1   H4A 6112   5.134   0.823  10.189 -0.9104  0.4191  2.3699
   50CHL1   H4B 6113   5.031   0.679  10.192  2.7583 -0.0133 -1.9257
   50CHL1    C5 6114   5.010   0.819  10.015 -0.0459  0.5349  0.2490
   50CHL1    C6 6115   4.993   0.721   9.921  0.2108  0.3746  0.8946
   50CHL1    H6 6116   4.998   0.617   9.956 -1.8565 -0.1339 -0.2395
   50CHL1    C7 6117   4.962   0.750   9.774 -0.5057  0.0256 -0.2679
   50CHL1   H7A 6118   4.999   0.675   9.701  3.1304  1.2887  0.2090
   50CHL1   H7B 6119   4.852   0.743   9.761 -0.3265 -0.6409 -1.5255
   50CHL1    C8 6120   5.000   0.896   9.734  0.4130  0.1002  0.5674
   50CHL1    H8 6121   5.109   0.905   9.718 -0.1509  2.1581 -2.6263
   50CHL1   C14 6122   4.925   0.926   9.604  0.4730  0.7622  0.3595
   50CHL1   H14 6123   4.818   0.919   9.633  0.8002  0.2004  1.4359
   50CHL1   C15 6124   4.935   0.827   9.487 -0.4691  0.4408 -0.5821
   50CHL1  H15A 6125   5.043   0.800   9.484 -0.3721  0.7322  0.2095
   50CHL1  H15B 6126   4.884   0.728   9.498  0.7384 -0.0177  1.1742
   50CHL1   C16 6127   4.915   0.913   9.363 -0.2882  0.6142  0.4275
   50CHL1  H16A 6128   5.011   0.900   9.309 -0.5853  1.0036 -0.1913
   50CHL1  H16B 6129   4.827   0.893   9.299 -1.1935  2.4045  1.0925
   50CHL1   C17 6130   4.903   1.062   9.410  0.7929  0.3428  0.0807
   50CHL1   H17 6131   4.795   1.079   9.428  0.2544 -1.1738 -1.6137
   50CHL1   C13 6132   4.968   1.065   9.549  0.0602  0.0165 -0.4738
   50CHL1   C18 6133   5.120   1.066   9.525 -0.3057 -0.2714  0.8301
   50CHL1  H18A 6134   5.145   0.988   9.449  1.2990  0.8491  0.1662
   50CHL1  H18B 6135   5.153   1.165   9.486 -2.3322 -0.1145 -0.5567
   50CHL1  H18C 6136   5.192   1.047   9.607  0.1480  0.9482  0.7180
   50CHL1   C12 6137   4.912   1.163   9.651 -0.6113  0.0112  0.1494
   50CHL1  H12A 6138   4.943   1.266   9.623 -4.2960  0.6636 -1.7947
   50CHL1  H12B 6139   4.801   1.159   9.657 -0.7549  2.6324  0.0347
   50CHL1   C11 6140   4.974   1.137   9.789  0.3646  0.0126  0.4811
   50CHL1  H11A 6141   5.082   1.159   9.775  0.0789 -0.2590 -2.3560
   50CHL1  H11B 6142   4.926   1.211   9.857 -0.5464  0.4479 -0.6319
   50CHL1    C9 6143   4.949   0.993   9.839  0.2091  0.5561 -0.3257
   50CHL1    H9 6144   4.838   0.982   9.837  0.1425  1.0034  0.4361
   50CHL1   C10 6145   5.006   0.968   9.981  0.2981  0.0692 -0.5891
   50CHL1   C19 6146   5.146   1.026   9.992  0.8806  0.0447 -0.3061
   50CHL1  H19A 6147   5.215   0.993   9.912  0.3709  3.0676 -2.0837
   50CHL1  H19B 6148   5.151   1.137   9.997  1.8479 -0.0835  2.6311
   50CHL1  H19C 6149   5.192   0.985  10.084 -0.3496  2.1981  1.2966
   50CHL1    C1 6150   4.919   1.054  10.085  0.2949  0.3702 -0.7682
   50CHL1   H1A 6151   4.936   1.162  10.063  1.5653  0.4496  0.5116
   50CHL1   H1B 6152   4.810   1.047  10.064  0.7714 -2.1596 -2.5759
   50CHL1    C2 6153   4.947   1.016  10.229  0.1209  0.3706 -0.0816
   50CHL1   H2A 6154   4.876   1.061  10.303 -1.0516  2.2648 -2.2951
   50CHL1   H2B 6155   5.050   1.040  10.264  0.3547 -1.6760  0.6887
   50CHL1   C20 6156   4.949   1.167   9.305  0.1977 -0.7863 -0.0503
   50CHL1   H20 6157   5.053   1.137   9.282  1.0434 -0.0351  2.6006
   50CHL1   C21 6158   4.947   1.319   9.351 -0.2309  0.4678  0.2055
   50CHL1  H21A 6159   4.854   1.360   9.394  0.1188 -0.0290  1.4662
   50CHL1  H21B 6160   4.981   1.388   9.271 -0.3349  2.2761  1.6837
   50CHL1  H21C 6161   5.032   1.326   9.423  0.8700 -0.1680 -0.9931
   50CHL1   C22 6162   4.864   1.160   9.176  0.1508  0.2155  0.0942
   50CHL1  H22A 6163   4.825   1.057   9.164 -2.3026  1.5434 -4.5048
   50CHL1  H22B 6164   4.780   1.231   9.195 -0.5842 -0.1360 -1.7883
   50CHL1   C23 6165   4.941   1.197   9.044  0.6570 -0.0720 -0.5326
   50CHL1  H23A 6166   4.985   1.298   9.064 -0.8324  0.4658  0.1299
   50CHL1  H23B 6167   5.017   1.121   9.019  1.5532  0.9445 -0.9477
   50CHL1   C24 6168   4.835   1.198   8.929  0.0009  0.3655  0.1173
   50CHL1  H24A 6169   4.779   1.102   8.937 -0.5323  0.4792 -1.9459
   50CHL1  H24B 6170   4.762   1.278   8.955 -0.8856 -0.5824  0.5610
   50CHL1   C25 6171   4.893   1.196   8.782  0.2353 -0.3748  0.8391
   50CHL1   H25 6172   4.952   1.105   8.759 -1.4176 -1.2015 -0.1499
   50CHL1   C26 6173   4.779   1.211   8.683 -0.1311 -0.1691 -0.2395
   50CHL1  H26A 6174   4.812   1.191   8.578 -0.7464 -1.3271 -0.2163
   50CHL1  H26B 6175   4.714   1.124   8.703  0.6592 -0.5781  0.6073
   50CHL1  H26C 6176   4.716   1.302   8.688  1.1933  0.7296  0.3199
   50CHL1   C27 6177   5.000   1.306   8.771  0.0271 -0.3374 -0.1531
   50CHL1  H27A 6178   5.042   1.308   8.668  1.2890 -0.4264  0.3522
   50CHL1  H27B 6179   4.968   1.408   8.798  0.4195 -0.5278  1.0749
   50CHL1  H27C 6180   5.088   1.288   8.836  1.0310 -1.4220 -1.7487
   51CHL1    C3 6181   5.756   3.292  10.237  0.1470 -0.6738  0.7490
   51CHL1    H3 6182   5.709   3.194  10.263 -1.1739  0.4528  2.7164
   51CHL1    O3 6183   5.787   3.361  10.354 -0.0287 -0.2659  0.0416
   51CHL1   H3' 6184   5.757   3.452  10.348 -0.0364 -0.1659  1.4677
   51CHL1    C4 6185   5.884   3.301  10.143  0.0714  1.1022  0.0201
   51CHL1   H4A 6186   5.943   3.394  10.157  3.5559 -0.8288 -1.1006
   51CHL1   H4B 6187   5.950   3.217  10.174  1.3815  1.2814 -2.1686
   51CHL1    C5 6188   5.861   3.288   9.997  0.4291  0.0795 -0.0049
   51CHL1    C6 6189   5.934   3.206   9.921 -0.0811  0.2150  0.4105
   51CHL1    H6 6190   6.016   3.152   9.971 -0.1593  0.5055  0.8521
   51CHL1    C7 6191   5.932   3.196   9.767 -0.6060  0.0376 -0.0437
   51CHL1   H7A 6192   6.039   3.194   9.738 -1.0772  0.3421 -1.8872
   51CHL1   H7B 6193   5.892   3.103   9.721  0.0704 -0.8004  1.0528
   51CHL1    C8 6194   5.852   3.319   9.710  0.2736 -0.2191  0.3761
   51CHL1    H8 6195   5.915   3.410   9.724 -1.7732  1.2141  0.3971
   51CHL1   C14 6196   5.823   3.290   9.563 -0.1430 -0.1890 -0.1360
   51CHL1   H14 6197   5.762   3.199   9.582  0.0018 -0.1404  0.5647
   51CHL1   C15 6198   5.937   3.242   9.472  0.2745 -0.4337  0.4023
   51CHL1  H15A 6199   6.024   3.311   9.482 -0.9767  0.8623  2.7887
   51CHL1  H15B 6200   5.966   3.136   9.490  0.0071 -0.8402 -1.4570
   51CHL1   C16 6201   5.871   3.266   9.331  0.6383  0.5759 -0.7464
   51CHL1  H16A 6202   5.944   3.332   9.280  0.4484  1.0892 -0.3601
   51CHL1  H16B 6203   5.859   3.167   9.281 -0.1538 -0.0947  0.7208
   51CHL1   C17 6204   5.740   3.353   9.350  0.3007 -0.2032 -0.0733
   51CHL1   H17 6205   5.661   3.275   9.359 -1.1799  1.3588  0.7483
   51CHL1   C13 6206   5.742   3.404   9.493  0.0969 -0.3855 -0.6020
   51CHL1   C18 6207   5.824   3.534   9.509  0.2520  0.4986  0.0334
   51CHL1  H18A 6208   5.828   3.574   9.612 -2.6637 -1.7031  1.0572
   51CHL1  H18B 6209   5.927   3.511   9.474  1.4466  2.4661  2.1681
   51CHL1  H18C 6210   5.769   3.609   9.448 -0.3549 -1.1206 -1.4572
   51CHL1   C12 6211   5.606   3.402   9.564  0.8502  0.1265 -0.8182
   51CHL1  H12A 6212   5.533   3.471   9.519 -0.5182 -0.4022  0.5449
   51CHL1  H12B 6213   5.564   3.300   9.552  0.4474  0.0885  0.7971
   51CHL1   C11 6214   5.617   3.437   9.707  0.5757  0.0713 -0.8106
   51CHL1  H11A 6215   5.647   3.544   9.715  2.9947 -0.6416  0.4245
   51CHL1  H11B 6216   5.522   3.427   9.763  1.3141 -0.1703  0.4462
   51CHL1    C9 6217   5.719   3.344   9.791 -0.3879 -0.0023 -0.5243
   51CHL1    H9 6218   5.666   3.247   9.788 -4.1440  1.7821  3.1774
   51CHL1   C10 6219   5.746   3.370   9.942  0.2009 -0.5503  0.8263
   51CHL1   C19 6220   5.782   3.525   9.965 -0.0464 -0.1713 -0.1367
   51CHL1  H19A 6221   5.861   3.556   9.893 -0.3389  3.5264  1.0506
   51CHL1  H19B 6222   5.687   3.582   9.950 -1.9592 -3.2565 -0.1772
   51CHL1  H19C 6223   5.818   3.555  10.065 -0.8580 -0.8385  0.3590
   51CHL1    C1 6224   5.619   3.325  10.026  1.0548 -0.3845 -0.3235
   51CHL1   H1A 6225   5.532   3.370   9.973  0.0117 -0.4065  1.3544
   51CHL1   H1B 6226   5.607   3.215  10.029  1.5744 -0.4026  1.4977
   51CHL1    C2 6227   5.640   3.365  10.172 -0.1159  0.0927  0.0027
   51CHL1   H2A 6228   5.545   3.352  10.227 -0.6846 -0.8931 -1.1974
   51CHL1   H2B 6229   5.645   3.476  10.179  0.9213  0.5065 -5.2833
   51CHL1   C20 6230   5.715   3.450   9.228 -0.4541  0.1270 -0.4005
   51CHL1   H20 6231   5.799   3.523   9.232 -0.3780 -0.0845  2.4079
   51CHL1   C21 6232   5.582   3.523   9.243 -0.2710  0.3379  0.5308
   51CHL1  H21A 6233   5.497   3.452   9.239 -1.0609  1.3502 -1.5878
   51CHL1  H21B 6234   5.579   3.590   9.155  0.8886  3.3470  2.6951
   51CHL1  H21C 6235   5.577   3.599   9.324 -0.8685  1.1420 -0.2414
   51CHL1   C22 6236   5.725   3.369   9.091 -0.5647  0.0665  0.8158
   51CHL1  H22A 6237   5.696   3.438   9.010  1.8213 -0.0230 -0.1496
   51CHL1  H22B 6238   5.832   3.350   9.069 -0.7983  0.5957 -0.8767
   51CHL1   C23 6239   5.645   3.239   9.061  0.4118 -0.2166 -0.3720
   51CHL1  H23A 6240   5.701   3.170   9.128  0.2292 -0.9145 -0.9249
   51CHL1  H23B 6241   5.539   3.255   9.092  0.2128  1.7403 -1.9847
   51CHL1   C24 6242   5.666   3.210   8.917 -0.4325 -0.2670  0.2037
   51CHL1  H24A 6243   5.631   3.298   8.859 -0.3422 -0.3657 -0.0042
   51CHL1  H24B 6244   5.773   3.220   8.887  0.0693  1.9634  2.5902
   51CHL1   C25 6245   5.605   3.076   8.876 -0.5796  0.7098  0.6042
   51CHL1   H25 6246   5.497   3.094   8.891 -1.4286 -0.4484 -3.4409
   51CHL1   C26 6247   5.621   3.047   8.729 -0.9124  0.7172  0.5028
   51CHL1  H26A 6248   5.579   2.948   8.702 -0.6447  0.2457  1.7686
   51CHL1  H26B 6249   5.577   3.129   8.669 -0.3009  0.2892 -0.5521
   51CHL1  H26C 6250   5.727   3.033   8.698 -1.2079 -0.0287 -0.1853
   51CHL1   C27 6251   5.648   2.958   8.959 -0.1046  0.6238  0.4836
   51CHL1  H27A 6252   5.635   2.974   9.069 -0.2835 -1.1647  0.7382
   51CHL1  H27B 6253   5.602   2.862   8.928  3.0840 -0.4842 -1.0257
   51CHL1  H27C 6254   5.758   2.949   8.947 -0.2259 -0.6364  0.2237
   52CHL1    C3 6255   2.795   2.405   9.963 -0.3325  0.4113 -0.6804
   52CHL1    H3 6256   2.857   2.320   9.929 -1.9475 -0.6545 -1.0120
   52CHL1    O3 6257   2.782   2.399  10.106 -0.7031 -0.2873 -0.3567
   52CHL1   H3' 6258   2.707   2.457  10.120  0.3732  1.5776 -2.0820
   52CHL1    C4 6259   2.857   2.538   9.922  0.1159  0.2401  0.1507
   52CHL1   H4A 6260   2.811   2.624   9.975  0.4424  1.0231 -0.8214
   52CHL1   H4B 6261   2.955   2.537   9.974 -0.0744  0.2936  0.5073
   52CHL1    C5 6262   2.862   2.561   9.769  0.1851 -0.3402  0.0362
   52CHL1    C6 6263   2.978   2.571   9.702  0.1660  0.2107  0.4307
   52CHL1    H6 6264   3.066   2.560   9.767  0.3840  0.4572  0.1774
   52CHL1    C7 6265   3.002   2.593   9.557  0.3292 -0.0800 -0.2665
   52CHL1   H7A 6266   3.084   2.665   9.536  0.3748 -0.2831 -0.7904
   52CHL1   H7B 6267   3.024   2.500   9.501 -0.0072 -0.2621 -0.0956
   52CHL1    C8 6268   2.871   2.647   9.495 -0.3644  0.2529  0.7021
   52CHL1    H8 6269   2.844   2.752   9.519 -0.8883  0.6019 -1.3069
   52CHL1   C14 6270   2.881   2.634   9.348 -0.0377  0.3061  0.7727
   52CHL1   H14 6271   2.896   2.525   9.329  1.6201  0.9502 -1.8123
   52CHL1   C15 6272   2.993   2.705   9.276 -0.2243 -0.2660 -0.5964
   52CHL1  H15A 6273   2.993   2.810   9.311 -2.6417 -0.0184 -1.2674
   52CHL1  H15B 6274   3.097   2.666   9.280 -0.4786 -0.8782  0.2354
   52CHL1   C16 6275   2.956   2.718   9.124 -0.0102  0.7441 -0.2607
   52CHL1  H16A 6276   2.960   2.825   9.094 -0.2457  0.6300 -0.6981
   52CHL1  H16B 6277   3.021   2.658   9.057 -1.3947  2.3035 -3.0746
   52CHL1   C17 6278   2.808   2.676   9.128 -0.1067 -0.1164  0.9515
   52CHL1   H17 6279   2.813   2.572   9.089 -0.9365  0.6172 -1.2019
   52CHL1   C13 6280   2.760   2.676   9.276 -0.4231 -0.8933  0.2446
   52CHL1   C18 6281   2.715   2.817   9.318  0.2738 -0.1813  1.1455
   52CHL1  H18A 6282   2.777   2.907   9.297 -1.0061 -0.1824 -3.1472
   52CHL1  H18B 6283   2.626   2.829   9.253 -0.0089 -1.0748  1.3542
   52CHL1  H18C 6284   2.669   2.822   9.419  0.2564  0.7589  1.0943
   52CHL1   C12 6285   2.650   2.577   9.306 -0.4220 -0.6244 -0.2183
   52CHL1  H12A 6286   2.563   2.591   9.238 -1.1844  2.0589  1.2437
   52CHL1  H12B 6287   2.685   2.476   9.276 -0.2218 -1.3839  2.4350
   52CHL1   C11 6288   2.622   2.563   9.458  0.4034  0.5722  0.3478
   52CHL1  H11A 6289   2.567   2.655   9.488 -1.3773 -0.3923  0.1626
   52CHL1  H11B 6290   2.546   2.484   9.475 -0.8729  1.5941 -0.4994
   52CHL1    C9 6291   2.753   2.544   9.537  0.4791  0.9707 -0.4310
   52CHL1    H9 6292   2.792   2.446   9.503 -0.7242  1.0915 -2.1997
   52CHL1   C10 6293   2.725   2.555   9.693  0.0167 -0.1959 -0.0570
   52CHL1   C19 6294   2.631   2.676   9.734 -0.0889  0.3316  0.9689
   52CHL1  H19A 6295   2.525   2.658   9.704  0.6663 -0.5998 -1.1785
   52CHL1  H19B 6296   2.632   2.701   9.842  0.1476 -0.7086  1.2059
   52CHL1  H19C 6297   2.661   2.769   9.681  2.3316 -2.7859 -3.4543
   52CHL1    C1 6298   2.667   2.418   9.743  0.2630  0.5010  0.8438
   52CHL1   H1A 6299   2.570   2.398   9.693  1.1393 -4.0632  0.7368
   52CHL1   H1B 6300   2.736   2.334   9.719  2.1891  1.2108  3.6995
   52CHL1    C2 6301   2.656   2.408   9.895  0.6411 -0.4316  0.0361
   52CHL1   H2A 6302   2.601   2.315   9.920 -1.6526  0.8502 -0.0821
   52CHL1   H2B 6303   2.592   2.489   9.935  0.4315 -0.7487  0.3400
   52CHL1   C20 6304   2.726   2.755   9.023 -0.1254  0.0102 -0.2824
   52CHL1   H20 6305   2.722   2.863   9.051  0.1075  0.1232 -0.6667
   52CHL1   C21 6306   2.576   2.717   9.006 -0.3307 -0.0270 -0.0003
   52CHL1  H21A 6307   2.529   2.771   8.921 -1.5117 -0.2431  0.5010
   52CHL1  H21B 6308   2.514   2.750   9.093 -1.0479 -0.2860 -0.4145
   52CHL1  H21C 6309   2.563   2.607   9.001 -2.2943  0.2497 -1.1232
   52CHL1   C22 6310   2.790   2.761   8.875 -0.1851  0.4300 -0.2776
   52CHL1  H22A 6311   2.734   2.826   8.804  2.2924 -0.1257 -2.8175
   52CHL1  H22B 6312   2.892   2.800   8.895  0.4631 -1.3925  0.0626
   52CHL1   C23 6313   2.791   2.624   8.802 -0.0435 -0.2924 -0.7076
   52CHL1  H23A 6314   2.853   2.545   8.850  1.0556  0.7229 -0.4331
   52CHL1  H23B 6315   2.683   2.596   8.798  0.1179 -0.8635 -1.2286
   52CHL1   C24 6316   2.843   2.628   8.656 -0.4524 -0.3235 -0.2747
   52CHL1  H24A 6317   2.843   2.527   8.608 -0.7781 -0.1691 -0.5934
   52CHL1  H24B 6318   2.773   2.694   8.602  0.4013  1.8353  1.1754
   52CHL1   C25 6319   2.994   2.677   8.661  0.3605 -0.7131  0.5417
   52CHL1   H25 6320   3.001   2.777   8.708 -2.0690 -0.0950 -0.3362
   52CHL1   C26 6321   3.087   2.578   8.737 -0.2463  0.3957 -0.0803
   52CHL1  H26A 6322   3.076   2.473   8.701  0.4336  0.9310 -1.8686
   52CHL1  H26B 6323   3.194   2.601   8.726 -0.2751 -0.4062 -2.2228
   52CHL1  H26C 6324   3.065   2.567   8.846 -0.1262 -0.5453 -0.1409
   52CHL1   C27 6325   3.050   2.689   8.519  0.0292 -0.1696  0.7482
   52CHL1  H27A 6326   2.984   2.745   8.449  0.2041 -0.4842  0.3275
   52CHL1  H27B 6327   3.151   2.735   8.515  0.6283 -1.1765  3.5567
   52CHL1  H27C 6328   3.066   2.590   8.472 -1.4830  0.4488 -1.1432
   53CHL1    C3 6329   3.531   1.636  10.116  0.4000 -0.0992 -0.2428
   53CHL1    H3 6330   3.477   1.539  10.110  0.6957 -0.1943 -1.4942
   53CHL1    O3 6331   3.580   1.667  10.243  0.7791  0.0954  0.0361
   53CHL1   H3' 6332   3.666   1.625  10.247 -0.1901 -2.0562 -0.7398
   53CHL1    C4 6333   3.649   1.644  10.023 -0.0597 -0.1250  0.4006
   53CHL1   H4A 6334   3.700   1.741  10.038 -0.8571  0.2112  0.9698
   53CHL1   H4B 6335   3.719   1.563  10.054 -0.0562  0.7749  2.8553
   53CHL1    C5 6336   3.621   1.624   9.880 -0.2130  0.2185  0.7001
   53CHL1    C6 6337   3.679   1.532   9.802 -0.2128  0.6361 -0.1870
   53CHL1    H6 6338   3.753   1.464   9.847  1.7047  1.0744 -2.5475
   53CHL1    C7 6339   3.663   1.523   9.645 -0.1451  0.6077  0.6728
   53CHL1   H7A 6340   3.763   1.534   9.599 -0.9199 -1.9467 -1.7527
   53CHL1   H7B 6341   3.617   1.427   9.613 -1.0244  1.7480 -1.5761
   53CHL1    C8 6342   3.569   1.629   9.588  0.2362  0.5018 -0.6797
   53CHL1    H8 6343   3.637   1.716   9.576  1.9770 -0.8725 -1.0514
   53CHL1   C14 6344   3.506   1.579   9.459  0.2530  0.0772 -0.3104
   53CHL1   H14 6345   3.433   1.501   9.485  0.3080  0.1456  0.0535
   53CHL1   C15 6346   3.599   1.519   9.357  0.6874  0.0435 -0.0271
   53CHL1  H15A 6347   3.686   1.587   9.342  1.2794 -0.3076  1.6840
   53CHL1  H15B 6348   3.634   1.418   9.389 -0.1296  0.7217  3.2096
   53CHL1   C16 6349   3.509   1.509   9.235 -0.1985 -0.0043  0.8425
   53CHL1  H16A 6350   3.583   1.533   9.156  0.6381 -1.7250  1.0700
   53CHL1  H16B 6351   3.473   1.409   9.201  2.1605 -0.2437 -1.1507
   53CHL1   C17 6352   3.384   1.593   9.265  0.1435 -0.0950  0.3895
   53CHL1   H17 6353   3.299   1.527   9.293  0.3265 -0.2586  0.5571
   53CHL1   C13 6354   3.421   1.681   9.386 -0.1695 -0.5421  0.3297
   53CHL1   C18 6355   3.514   1.801   9.349  0.5370 -0.1897  0.1847
   53CHL1  H18A 6356   3.441   1.864   9.294 -1.2599 -1.3157  1.2153
   53CHL1  H18B 6357   3.542   1.851   9.444  0.7724 -2.5376  1.3903
   53CHL1  H18C 6358   3.598   1.783   9.279  0.7737  0.3353  0.3279
   53CHL1   C12 6359   3.299   1.715   9.478 -0.4753  0.5421  0.2148
   53CHL1  H12A 6360   3.231   1.785   9.424  0.9026  1.5765 -0.2218
   53CHL1  H12B 6361   3.250   1.617   9.495  0.2815  0.3883  1.5566
   53CHL1   C11 6362   3.353   1.766   9.613 -0.2407 -0.0382  0.2322
   53CHL1  H11A 6363   3.388   1.871   9.603  3.4201 -1.1880  0.1518
   53CHL1  H11B 6364   3.262   1.766   9.677 -1.2446 -1.0946 -1.1504
   53CHL1    C9 6365   3.451   1.671   9.687 -0.5765 -0.0287 -0.4232
   53CHL1    H9 6366   3.394   1.580   9.714  1.0745 -0.8358  0.4539
   53CHL1   C10 6367   3.505   1.714   9.825  1.3362 -0.6356 -0.3937
   53CHL1   C19 6368   3.558   1.863   9.821 -0.0502  1.3052  0.5534
   53CHL1  H19A 6369   3.609   1.886   9.724  1.3614  1.1421  1.2353
   53CHL1  H19B 6370   3.468   1.927   9.816 -1.2470 -0.4922 -1.8326
   53CHL1  H19C 6371   3.623   1.882   9.909  0.2780 -0.3614  0.6770
   53CHL1    C1 6372   3.390   1.713   9.925 -0.4283 -0.1046  0.7325
   53CHL1   H1A 6373   3.319   1.798   9.915  0.0499  0.1911 -0.1206
   53CHL1   H1B 6374   3.325   1.623   9.925 -0.7538  0.0891 -2.2484
   53CHL1    C2 6375   3.429   1.740  10.075 -0.8059 -0.1618  0.1804
   53CHL1   H2A 6376   3.336   1.750  10.135 -2.3179 -1.2569 -1.9372
   53CHL1   H2B 6377   3.479   1.838  10.090  0.5800 -0.6364 -1.2959
   53CHL1   C20 6378   3.337   1.665   9.141 -0.2688 -0.4462  0.9102
   53CHL1   H20 6379   3.408   1.745   9.112 -1.2714 -0.4735 -1.7059
   53CHL1   C21 6380   3.204   1.729   9.165 -0.1322 -0.2926 -0.2522
   53CHL1  H21A 6381   3.134   1.657   9.214 -1.1647 -0.7768 -2.3919
   53CHL1  H21B 6382   3.169   1.762   9.065 -0.2912 -0.2931 -0.1973
   53CHL1  H21C 6383   3.208   1.823   9.224  0.4560  0.2421 -1.1384
   53CHL1   C22 6384   3.322   1.565   9.011 -0.2803 -0.4593 -0.4896
   53CHL1  H22A 6385   3.419   1.514   8.996 -0.7437 -2.4850  2.8609
   53CHL1  H22B 6386   3.241   1.491   9.031 -1.1012  0.6774  0.5142
   53CHL1   C23 6387   3.305   1.646   8.884  0.5996 -0.8113  0.2097
   53CHL1  H23A 6388   3.208   1.700   8.885  1.7108  1.2754 -0.3330
   53CHL1  H23B 6389   3.385   1.724   8.880  1.8832 -1.9186  2.6674
   53CHL1   C24 6390   3.319   1.547   8.765  0.2931 -0.3346 -0.3223
   53CHL1  H24A 6391   3.415   1.494   8.783  1.3049  1.4319 -0.4190
   53CHL1  H24B 6392   3.238   1.472   8.783 -0.0117  0.2165  0.6491
   53CHL1   C25 6393   3.294   1.611   8.627 -0.3098  1.1300  0.0203
   53CHL1   H25 6394   3.360   1.700   8.618  0.0623  0.7296 -1.3875
   53CHL1   C26 6395   3.336   1.506   8.526 -0.9078  0.2101  0.0853
   53CHL1  H26A 6396   3.429   1.455   8.558 -0.7542  0.0404 -0.6206
   53CHL1  H26B 6397   3.259   1.428   8.508 -1.0111 -0.1555  2.0394
   53CHL1  H26C 6398   3.357   1.555   8.428 -0.0366 -0.2826  0.0222
   53CHL1   C27 6399   3.146   1.659   8.597 -0.3874  0.5498 -0.2951
   53CHL1  H27A 6400   3.076   1.575   8.616 -0.0573  0.3798  0.1982
   53CHL1  H27B 6401   3.113   1.747   8.657 -1.1901  0.3526 -0.4453
   53CHL1  H27C 6402   3.141   1.692   8.491 -3.1575  0.4461 -0.2260
   54CHL1    C3 6403   3.501   3.156  10.060 -0.7462 -0.5636  0.5213
   54CHL1    H3 6404   3.583   3.080  10.057  0.2739  0.5622 -1.4930
   54CHL1    O3 6405   3.450   3.158  10.190  0.0588 -0.6405 -0.3444
   54CHL1   H3' 6406   3.364   3.201  10.186  0.2522  0.1866  2.9304
   54CHL1    C4 6407   3.538   3.294  10.013  0.5942 -0.2897 -0.1394
   54CHL1   H4A 6408   3.449   3.362  10.017  0.4979 -0.4526  0.4590
   54CHL1   H4B 6409   3.604   3.344  10.087 -0.1285  3.3854 -1.8356
   54CHL1    C5 6410   3.588   3.297   9.869  0.0453  0.3088 -0.2047
   54CHL1    C6 6411   3.701   3.363   9.842  0.1243  0.1174  0.8225
   54CHL1    H6 6412   3.760   3.413   9.921  1.4818 -2.3772  1.4435
   54CHL1    C7 6413   3.767   3.372   9.710 -0.0654  0.8641  0.3701
   54CHL1   H7A 6414   3.796   3.476   9.682 -1.3074  1.2931  0.6523
   54CHL1   H7B 6415   3.856   3.306   9.709  0.4041  1.4819  0.8424
   54CHL1    C8 6416   3.671   3.321   9.597 -0.1538 -0.2695 -0.0730
   54CHL1    H8 6417   3.598   3.401   9.574  2.6923  2.2115 -0.8685
   54CHL1   C14 6418   3.754   3.299   9.472 -0.1391  0.0951  0.8155
   54CHL1   H14 6419   3.827   3.217   9.486 -1.4404 -1.2490 -0.1342
   54CHL1   C15 6420   3.843   3.415   9.421 -0.1369  0.1485  0.0920
   54CHL1  H15A 6421   3.775   3.500   9.442 -0.2375 -0.1016  0.8031
   54CHL1  H15B 6422   3.931   3.438   9.485  0.3066  0.8509 -0.7587
   54CHL1   C16 6423   3.861   3.375   9.275  0.0117 -0.2325  0.6271
   54CHL1  H16A 6424   3.839   3.460   9.206 -1.1151 -0.8388  0.2301
   54CHL1  H16B 6425   3.969   3.352   9.263 -0.1935 -1.4847  1.1893
   54CHL1   C17 6426   3.773   3.249   9.239  0.1643 -0.1339  0.3206
   54CHL1   H17 6427   3.829   3.158   9.266  0.3419 -0.2183 -0.3271
   54CHL1   C13 6428   3.664   3.248   9.352 -0.0499  0.2260 -1.1160
   54CHL1   C18 6429   3.556   3.346   9.314  0.2747  0.2677  0.1629
   54CHL1  H18A 6430   3.601   3.439   9.274 -0.1454  0.3565 -0.1034
   54CHL1  H18B 6431   3.504   3.304   9.226  1.1142  2.1162 -1.2619
   54CHL1  H18C 6432   3.480   3.367   9.392 -2.5036 -1.2529 -2.0267
   54CHL1   C12 6433   3.601   3.116   9.389  0.2936 -0.5711  0.1985
   54CHL1  H12A 6434   3.535   3.077   9.308 -0.7865  1.8795 -0.1585
   54CHL1  H12B 6435   3.684   3.048   9.416  0.8178 -0.6466 -1.5324
   54CHL1   C11 6436   3.520   3.137   9.518 -0.2409 -0.8561 -0.0980
   54CHL1  H11A 6437   3.430   3.198   9.496 -0.8203 -0.9273  1.9532
   54CHL1  H11B 6438   3.485   3.035   9.546  2.9884 -1.9128  0.3232
   54CHL1    C9 6439   3.597   3.199   9.640 -0.8096  0.4076 -0.1499
   54CHL1    H9 6440   3.684   3.133   9.662 -0.9411 -0.5222 -2.3332
   54CHL1   C10 6441   3.507   3.227   9.762  0.6781  0.2086  0.1020
   54CHL1   C19 6442   3.384   3.319   9.724  0.1072 -0.0955  0.0825
   54CHL1  H19A 6443   3.306   3.259   9.672  0.8923 -0.1527 -1.0463
   54CHL1  H19B 6444   3.340   3.375   9.809  1.2211 -0.0964  0.6661
   54CHL1  H19C 6445   3.421   3.398   9.656 -1.9606 -0.4789 -1.5463
   54CHL1    C1 6446   3.443   3.094   9.822  0.5826  0.8222  0.7234
   54CHL1   H1A 6447   3.363   3.067   9.750  1.4249  0.8449 -0.2362
   54CHL1   H1B 6448   3.517   3.013   9.837 -2.3094 -1.6268  2.3344
   54CHL1    C2 6449   3.391   3.104   9.968  0.4397 -0.5621  0.8095
   54CHL1   H2A 6450   3.352   3.003   9.993  1.0250 -1.1735 -0.7414
   54CHL1   H2B 6451   3.300   3.168   9.969 -0.5048 -1.8485 -0.7452
   54CHL1   C20 6452   3.729   3.237   9.091 -0.0336  0.4056  0.6716
   54CHL1   H20 6453   3.663   3.326   9.081  1.0687  1.0863 -0.8394
   54CHL1   C21 6454   3.652   3.113   9.051  0.1034 -0.7161 -0.4336
   54CHL1  H21A 6455   3.557   3.108   9.109  0.6402  0.0759  0.5330
   54CHL1  H21B 6456   3.709   3.022   9.077  1.6888  0.0355 -1.2053
   54CHL1  H21C 6457   3.617   3.115   8.945  0.8488 -0.8658 -0.6822
   54CHL1   C22 6458   3.852   3.245   8.992  0.5799 -0.1872  0.4457
   54CHL1  H22A 6459   3.927   3.318   9.029 -0.3820  0.3205  1.4037
   54CHL1  H22B 6460   3.899   3.146   8.978  0.1448 -0.1464 -1.5547
   54CHL1   C23 6461   3.817   3.284   8.845 -0.1628 -0.2646  0.7572
   54CHL1  H23A 6462   3.742   3.211   8.807 -0.6590 -0.0027  1.2256
   54CHL1  H23B 6463   3.768   3.383   8.855  0.7869  0.2147  0.6848
   54CHL1   C24 6464   3.947   3.291   8.759 -0.2428  0.3324  0.2971
   54CHL1  H24A 6465   4.019   3.363   8.803  1.4881 -1.9217  1.2840
   54CHL1  H24B 6466   3.984   3.187   8.769 -0.5609 -0.0669 -2.2559
   54CHL1   C25 6467   3.928   3.291   8.605 -0.0547  0.0485  0.5624
   54CHL1   H25 6468   3.860   3.208   8.574  2.3671 -1.2760 -1.4731
   54CHL1   C26 6469   3.873   3.427   8.550  0.6164  0.0734 -0.2855
   54CHL1  H26A 6470   3.864   3.432   8.440  1.0439 -0.1061 -0.3249
   54CHL1  H26B 6471   3.779   3.449   8.606  0.5854  1.9865 -1.0744
   54CHL1  H26C 6472   3.950   3.501   8.582 -0.1649  0.2918  1.1790
   54CHL1   C27 6473   4.068   3.265   8.544  0.2785  0.2458 -0.2959
   54CHL1  H27A 6474   4.059   3.270   8.433 -2.0887 -0.9062 -0.1803
   54CHL1  H27B 6475   4.133   3.349   8.578 -0.8300  0.7371  0.6520
   54CHL1  H27C 6476   4.109   3.169   8.580 -0.3317  0.0025 -0.2634
   55CHL1    C3 6477   4.516   0.796  10.142 -0.2545  0.3186 -0.3483
   55CHL1    H3 6478   4.623   0.818  10.123 -0.0273 -1.1484 -0.7602
   55CHL1    O3 6479   4.511   0.779  10.282 -0.1743 -0.7750 -0.0621
   55CHL1   H3' 6480   4.549   0.858  10.322 -2.1464 -0.3378  1.0223
   55CHL1    C4 6481   4.429   0.912  10.095  0.1135  0.6692  1.2384
   55CHL1   H4A 6482   4.325   0.880  10.119 -1.0369  2.2342 -1.4111
   55CHL1   H4B 6483   4.455   1.003  10.154  1.0031  0.1649  1.6222
   55CHL1    C5 6484   4.441   0.931   9.944 -0.1195 -1.0998  0.3275
   55CHL1    C6 6485   4.483   1.056   9.905  0.1907 -0.2048  0.3020
   55CHL1    H6 6486   4.505   1.135   9.978 -0.9389  1.0271 -0.6630
   55CHL1    C7 6487   4.490   1.089   9.758  1.0653 -0.1763  1.0771
   55CHL1   H7A 6488   4.443   1.188   9.739  0.2575 -0.6825  0.3555
   55CHL1   H7B 6489   4.599   1.089   9.735  0.3490  2.7738 -2.8151
   55CHL1    C8 6490   4.416   0.983   9.673 -0.5683  0.5228  0.8468
   55CHL1    H8 6491   4.307   0.996   9.685 -0.8667 -0.5148 -0.5458
   55CHL1   C14 6492   4.454   0.995   9.524 -0.0746  0.2178 -0.0258
   55CHL1   H14 6493   4.562   0.972   9.532 -0.2580 -0.7529 -0.3584
   55CHL1   C15 6494   4.452   1.137   9.455 -0.4634 -0.3015 -0.2726
   55CHL1  H15A 6495   4.353   1.182   9.478 -0.5274 -1.2608  1.4212
   55CHL1  H15B 6496   4.534   1.198   9.498 -0.7651 -0.1643  0.1129
   55CHL1   C16 6497   4.460   1.093   9.305  0.4668  0.6365 -1.0089
   55CHL1  H16A 6498   4.362   1.118   9.258 -0.8818 -0.4855  1.1367
   55CHL1  H16B 6499   4.553   1.134   9.260  1.5765  0.2513  0.8493
   55CHL1   C17 6500   4.461   0.939   9.292 -0.6240 -0.2077 -0.7871
   55CHL1   H17 6501   4.570   0.916   9.289 -0.5823  0.0140 -1.0281
   55CHL1   C13 6502   4.396   0.892   9.424  0.5269 -0.5561 -0.0660
   55CHL1   C18 6503   4.246   0.916   9.425  0.6369 -1.1013  0.0897
   55CHL1  H18A 6504   4.185   0.846   9.365  0.5896  0.0215 -1.1846
   55CHL1  H18B 6505   4.210   0.908   9.530 -1.2360 -0.9071 -0.5214
   55CHL1  H18C 6506   4.226   1.021   9.393  0.6918 -0.5451  1.7797
   55CHL1   C12 6507   4.430   0.755   9.473  0.1147 -0.3148 -0.6434
   55CHL1  H12A 6508   4.381   0.674   9.415  1.2438 -2.1054  0.8438
   55CHL1  H12B 6509   4.538   0.732   9.467  0.1619  0.1156 -1.6169
   55CHL1   C11 6510   4.389   0.729   9.624  0.5058  0.3117 -0.6540
   55CHL1  H11A 6511   4.279   0.718   9.612  0.7555 -1.4513 -1.3993
   55CHL1  H11B 6512   4.426   0.628   9.653  0.9154  0.2492 -1.3931
   55CHL1    C9 6513   4.450   0.838   9.721  0.5547 -0.0701  0.1159
   55CHL1    H9 6514   4.561   0.825   9.716  0.3165 -2.0665 -0.4940
   55CHL1   C10 6515   4.412   0.809   9.866 -0.1066  0.5357  1.3978
   55CHL1   C19 6516   4.258   0.787   9.859  0.2964  0.0434  0.0595
   55CHL1  H19A 6517   4.255   0.688   9.808  3.2071  1.1081 -2.3281
   55CHL1  H19B 6518   4.210   0.777   9.959  0.4638  0.0563  0.1406
   55CHL1  H19C 6519   4.213   0.869   9.800 -1.7000 -1.1045 -0.0455
   55CHL1    C1 6520   4.497   0.685   9.921  0.2513  0.3292 -0.2183
   55CHL1   H1A 6521   4.458   0.594   9.869  1.6886  1.1899 -2.9207
   55CHL1   H1B 6522   4.605   0.699   9.899  0.4481 -2.7216 -1.4678
   55CHL1    C2 6523   4.482   0.664  10.066  0.2434  0.6114  0.4600
   55CHL1   H2A 6524   4.547   0.578  10.093  1.0826  0.6289 -1.4296
   55CHL1   H2B 6525   4.377   0.642  10.095  0.4039  0.2375  0.7659
   55CHL1   C20 6526   4.399   0.887   9.162 -0.2340  0.1938 -0.8966
   55CHL1   H20 6527   4.293   0.919   9.152 -0.7260 -0.8947  0.6871
   55CHL1   C21 6528   4.401   0.734   9.159  0.0776  0.0500 -0.6084
   55CHL1  H21A 6529   4.497   0.697   9.202  1.1671  2.4037 -0.9355
   55CHL1  H21B 6530   4.386   0.702   9.054  1.6981  0.6868 -1.0589
   55CHL1  H21C 6531   4.310   0.701   9.214 -0.7533  0.9756 -1.4206
   55CHL1   C22 6532   4.469   0.947   9.037 -0.3895 -0.0439 -0.1917
   55CHL1  H22A 6533   4.503   1.052   9.043  0.2607 -0.4130  3.5615
   55CHL1  H22B 6534   4.568   0.902   9.015  0.5413  1.9232 -0.0854
   55CHL1   C23 6535   4.372   0.937   8.922  0.1054 -0.0759 -0.6581
   55CHL1  H23A 6536   4.355   0.831   8.896  0.0240 -0.6765  1.6773
   55CHL1  H23B 6537   4.270   0.969   8.952  0.3539  0.0824  0.0278
   55CHL1   C24 6538   4.419   1.008   8.797 -0.3738  0.4853 -0.5657
   55CHL1  H24A 6539   4.435   1.117   8.807 -1.0402  0.4744  0.7869
   55CHL1  H24B 6540   4.518   0.963   8.774 -0.3120  0.1638  0.3038
   55CHL1   C25 6541   4.335   0.991   8.668 -0.0529 -0.0669  0.4146
   55CHL1   H25 6542   4.329   0.882   8.643 -0.1008 -0.0848  0.5030
   55CHL1   C26 6543   4.192   1.038   8.676 -0.3706 -0.0117  0.1545
   55CHL1  H26A 6544   4.182   1.148   8.683 -0.5165  0.0151 -0.4511
   55CHL1  H26B 6545   4.126   1.008   8.592 -0.2450  0.4793 -0.1141
   55CHL1  H26C 6546   4.143   0.994   8.766  0.6395 -0.7212  0.3655
   55CHL1   C27 6547   4.402   1.063   8.546  0.9176  0.5318 -0.2895
   55CHL1  H27A 6548   4.499   1.010   8.533  1.0002 -0.0070  2.2566
   55CHL1  H27B 6549   4.343   1.050   8.453 -0.3046 -1.2040  0.7108
   55CHL1  H27C 6550   4.405   1.171   8.572  1.5428  0.5156 -0.2733
   56CHL1    C3 6551   3.062   5.774   9.916  0.6082 -0.1663 -0.1443
   56CHL1    H3 6552   3.168   5.750   9.891  1.1081  0.9706  0.8516
   56CHL1    O3 6553   3.054   5.809  10.052  0.1696 -0.0483  0.5180
   56CHL1   H3' 6554   3.078   5.726  10.094  1.9170  0.4364  0.5150
   56CHL1    C4 6555   3.010   5.892   9.826 -0.1717  0.5484 -0.6877
   56CHL1   H4A 6556   2.905   5.916   9.852  0.4957  0.1650  2.5975
   56CHL1   H4B 6557   3.076   5.980   9.842 -0.1314  0.3651  0.1647
   56CHL1    C5 6558   3.015   5.859   9.676  0.6538 -0.1781 -0.0180
   56CHL1    C6 6559   3.092   5.937   9.590 -0.4711  0.0650 -0.2861
   56CHL1    H6 6560   3.145   6.020   9.639  1.2582 -0.7075 -0.8158
   56CHL1    C7 6561   3.101   5.925   9.441 -0.6267 -0.7760  0.2254
   56CHL1   H7A 6562   3.090   6.022   9.387 -1.6894 -1.3641 -0.6378
   56CHL1   H7B 6563   3.197   5.880   9.409 -1.6655 -2.2013 -0.9566
   56CHL1    C8 6564   2.982   5.834   9.394  0.9154 -0.7435  1.0631
   56CHL1    H8 6565   2.886   5.887   9.411  1.6734  1.0986 -0.1917
   56CHL1   C14 6566   3.005   5.788   9.250  0.6357 -0.5905  0.3981
   56CHL1   H14 6567   3.107   5.745   9.247  0.6519 -0.4772 -1.8933
   56CHL1   C15 6568   2.993   5.904   9.150  0.4598  0.0580  0.1117
   56CHL1  H15A 6569   2.898   5.961   9.151  0.3512 -0.1193 -0.1478
   56CHL1  H15B 6570   3.079   5.975   9.154  0.1459  0.3578  1.9020
   56CHL1   C16 6571   2.999   5.831   9.018 -0.5856  0.9002  0.3657
   56CHL1  H16A 6572   2.944   5.880   8.934 -1.9739 -1.1506  0.0397
   56CHL1  H16B 6573   3.101   5.808   8.980 -1.2923 -1.6525 -0.0707
   56CHL1   C17 6574   2.951   5.686   9.045 -0.0914  0.0165  0.3299
   56CHL1   H17 6575   3.041   5.622   9.052 -0.0024 -0.1545 -2.1321
   56CHL1   C13 6576   2.905   5.685   9.194 -0.5762 -0.4465 -0.2281
   56CHL1   C18 6577   2.752   5.724   9.198  0.3509  0.2840  0.1222
   56CHL1  H18A 6578   2.737   5.783   9.291  0.1225  1.3410 -0.5848
   56CHL1  H18B 6579   2.719   5.786   9.112 -1.0893 -0.4474  0.1176
   56CHL1  H18C 6580   2.683   5.637   9.207 -1.1076  1.2589 -1.3095
   56CHL1   C12 6581   2.930   5.558   9.277 -0.8835 -0.1271  0.5866
   56CHL1  H12A 6582   2.872   5.471   9.241  0.4879 -0.1402 -1.6790
   56CHL1  H12B 6583   3.039   5.534   9.271 -1.6642 -3.7764 -0.2453
   56CHL1   C11 6584   2.896   5.583   9.420 -0.1448 -0.1586  0.2548
   56CHL1  H11A 6585   2.785   5.593   9.427  0.1161  1.6795  1.9800
   56CHL1  H11B 6586   2.916   5.493   9.482 -2.5294 -0.1925  1.0244
   56CHL1    C9 6587   2.974   5.701   9.481 -0.5159 -0.7236 -0.2210
   56CHL1    H9 6588   3.081   5.672   9.479 -0.1822  0.2046  2.3027
   56CHL1   C10 6589   2.942   5.734   9.629 -0.7813  1.2065  0.6578
   56CHL1   C19 6590   2.791   5.765   9.640  0.1253 -0.2866  0.0189
   56CHL1  H19A 6591   2.759   5.790   9.743  1.4258  3.3499 -0.3960
   56CHL1  H19B 6592   2.751   5.840   9.569  0.0719  0.3475  0.7202
   56CHL1  H19C 6593   2.736   5.671   9.618  1.5468 -0.4797 -2.9667
   56CHL1    C1 6594   2.978   5.614   9.730 -0.4272 -0.2920 -0.1726
   56CHL1   H1A 6595   2.907   5.530   9.714 -1.0775 -0.1045  1.5951
   56CHL1   H1B 6596   3.081   5.580   9.710  0.5613  1.8876  0.9706
   56CHL1    C2 6597   2.973   5.652   9.880 -0.4787 -0.0796  0.1778
   56CHL1   H2A 6598   2.996   5.557   9.933  0.9327  0.3807  0.4136
   56CHL1   H2B 6599   2.870   5.687   9.904 -0.4829 -0.2836  0.4646
   56CHL1   C20 6600   2.873   5.618   8.930  0.8079 -0.3371 -0.1227
   56CHL1   H20 6601   2.781   5.679   8.923  0.8321 -0.1063  1.3685
   56CHL1   C21 6602   2.825   5.476   8.983 -0.8530 -0.3739  0.5740
   56CHL1  H21A 6603   2.912   5.414   9.013  1.2004  0.9523 -2.3751
   56CHL1  H21B 6604   2.764   5.415   8.914  0.1824 -0.6558 -0.1031
   56CHL1  H21C 6605   2.756   5.486   9.069 -1.5825 -1.5256  0.1390
   56CHL1   C22 6606   2.955   5.618   8.796  0.1971  0.4836 -0.2166
   56CHL1  H22A 6607   2.979   5.721   8.762  2.9662 -0.0407  0.0255
   56CHL1  H22B 6608   3.056   5.580   8.821 -0.1876  0.5949  1.6503
   56CHL1   C23 6609   2.877   5.541   8.686 -0.1119  0.0154  0.6594
   56CHL1  H23A 6610   2.861   5.438   8.724 -0.1506 -0.4211 -0.5103
   56CHL1  H23B 6611   2.775   5.584   8.683 -0.9518 -1.8713  1.5535
   56CHL1   C24 6612   2.960   5.551   8.553 -0.3723 -0.6215  0.8221
   56CHL1  H24A 6613   2.955   5.656   8.516  0.0619 -1.2841 -1.1676
   56CHL1  H24B 6614   3.069   5.538   8.567 -0.4490 -0.2571  1.7456
   56CHL1   C25 6615   2.909   5.467   8.435 -0.1630  0.1926  0.6488
   56CHL1   H25 6616   2.917   5.364   8.474  0.5405  0.3638  0.9560
   56CHL1   C26 6617   2.759   5.487   8.414  0.0613 -0.7345  0.2777
   56CHL1  H26A 6618   2.729   5.593   8.399  0.8280 -0.3894  1.1244
   56CHL1  H26B 6619   2.729   5.425   8.327 -1.0687 -1.0303  0.8755
   56CHL1  H26C 6620   2.702   5.438   8.495  0.6421 -2.5279 -0.3805
   56CHL1   C27 6621   3.001   5.490   8.308 -0.2434 -0.9016 -0.5849
   56CHL1  H27A 6622   2.986   5.408   8.236 -2.4017 -0.6700 -0.4183
   56CHL1  H27B 6623   2.975   5.591   8.270 -0.9190 -1.5788 -1.9746
   56CHL1  H27C 6624   3.103   5.483   8.352 -1.6011 -3.1515  2.4343
   57CHL1    C3 6625   4.701   1.530  10.234  0.0258 -0.4140 -0.0875
   57CHL1    H3 6626   4.798   1.583  10.225 -0.3063  0.0714 -0.8682
   57CHL1    O3 6627   4.676   1.505  10.374  0.5387  0.7794 -1.0129
   57CHL1   H3' 6628   4.596   1.452  10.367  0.4208  0.9485 -0.9515
   57CHL1    C4 6629   4.590   1.623  10.183  0.5941  1.0508  0.3590
   57CHL1   H4A 6630   4.493   1.575  10.210  1.3656 -0.0411  1.1744
   57CHL1   H4B 6631   4.591   1.721  10.235  1.5184 -0.1180  2.5616
   57CHL1    C5 6632   4.587   1.639  10.033  0.1510  0.1267  0.2920
   57CHL1    C6 6633   4.572   1.762   9.978 -0.0770  0.3226 -0.4673
   57CHL1    H6 6634   4.553   1.845  10.047 -2.2449  2.8590 -3.9797
   57CHL1    C7 6635   4.556   1.792   9.837 -0.3431 -0.6690  0.4190
   57CHL1   H7A 6636   4.459   1.838   9.811  0.4060  0.6092 -0.1420
   57CHL1   H7B 6637   4.620   1.878   9.810 -0.5110 -1.1468 -1.5874
   57CHL1    C8 6638   4.559   1.669   9.738 -0.1011  0.0752  0.1633
   57CHL1    H8 6639   4.453   1.636   9.741 -0.1271  0.0081 -1.0382
   57CHL1   C14 6640   4.600   1.707   9.590 -0.1127  0.6697 -0.5893
   57CHL1   H14 6641   4.707   1.735   9.599 -0.1489  0.8208 -0.6180
   57CHL1   C15 6642   4.536   1.826   9.518 -0.6018 -0.6006 -0.3298
   57CHL1  H15A 6643   4.428   1.820   9.539 -0.1099 -1.4527  2.0761
   57CHL1  H15B 6644   4.579   1.923   9.551 -0.6091  0.0614 -2.1927
   57CHL1   C16 6645   4.562   1.800   9.371 -0.3822 -0.1176 -0.4664
   57CHL1  H16A 6646   4.462   1.802   9.323 -0.3198  0.7893 -0.5662
   57CHL1  H16B 6647   4.625   1.884   9.334  1.1033 -1.5055 -1.1676
   57CHL1   C17 6648   4.627   1.658   9.361 -1.0371  0.0365  0.3792
   57CHL1   H17 6649   4.737   1.660   9.376 -0.8264  1.6357 -1.2389
   57CHL1   C13 6650   4.586   1.591   9.491  0.0413 -0.1825  0.2612
   57CHL1   C18 6651   4.441   1.543   9.483 -0.6467  0.1646  0.1425
   57CHL1  H18A 6652   4.401   1.520   9.584  0.8780  0.7872  0.8992
   57CHL1  H18B 6653   4.376   1.625   9.444  0.8523  1.5984  0.6046
   57CHL1  H18C 6654   4.429   1.459   9.411  1.0347 -0.4485  0.5533
   57CHL1   C12 6655   4.677   1.480   9.543  0.6701 -0.0444  0.2495
   57CHL1  H12A 6656   4.648   1.403   9.468  0.0036  1.1878 -0.7730
   57CHL1  H12B 6657   4.783   1.512   9.535  0.8215 -0.2854  1.1944
   57CHL1   C11 6658   4.659   1.442   9.687  0.4159 -0.3263  0.5490
   57CHL1  H11A 6659   4.570   1.375   9.691 -0.7707  1.0409 -1.5940
   57CHL1  H11B 6660   4.745   1.378   9.714  1.3034  0.1234 -1.1654
   57CHL1    C9 6661   4.646   1.556   9.786  0.1446 -0.5784  0.0838
   57CHL1    H9 6662   4.746   1.602   9.804  1.1793 -1.6181 -2.6983
   57CHL1   C10 6663   4.614   1.515   9.937  0.1872  0.3162  0.2264
   57CHL1   C19 6664   4.482   1.434   9.944 -0.3308 -0.0123  0.5452
   57CHL1  H19A 6665   4.440   1.439  10.046  0.0799  2.7012  0.6026
   57CHL1  H19B 6666   4.411   1.475   9.868  1.5291  4.7873  1.2614
   57CHL1  H19C 6667   4.506   1.327   9.924  0.4022  0.7257 -2.9478
   57CHL1    C1 6668   4.731   1.432  10.004 -0.5529  0.3749  0.0929
   57CHL1   H1A 6669   4.742   1.336   9.949 -2.7785  0.4049 -0.4847
   57CHL1   H1B 6670   4.822   1.494   9.999 -0.0021 -0.2450  2.0430
   57CHL1    C2 6671   4.702   1.398  10.153 -0.2870  0.6712 -0.7719
   57CHL1   H2A 6672   4.787   1.341  10.197  1.0952  2.1858 -1.4560
   57CHL1   H2B 6673   4.605   1.345  10.168  0.2050 -0.0760 -0.1739
   57CHL1   C20 6674   4.607   1.565   9.239 -0.1173 -0.2449  0.2628
   57CHL1   H20 6675   4.612   1.459   9.275 -2.6569 -0.2878  0.6114
   57CHL1   C21 6676   4.724   1.588   9.148  0.7957  0.4437 -0.2697
   57CHL1  H21A 6677   4.825   1.565   9.188  0.8057  0.0803 -0.4971
   57CHL1  H21B 6678   4.711   1.692   9.112  0.9165  0.6756  0.3617
   57CHL1  H21C 6679   4.708   1.520   9.061 -4.5221 -0.7168  1.3983
   57CHL1   C22 6680   4.480   1.581   9.163  0.0590  0.0145 -0.1344
   57CHL1  H22A 6681   4.393   1.601   9.228  0.6559  0.0248  0.6731
   57CHL1  H22B 6682   4.473   1.675   9.105  1.0687  0.8584  1.0702
   57CHL1   C23 6683   4.431   1.462   9.076  0.1753  0.5525  0.2934
   57CHL1  H23A 6684   4.527   1.437   9.026  0.0958  0.0500  0.3883
   57CHL1  H23B 6685   4.397   1.373   9.133 -1.2887  0.2399 -1.0181
   57CHL1   C24 6686   4.325   1.506   8.967 -0.1127  0.4958  0.1786
   57CHL1  H24A 6687   4.250   1.424   8.954  1.0445 -0.6341  0.5544
   57CHL1  H24B 6688   4.267   1.596   8.998 -0.0979 -0.4917  3.1965
   57CHL1   C25 6689   4.380   1.529   8.823  0.3824  0.0726  0.0964
   57CHL1   H25 6690   4.470   1.594   8.825  1.1148 -0.9262  0.5100
   57CHL1   C26 6691   4.405   1.393   8.749 -0.2464 -0.3300  0.0009
   57CHL1  H26A 6692   4.304   1.347   8.742 -0.9349  1.0359  0.8033
   57CHL1  H26B 6693   4.442   1.412   8.646 -1.3957 -0.9853 -0.5443
   57CHL1  H26C 6694   4.478   1.329   8.804 -1.0092 -1.0247  0.2184
   57CHL1   C27 6695   4.263   1.605   8.748 -0.1764  0.4476 -0.0926
   57CHL1  H27A 6696   4.163   1.560   8.764 -0.7451  1.2725 -1.2747
   57CHL1  H27B 6697   4.266   1.705   8.796 -2.2326  0.8071 -0.6679
   57CHL1  H27C 6698   4.287   1.617   8.640  1.1217  1.1734  0.2670
   58CHL1    C3 6699   1.130   6.687  10.099 -0.4110 -0.6381 -0.4569
   58CHL1    H3 6700   1.073   6.597  10.067 -0.0472 -0.9391 -0.2623
   58CHL1    O3 6701   1.158   6.677  10.239  0.4405 -0.4323 -0.6800
   58CHL1   H3' 6702   1.201   6.759  10.262 -0.5844 -0.0993  0.0884
   58CHL1    C4 6703   1.258   6.714  10.021  0.3272 -0.3885 -0.6221
   58CHL1   H4A 6704   1.332   6.781  10.069  0.4610 -0.8540 -0.1753
   58CHL1   H4B 6705   1.310   6.616  10.029  2.0162  0.6392  1.3312
   58CHL1    C5 6706   1.228   6.736   9.874 -0.3982  0.2148 -0.0198
   58CHL1    C6 6707   1.269   6.649   9.777  0.4459  0.1999 -0.3992
   58CHL1    H6 6708   1.338   6.566   9.797  0.0730 -0.1489 -0.5516
   58CHL1    C7 6709   1.233   6.680   9.632 -0.1322  0.2037 -0.2696
   58CHL1   H7A 6710   1.316   6.656   9.562 -0.1203 -2.3057  0.5723
   58CHL1   H7B 6711   1.151   6.612   9.600 -2.5235  2.6287  0.4479
   58CHL1    C8 6712   1.192   6.825   9.604 -0.2110 -0.9368  0.3293
   58CHL1    H8 6713   1.277   6.895   9.619 -0.0456 -0.9950 -0.3398
   58CHL1   C14 6714   1.140   6.833   9.462  0.3172 -0.2827 -0.4737
   58CHL1   H14 6715   1.055   6.762   9.457 -0.4030  0.6172 -1.0572
   58CHL1   C15 6716   1.237   6.798   9.345  0.6476 -0.2161 -0.0605
   58CHL1  H15A 6717   1.344   6.827   9.353  0.3941  1.8070 -3.2793
   58CHL1  H15B 6718   1.225   6.687   9.341  0.3002 -0.1044 -2.2680
   58CHL1   C16 6719   1.167   6.861   9.222  0.3443 -0.1673 -0.2585
   58CHL1  H16A 6720   1.232   6.937   9.174  1.5775 -0.5043  0.8627
   58CHL1  H16B 6721   1.152   6.778   9.150 -2.0049  1.3629 -1.6143
   58CHL1   C17 6722   1.042   6.933   9.278 -0.3800 -0.0961 -0.5995
   58CHL1   H17 6723   0.968   6.850   9.275  1.1906 -1.7295  2.7117
   58CHL1   C13 6724   1.077   6.966   9.418 -0.3825 -0.5540  0.7529
   58CHL1   C18 6725   1.175   7.089   9.422  0.0768  0.0187 -0.6451
   58CHL1  H18A 6726   1.118   7.180   9.394 -0.0255 -0.3514 -1.6837
   58CHL1  H18B 6727   1.222   7.102   9.521 -0.6801 -0.4458 -0.2189
   58CHL1  H18C 6728   1.260   7.076   9.352  0.8938  0.6192  0.2277
   58CHL1   C12 6729   0.958   6.981   9.515 -0.0242 -0.0225 -0.4431
   58CHL1  H12A 6730   0.904   7.074   9.487  1.0452  0.7615  0.0666
   58CHL1  H12B 6731   0.880   6.902   9.514 -2.1498  1.9640  1.5878
   58CHL1   C11 6732   1.004   6.999   9.664  0.0426 -0.6674 -0.3659
   58CHL1  H11A 6733   1.059   7.094   9.654 -2.2823  0.8171  0.4683
   58CHL1  H11B 6734   0.914   7.008   9.729  0.0651  1.0076 -0.5482
   58CHL1    C9 6735   1.080   6.868   9.705 -0.3900  0.2600  0.8201
   58CHL1    H9 6736   1.004   6.787   9.699 -0.9553  0.8784 -0.6900
   58CHL1   C10 6737   1.135   6.857   9.850  0.0416  0.4956 -0.0789
   58CHL1   C19 6738   1.220   6.983   9.884  0.5794  0.4720  0.0437
   58CHL1  H19A 6739   1.156   7.072   9.898  1.9839  1.2164  1.8968
   58CHL1  H19B 6740   1.278   6.966   9.977 -0.6258 -0.9257  0.5656
   58CHL1  H19C 6741   1.299   7.000   9.808 -0.9604  1.7180 -1.2966
   58CHL1    C1 6742   1.010   6.845   9.945 -0.0965 -0.7336 -0.1033
   58CHL1   H1A 6743   0.950   6.939   9.946 -0.4710 -0.9793  0.8009
   58CHL1   H1B 6744   0.943   6.761   9.916 -2.0092  0.0387  1.9023
   58CHL1    C2 6745   1.041   6.810  10.092 -0.5600 -0.7787 -0.2917
   58CHL1   H2A 6746   0.947   6.797  10.149 -2.1856  2.0545 -2.2124
   58CHL1   H2B 6747   1.094   6.903  10.122 -0.5938 -0.6796 -0.5358
   58CHL1   C20 6748   0.993   7.046   9.185 -0.7727  0.5272  0.3455
   58CHL1   H20 6749   1.062   7.133   9.198 -3.8907  3.1694 -0.1099
   58CHL1   C21 6750   0.846   7.095   9.231  0.2260  0.3681  0.1585
   58CHL1  H21A 6751   0.787   7.002   9.245  0.3213 -0.0091 -1.7046
   58CHL1  H21B 6752   0.799   7.152   9.148 -1.2639 -2.6995 -1.2119
   58CHL1  H21C 6753   0.842   7.148   9.328  1.8282 -0.0728  0.4856
   58CHL1   C22 6754   1.004   7.008   9.035 -0.4985 -0.2847 -0.2194
   58CHL1  H22A 6755   0.965   7.092   8.973  2.8141  0.6707 -1.0810
   58CHL1  H22B 6756   1.107   6.976   9.010 -1.2646 -0.5918 -3.1662
   58CHL1   C23 6757   0.909   6.886   9.004  0.2530 -0.1714 -0.0098
   58CHL1  H23A 6758   0.947   6.801   9.065  1.9789 -0.7129 -1.7934
   58CHL1  H23B 6759   0.803   6.908   9.030  0.9027  1.3949  1.3965
   58CHL1   C24 6760   0.909   6.838   8.860  0.3517  0.0574  0.5267
   58CHL1  H24A 6761   0.898   6.922   8.788 -1.5310 -0.1359  0.5624
   58CHL1  H24B 6762   1.009   6.797   8.831  0.5090  1.4226 -0.9497
   58CHL1   C25 6763   0.799   6.742   8.831  0.4723 -0.6236 -0.3384
   58CHL1   H25 6764   0.701   6.790   8.849  0.7957 -0.2473  0.4552
   58CHL1   C26 6765   0.804   6.705   8.681 -0.4112 -0.0740  0.4486
   58CHL1  H26A 6766   0.904   6.659   8.664 -0.4092 -0.6837  2.0159
   58CHL1  H26B 6767   0.723   6.635   8.654 -2.3334  1.9338  0.9252
   58CHL1  H26C 6768   0.795   6.802   8.627  2.4800  0.1181  0.2325
   58CHL1   C27 6769   0.794   6.605   8.911  0.3502 -0.1568  0.0694
   58CHL1  H27A 6770   0.699   6.555   8.885  0.3560 -0.9308  1.5186
   58CHL1  H27B 6771   0.870   6.529   8.882  0.6550  0.6929 -1.4592
   58CHL1  H27C 6772   0.795   6.633   9.018  0.0471  1.0975 -0.2396
   59CHL1    C3 6773   0.373   6.013  10.210  0.6786 -0.1054 -0.0298
   59CHL1    H3 6774   0.377   5.912  10.165  0.1604  0.1598 -0.6831
   59CHL1    O3 6775   0.384   6.026  10.350  0.0208 -0.4854 -0.1292
   59CHL1   H3' 6776   0.441   6.100  10.371 -1.4987  0.3447  1.1526
   59CHL1    C4 6777   0.490   6.094  10.153  0.1862  0.0605  0.5202
   59CHL1   H4A 6778   0.471   6.194  10.198 -2.5811 -0.6737  1.0790
   59CHL1   H4B 6779   0.578   6.038  10.190  0.3786 -0.0777 -0.1404
   59CHL1    C5 6780   0.486   6.108  10.000 -0.3970 -0.3742  0.2691
   59CHL1    C6 6781   0.581   6.073   9.919 -0.9738  0.0138  0.5680
   59CHL1    H6 6782   0.665   6.021   9.967 -0.9482 -1.3055 -0.8755
   59CHL1    C7 6783   0.589   6.088   9.768  0.6479  0.2441 -0.2293
   59CHL1   H7A 6784   0.695   6.100   9.736  0.5952 -0.4392 -0.6983
   59CHL1   H7B 6785   0.576   5.980   9.741 -0.8810 -0.1161  1.8548
   59CHL1    C8 6786   0.485   6.190   9.708 -0.5130  0.3089  0.5138
   59CHL1    H8 6787   0.511   6.298   9.721  0.2637  0.7263 -3.7930
   59CHL1   C14 6788   0.471   6.155   9.561 -0.1033  0.4449  0.5124
   59CHL1   H14 6789   0.439   6.049   9.562  0.3480  0.3045  3.0887
   59CHL1   C15 6790   0.593   6.160   9.470 -0.5044 -0.7281 -0.7019
   59CHL1  H15A 6791   0.629   6.265   9.481  0.4479 -1.0358 -0.7939
   59CHL1  H15B 6792   0.675   6.088   9.491  0.1945 -0.1205 -1.2606
   59CHL1   C16 6793   0.529   6.139   9.336  0.6259  0.1659 -0.3295
   59CHL1  H16A 6794   0.568   6.220   9.270  1.6808  0.2842  0.4281
   59CHL1  H16B 6795   0.548   6.038   9.292 -0.5657 -0.0523 -0.3459
   59CHL1   C17 6796   0.374   6.174   9.350 -0.5100 -0.3307  0.2145
   59CHL1   H17 6797   0.318   6.078   9.356  0.4415 -1.0834 -2.2951
   59CHL1   C13 6798   0.352   6.233   9.490 -0.2852  0.4994 -0.2152
   59CHL1   C18 6799   0.380   6.385   9.488  0.0033 -0.2768 -0.2497
   59CHL1  H18A 6800   0.296   6.432   9.434 -0.2451 -1.7584 -1.1839
   59CHL1  H18B 6801   0.376   6.419   9.594 -1.3148 -1.4408  0.0920
   59CHL1  H18C 6802   0.472   6.420   9.436 -0.7821 -0.8900 -2.1093
   59CHL1   C12 6803   0.220   6.204   9.572  0.0874  0.2478  0.2578
   59CHL1  H12A 6804   0.129   6.256   9.534 -0.7906 -1.1332  0.4381
   59CHL1  H12B 6805   0.204   6.095   9.561  1.9731 -0.0720  0.5042
   59CHL1   C11 6806   0.236   6.236   9.727  0.6414  0.9441  0.6268
   59CHL1  H11A 6807   0.249   6.346   9.727 -1.7445  1.2566 -0.8539
   59CHL1  H11B 6808   0.143   6.214   9.783 -0.0866 -0.5337 -1.1239
   59CHL1    C9 6809   0.353   6.165   9.787 -0.4669 -0.3554  0.4188
   59CHL1    H9 6810   0.342   6.056   9.768  1.5298 -0.7381  1.3524
   59CHL1   C10 6811   0.368   6.183   9.941 -0.1865 -0.1567 -0.3969
   59CHL1   C19 6812   0.363   6.329   9.983 -0.2196  0.0820  0.4140
   59CHL1  H19A 6813   0.273   6.380   9.943  0.3861 -0.6659 -1.9824
   59CHL1  H19B 6814   0.360   6.336  10.094  2.1299 -2.1836  0.6611
   59CHL1  H19C 6815   0.443   6.393   9.941  0.2822 -1.5504 -1.2324
   59CHL1    C1 6816   0.249   6.116  10.008 -0.1597 -0.6093  0.2086
   59CHL1   H1A 6817   0.157   6.176   9.991 -1.2685 -2.7823 -1.8676
   59CHL1   H1B 6818   0.226   6.019   9.958  1.1119 -0.5278 -0.5480
   59CHL1    C2 6819   0.245   6.086  10.155  0.2956 -0.0049 -0.3385
   59CHL1   H2A 6820   0.155   6.026  10.180  0.4171  0.3287  0.9363
   59CHL1   H2B 6821   0.225   6.179  10.212 -1.8423  0.5257 -1.8990
   59CHL1   C20 6822   0.310   6.243   9.224 -0.2238  0.7548 -0.2880
   59CHL1   H20 6823   0.351   6.346   9.214  2.3995  0.1253  3.0864
   59CHL1   C21 6824   0.160   6.245   9.239  0.4108 -1.1498  0.3017
   59CHL1  H21A 6825   0.138   6.316   9.322  0.4599  0.8379 -1.3256
   59CHL1  H21B 6826   0.117   6.144   9.255 -3.0393  0.0531 -0.8720
   59CHL1  H21C 6827   0.115   6.294   9.150 -0.0685 -0.8031  0.7308
   59CHL1   C22 6828   0.353   6.170   9.096  0.3001  0.1157  0.0591
   59CHL1  H22A 6829   0.463   6.172   9.081  0.2692  1.1916 -0.0462
   59CHL1  H22B 6830   0.332   6.063   9.116  0.0114 -0.4925 -3.2478
   59CHL1   C23 6831   0.284   6.222   8.975  1.4590 -0.3522 -0.4045
   59CHL1  H23A 6832   0.174   6.211   8.967  1.5249 -0.6074 -1.0227
   59CHL1  H23B 6833   0.298   6.332   8.964 -1.2949 -0.2242 -3.1306
   59CHL1   C24 6834   0.350   6.148   8.859 -0.3254 -0.2171 -0.1781
   59CHL1  H24A 6835   0.461   6.156   8.860 -0.2349 -1.4107  0.5955
   59CHL1  H24B 6836   0.337   6.040   8.883 -2.6573  0.4103  1.5418
   59CHL1   C25 6837   0.299   6.181   8.721  0.2033  0.2608 -0.2201
   59CHL1   H25 6838   0.188   6.179   8.729  0.3335 -0.2587  1.7384
   59CHL1   C26 6839   0.339   6.323   8.674 -0.1939  0.3938  0.7285
   59CHL1  H26A 6840   0.439   6.353   8.713 -0.1850  0.9155  0.3149
   59CHL1  H26B 6841   0.352   6.330   8.563  0.3625 -0.0647  0.7579
   59CHL1  H26C 6842   0.269   6.404   8.702  0.3977  2.1555 -2.5672
   59CHL1   C27 6843   0.333   6.080   8.611  0.6474 -0.2686  0.4432
   59CHL1  H27A 6844   0.268   6.100   8.523 -1.5617 -0.5963  1.9390
   59CHL1  H27B 6845   0.441   6.101   8.595  0.1914  0.3527 -2.0126
   59CHL1  H27C 6846   0.314   5.978   8.652  0.5096 -1.3533 -2.1643
   60CHL1    C3 6847   6.425   5.292  10.440 -0.0995 -0.7853 -0.1195
   60CHL1    H3 6848   6.352   5.210  10.419 -2.8653  1.2700  1.1642
   60CHL1    O3 6849   6.445   5.295  10.582 -0.3037  0.7023  0.0857
   60CHL1   H3' 6850   6.354   5.305  10.610 -0.8806  0.6616 -1.6849
   60CHL1    C4 6851   6.562   5.256  10.375 -0.0562 -0.6577 -1.1597
   60CHL1   H4A 6852   6.643   5.323  10.410 -0.4213 -0.8997  0.1753
   60CHL1   H4B 6853   6.581   5.152  10.410 -2.6294 -0.8306 -0.1906
   60CHL1    C5 6854   6.575   5.275  10.222  1.2050  0.4280  0.1580
   60CHL1    C6 6855   6.623   5.169  10.148  0.4472  1.0720 -0.2132
   60CHL1    H6 6856   6.659   5.079  10.200  1.8227  0.7852 -1.6074
   60CHL1    C7 6857   6.633   5.175  10.001  0.6796  0.6091  0.0018
   60CHL1   H7A 6858   6.727   5.139   9.954  0.5075  2.8890 -2.1889
   60CHL1   H7B 6859   6.553   5.109   9.959 -0.3288  0.8419  1.5347
   60CHL1    C8 6860   6.603   5.319   9.937  0.1511  0.5353 -0.2699
   60CHL1    H8 6861   6.690   5.383   9.960 -0.0393  0.1615  1.6525
   60CHL1   C14 6862   6.579   5.310   9.787  0.1423  0.5281  0.3132
   60CHL1   H14 6863   6.485   5.250   9.783  0.4616  0.0407 -0.0088
   60CHL1   C15 6864   6.689   5.251   9.702  0.2695  0.0419  0.2284
   60CHL1  H15A 6865   6.785   5.300   9.728  1.4362 -0.9318 -2.1426
   60CHL1  H15B 6866   6.698   5.142   9.721  3.6385  0.3830  0.9530
   60CHL1   C16 6867   6.644   5.285   9.560  0.4800 -0.3962  0.1879
   60CHL1  H16A 6868   6.732   5.321   9.503 -0.2870 -0.4476 -1.0507
   60CHL1  H16B 6869   6.588   5.208   9.502 -2.8320  0.9532  1.4378
   60CHL1   C17 6870   6.538   5.401   9.576  0.5651  0.4346 -0.1922
   60CHL1   H17 6871   6.439   5.351   9.565 -0.3588  1.8784  1.3490
   60CHL1   C13 6872   6.541   5.442   9.727 -0.6179  0.0890  0.1490
   60CHL1   C18 6873   6.652   5.545   9.755  0.1194  0.4665 -0.0230
   60CHL1  H18A 6874   6.665   5.564   9.864  1.7013 -0.5412 -0.0130
   60CHL1  H18B 6875   6.747   5.499   9.720  0.4475  1.9094 -1.0871
   60CHL1  H18C 6876   6.624   5.642   9.709 -3.1562 -0.2996  0.2205
   60CHL1   C12 6877   6.402   5.494   9.792 -0.3670  0.1904  0.8984
   60CHL1  H12A 6878   6.374   5.592   9.748  2.5194  0.8518  0.4508
   60CHL1  H12B 6879   6.323   5.420   9.764  0.8582 -0.1101 -1.8790
   60CHL1   C11 6880   6.411   5.508   9.945 -0.3881 -0.1735  0.4903
   60CHL1  H11A 6881   6.466   5.602   9.967 -0.5837 -0.1211  0.7633
   60CHL1  H11B 6882   6.306   5.524   9.980 -0.0132  1.7621  0.7677
   60CHL1    C9 6883   6.483   5.388  10.012 -0.0147 -0.2276  0.0125
   60CHL1    H9 6884   6.404   5.310  10.009 -1.7003  1.4609 -0.5691
   60CHL1   C10 6885   6.516   5.402  10.164 -0.3907 -0.4564 -0.6153
   60CHL1   C19 6886   6.616   5.520  10.187  0.2694  0.0121  0.1177
   60CHL1  H19A 6887   6.573   5.613  10.145 -0.0782 -0.1378  0.1414
   60CHL1  H19B 6888   6.632   5.530  10.297 -2.0385  0.7953  0.3950
   60CHL1  H19C 6889   6.712   5.509  10.132 -0.5644  0.6715 -1.4870
   60CHL1    C1 6890   6.380   5.438  10.245  0.0080 -1.0734  0.8859
   60CHL1   H1A 6891   6.352   5.543  10.223 -0.8595 -1.0415  2.0656
   60CHL1   H1B 6892   6.301   5.376  10.197 -1.7622  0.1744  2.1026
   60CHL1    C2 6893   6.382   5.428  10.396 -0.1492 -0.1703 -0.1128
   60CHL1   H2A 6894   6.284   5.451  10.444 -0.8595 -1.0405 -1.1217
   60CHL1   H2B 6895   6.446   5.512  10.429 -1.6224  1.4122 -1.1862
   60CHL1   C20 6896   6.551   5.521   9.468  0.3162  0.7268  0.9794
   60CHL1   H20 6897   6.651   5.569   9.479 -0.6449  2.9672  0.0864
   60CHL1   C21 6898   6.443   5.627   9.478  0.2312 -0.0667  0.8407
   60CHL1  H21A 6899   6.435   5.685   9.384 -0.9606 -1.2271  0.1994
   60CHL1  H21B 6900   6.467   5.700   9.559 -0.7984 -0.5083  1.5570
   60CHL1  H21C 6901   6.345   5.576   9.486  1.2174 -2.3315 -0.8846
   60CHL1   C22 6902   6.553   5.461   9.326  0.8215  0.4098  0.1459
   60CHL1  H22A 6903   6.553   5.542   9.251 -0.6151 -0.0143 -0.3225
   60CHL1  H22B 6904   6.652   5.416   9.305  0.2830 -0.9896  0.5366
   60CHL1   C23 6905   6.432   5.377   9.284  0.0351  0.3974 -0.2127
   60CHL1  H23A 6906   6.442   5.276   9.329 -2.7315  0.9827  1.8434
   60CHL1  H23B 6907   6.344   5.421   9.335 -0.5631 -1.4105  0.3487
   60CHL1   C24 6908   6.424   5.355   9.134 -0.0899 -0.4997 -0.7071
   60CHL1  H24A 6909   6.406   5.441   9.067  1.9428  0.6073  0.1305
   60CHL1  H24B 6910   6.519   5.306   9.105 -0.1381 -0.3003 -1.2050
   60CHL1   C25 6911   6.304   5.261   9.093  0.4277 -0.2057 -0.1507
   60CHL1   H25 6912   6.316   5.170   9.156 -0.7269 -0.0281  0.3512
   60CHL1   C26 6913   6.170   5.330   9.119  0.3694 -0.4041 -0.0473
   60CHL1  H26A 6914   6.077   5.275   9.094  0.3237 -0.6529  0.6475
   60CHL1  H26B 6915   6.152   5.346   9.228 -0.9629 -1.3222 -0.1170
   60CHL1  H26C 6916   6.160   5.427   9.065  2.1382  0.5208  1.2335
   60CHL1   C27 6917   6.312   5.217   8.945  0.1343  0.4374  0.3145
   60CHL1  H27A 6918   6.237   5.135   8.937  0.6739 -0.0733  0.4394
   60CHL1  H27B 6919   6.283   5.295   8.872  0.5733 -0.0143 -0.3454
   60CHL1  H27C 6920   6.411   5.170   8.927 -1.3489 -2.7609 -0.0306
   61CHL1    C3 6921   3.380   5.010  10.414  0.8171 -0.4647  0.1272
   61CHL1    H3 6922   3.287   4.977  10.363  0.1316  1.3031  0.1938
   61CHL1    O3 6923   3.350   5.027  10.550 -0.5391 -0.4344 -0.0337
   61CHL1   H3' 6924   3.402   5.106  10.568 -0.8499 -0.2068 -0.1294
   61CHL1    C4 6925   3.480   4.898  10.395 -0.6671  0.5727  0.4846
   61CHL1   H4A 6926   3.573   4.925  10.448 -0.6395 -0.4741  0.9846
   61CHL1   H4B 6927   3.432   4.810  10.444  1.4674 -1.4954 -1.0102
   61CHL1    C5 6928   3.507   4.885  10.241  0.4525 -0.6678 -0.1354
   61CHL1    C6 6929   3.465   4.771  10.189 -0.4115 -0.6337 -0.1603
   61CHL1    H6 6930   3.430   4.686  10.250 -0.4053 -0.4142  0.1438
   61CHL1    C7 6931   3.476   4.742  10.044 -0.7026  0.0737 -0.4517
   61CHL1   H7A 6932   3.508   4.637  10.027  0.2039  0.2511  0.1387
   61CHL1   H7B 6933   3.373   4.748  10.003 -1.6852 -0.4908  1.8374
   61CHL1    C8 6934   3.576   4.842   9.982 -0.1352 -0.4562 -0.2813
   61CHL1    H8 6935   3.680   4.825  10.018  0.4330  0.8165 -1.2543
   61CHL1   C14 6936   3.559   4.835   9.830 -0.1974 -0.2462  0.8920
   61CHL1   H14 6937   3.459   4.881   9.816  1.2288  2.7726  0.1819
   61CHL1   C15 6938   3.554   4.702   9.765 -0.0004  0.2733 -0.2931
   61CHL1  H15A 6939   3.640   4.645   9.804 -0.2753 -0.0674 -0.1857
   61CHL1  H15B 6940   3.459   4.648   9.782 -1.2419  1.7652 -2.2767
   61CHL1   C16 6941   3.565   4.733   9.617  0.0845  0.7109  0.3146
   61CHL1  H16A 6942   3.640   4.671   9.564  0.9350  1.5872  0.4828
   61CHL1  H16B 6943   3.465   4.717   9.572  0.0761  0.0007  0.5815
   61CHL1   C17 6944   3.588   4.893   9.610  0.2786 -0.3118  0.9285
   61CHL1   H17 6945   3.486   4.937   9.610  0.9672  1.3280 -0.8436
   61CHL1   C13 6946   3.650   4.928   9.747  0.4144 -0.2912  0.6129
   61CHL1   C18 6947   3.797   4.883   9.754  0.0510 -0.6845  0.3714
   61CHL1  H18A 6948   3.861   4.953   9.695 -0.7409 -0.7476 -0.5698
   61CHL1  H18B 6949   3.828   4.882   9.861  0.7751 -0.2182  0.1673
   61CHL1  H18C 6950   3.811   4.782   9.709 -0.5632 -1.3542  1.6604
   61CHL1   C12 6951   3.624   5.073   9.788 -0.0612  0.4588 -0.0990
   61CHL1  H12A 6952   3.701   5.140   9.744  0.0910 -0.4216 -1.1787
   61CHL1  H12B 6953   3.521   5.101   9.755 -0.3246  0.4799  0.7316
   61CHL1   C11 6954   3.644   5.088   9.939 -0.3778  0.2244 -0.4119
   61CHL1  H11A 6955   3.753   5.077   9.957 -0.3936  3.1864  1.8662
   61CHL1  H11B 6956   3.621   5.194   9.964  0.7205  0.0826  1.2536
   61CHL1    C9 6957   3.557   4.990  10.021 -0.7269  0.0605  0.9121
   61CHL1    H9 6958   3.453   5.006   9.985 -0.3062 -0.7104 -0.7126
   61CHL1   C10 6959   3.569   5.004  10.170 -0.2236 -0.7106  0.3481
   61CHL1   C19 6960   3.713   5.013  10.213 -0.7872  0.1608 -0.0788
   61CHL1  H19A 6961   3.725   5.053  10.317  0.9366  0.8462 -0.5178
   61CHL1  H19B 6962   3.775   4.921  10.204  0.5369  1.0115  0.0360
   61CHL1  H19C 6963   3.771   5.091  10.159 -0.3909 -0.3099 -0.3392
   61CHL1    C1 6964   3.479   5.126  10.205 -0.3178 -0.1548 -0.8362
   61CHL1   H1A 6965   3.546   5.210  10.177 -1.1867  0.7909 -0.0769
   61CHL1   H1B 6966   3.392   5.141  10.137 -1.1931 -0.7137  0.1452
   61CHL1    C2 6967   3.435   5.139  10.352  0.2394  0.4957 -0.1452
   61CHL1   H2A 6968   3.369   5.228  10.354  0.9820  1.0402  0.7442
   61CHL1   H2B 6969   3.522   5.179  10.408  1.7319  1.3956 -2.9820
   61CHL1   C20 6970   3.663   4.943   9.482 -0.1938  0.2710 -0.6012
   61CHL1   H20 6971   3.766   4.901   9.486  0.1911  1.2074 -0.4779
   61CHL1   C21 6972   3.671   5.097   9.463 -0.3686 -0.8975  0.4768
   61CHL1  H21A 6973   3.717   5.114   9.364 -1.2394 -0.5643  0.1244
   61CHL1  H21B 6974   3.740   5.141   9.538  2.0086 -0.8124 -1.6886
   61CHL1  H21C 6975   3.568   5.138   9.463 -0.0634 -0.1280 -0.8341
   61CHL1   C22 6976   3.606   4.884   9.352 -0.9807 -0.1649 -0.4886
   61CHL1  H22A 6977   3.665   4.923   9.266 -1.2392 -1.1120 -1.1046
   61CHL1  H22B 6978   3.616   4.774   9.360 -0.7444  0.0210  1.9434
   61CHL1   C23 6979   3.454   4.916   9.325 -0.5175 -0.1691  0.0607
   61CHL1  H23A 6980   3.394   4.913   9.419 -1.4982  0.7133 -0.5242
   61CHL1  H23B 6981   3.439   5.023   9.301 -0.0783  0.1962  1.3816
   61CHL1   C24 6982   3.393   4.827   9.219 -0.2212  0.4477 -0.1710
   61CHL1  H24A 6983   3.405   4.722   9.253  3.0435  1.1808  1.1772
   61CHL1  H24B 6984   3.284   4.851   9.219 -1.1867 -3.4293  3.7833
   61CHL1   C25 6985   3.446   4.843   9.072 -0.4946 -1.0868 -1.2178
   61CHL1   H25 6986   3.552   4.810   9.084 -0.6433 -0.5251  2.0625
   61CHL1   C26 6987   3.374   4.743   8.985  0.1138  0.4027  0.2153
   61CHL1  H26A 6988   3.267   4.773   8.980 -0.0078 -0.1607 -0.8018
   61CHL1  H26B 6989   3.411   4.742   8.880 -1.1829 -1.7063 -0.2564
   61CHL1  H26C 6990   3.384   4.646   9.037  0.0403 -1.0644 -2.3851
   61CHL1   C27 6991   3.442   4.984   9.006 -0.3987 -0.3690 -0.8740
   61CHL1  H27A 6992   3.465   4.984   8.897 -0.1514  0.2705 -0.8246
   61CHL1  H27B 6993   3.349   5.041   9.027 -0.1589 -0.1490 -0.4010
   61CHL1  H27C 6994   3.518   5.050   9.052 -0.9256  0.4958 -1.2178
   62CHL1    C3 6995   4.048   1.739   9.986  1.3020 -0.2036 -0.2929
   62CHL1    H3 6996   3.971   1.660   9.985  0.6022  0.4580  0.4392
   62CHL1    O3 6997   4.104   1.747  10.117  0.4114 -0.2192  0.2579
   62CHL1   H3' 6998   4.027   1.755  10.173  1.3545  1.6602  1.3559
   62CHL1    C4 6999   4.170   1.707   9.897 -0.1427  0.2941 -0.1427
   62CHL1   H4A 7000   4.257   1.775   9.903 -0.0845  0.1152  1.1771
   62CHL1   H4B 7001   4.204   1.606   9.931  1.4849  0.5729 -0.9179
   62CHL1    C5 7002   4.119   1.712   9.760 -0.3169  0.3410 -0.1470
   62CHL1    C6 7003   4.113   1.605   9.679  0.3799  0.0236  0.7357
   62CHL1    H6 7004   4.135   1.506   9.720 -1.7555 -1.3736 -1.3933
   62CHL1    C7 7005   4.082   1.604   9.532  0.2201  0.1183  0.6427
   62CHL1   H7A 7006   4.165   1.554   9.477  1.4132  1.2512  1.3902
   62CHL1   H7B 7007   3.980   1.563   9.516 -0.2546  1.2612  0.6873
   62CHL1    C8 7008   4.075   1.740   9.470  1.2333  0.0846 -0.2151
   62CHL1    H8 7009   4.183   1.766   9.463  2.1030 -2.8499  1.0495
   62CHL1   C14 7010   4.004   1.741   9.330  0.4029 -0.0858  0.4743
   62CHL1   H14 7011   3.902   1.713   9.364 -0.2794  2.5823  0.6808
   62CHL1   C15 7012   4.042   1.634   9.224  0.6364  0.1525 -0.1416
   62CHL1  H15A 7013   4.152   1.635   9.208  0.5980 -0.5485 -0.4821
   62CHL1  H15B 7014   3.998   1.537   9.256 -1.1027  1.2871  0.9899
   62CHL1   C16 7015   3.968   1.690   9.099 -0.2042  0.3974  1.2412
   62CHL1  H16A 7016   4.040   1.714   9.017 -0.7528  4.0253  1.7174
   62CHL1  H16B 7017   3.897   1.612   9.065 -0.5487  1.4900 -0.6181
   62CHL1   C17 7018   3.899   1.825   9.137  0.2109  0.2946 -0.1986
   62CHL1   H17 7019   3.799   1.800   9.179 -0.0445 -3.9154 -2.9683
   62CHL1   C13 7020   3.982   1.875   9.262  1.1275  0.4884  0.5688
   62CHL1   C18 7021   4.115   1.937   9.215 -0.7029 -0.0997  0.7001
   62CHL1  H18A 7022   4.165   1.879   9.134 -0.9225  0.9216 -0.1782
   62CHL1  H18B 7023   4.106   2.041   9.178  1.0751 -0.4995 -0.9131
   62CHL1  H18C 7024   4.181   1.928   9.304 -1.1255  0.9460  1.1265
   62CHL1   C12 7025   3.908   1.970   9.362  0.1546 -0.2377 -0.5606
   62CHL1  H12A 7026   3.902   2.074   9.321 -3.8187 -0.2527 -0.1364
   62CHL1  H12B 7027   3.805   1.938   9.386  0.4244 -1.2010 -0.6688
   62CHL1   C11 7028   3.988   1.979   9.489 -0.6928  0.7930  0.0013
   62CHL1  H11A 7029   4.092   2.014   9.471  1.1163 -2.6834  2.8424
   62CHL1  H11B 7030   3.939   2.049   9.560 -1.1143 -0.9641  1.4895
   62CHL1    C9 7031   4.001   1.842   9.565 -0.4412  0.4647  0.1591
   62CHL1    H9 7032   3.902   1.792   9.568 -0.3542  0.3663  1.6005
   62CHL1   C10 7033   4.073   1.851   9.710  1.0027  1.2003 -0.5809
   62CHL1   C19 7034   4.188   1.958   9.706 -0.0042  0.4308  0.5628
   62CHL1  H19A 7035   4.226   1.962   9.811  0.2787 -1.8424  0.5794
   62CHL1  H19B 7036   4.270   1.926   9.639 -1.6968 -2.5476 -0.2073
   62CHL1  H19C 7037   4.152   2.059   9.677 -1.2013 -0.3051 -0.5524
   62CHL1    C1 7038   3.957   1.890   9.797 -0.2140 -0.1978 -0.7452
   62CHL1   H1A 7039   3.931   1.998   9.798  0.1817 -0.1081 -0.1348
   62CHL1   H1B 7040   3.866   1.834   9.766 -0.9697  1.3233 -1.3406
   62CHL1    C2 7041   3.978   1.874   9.952 -0.0409  0.8346  0.9480
   62CHL1   H2A 7042   3.880   1.882  10.005 -0.1969 -1.5539  1.0478
   62CHL1   H2B 7043   4.049   1.953   9.985  1.3457 -0.5635  1.3568
   62CHL1   C20 7044   3.869   1.916   9.014 -0.0051 -0.2340 -0.9252
   62CHL1   H20 7045   3.970   1.948   8.980  1.1119  0.6906  3.0736
   62CHL1   C21 7046   3.788   2.042   9.057  0.6721 -0.2785 -0.2133
   62CHL1  H21A 7047   3.848   2.116   9.112 -0.1534 -0.0247  0.3608
   62CHL1  H21B 7048   3.711   2.011   9.131  1.9817 -1.0608  0.8485
   62CHL1  H21C 7049   3.748   2.082   8.961 -0.6443  0.3316  0.5787
   62CHL1   C22 7050   3.793   1.834   8.904  0.1983 -0.4784  0.0213
   62CHL1  H22A 7051   3.804   1.726   8.928  0.0104 -0.2516  1.1472
   62CHL1  H22B 7052   3.686   1.858   8.920  0.0615 -0.1931 -1.2956
   62CHL1   C23 7053   3.830   1.878   8.760 -0.4975 -0.1104  0.3606
   62CHL1  H23A 7054   3.824   1.989   8.758  0.2308 -0.0697  0.3015
   62CHL1  H23B 7055   3.934   1.850   8.731 -0.7654 -0.2670 -0.4688
   62CHL1   C24 7056   3.721   1.824   8.667  0.1225  0.2411 -0.0815
   62CHL1  H24A 7057   3.749   1.720   8.642 -1.2264 -0.1797  0.0754
   62CHL1  H24B 7058   3.620   1.816   8.713  0.4525  0.4600  0.6876
   62CHL1   C25 7059   3.714   1.902   8.533 -0.2468 -0.2324  0.4096
   62CHL1   H25 7060   3.692   2.009   8.551 -2.7779 -1.0801  2.6330
   62CHL1   C26 7061   3.845   1.898   8.454  0.2530  0.0093  0.0282
   62CHL1  H26A 7062   3.839   1.939   8.351  0.3127 -0.3971 -0.1397
   62CHL1  H26B 7063   3.922   1.949   8.514  1.2003 -0.7231 -0.5514
   62CHL1  H26C 7064   3.883   1.794   8.458 -2.3899 -1.0114 -0.3020
   62CHL1   C27 7065   3.602   1.833   8.448  0.1976 -0.3859 -0.6245
   62CHL1  H27A 7066   3.502   1.837   8.497  0.1404 -1.8459 -0.6005
   62CHL1  H27B 7067   3.587   1.889   8.353  0.6935  2.6552  0.9940
   62CHL1  H27C 7068   3.626   1.726   8.431 -2.2780 -1.1868  0.6915
   63CHL1    C3 7069   5.625   2.756  10.180 -0.6494  0.6220  0.3491
   63CHL1    H3 7070   5.734   2.737  10.170 -0.2850  1.6451  2.1819
   63CHL1    O3 7071   5.621   2.775  10.317 -0.0449  0.4100 -0.1795
   63CHL1   H3' 7072   5.651   2.693  10.356 -0.1067  0.4532 -0.0411
   63CHL1    C4 7073   5.595   2.883  10.097 -0.8304  0.1819 -0.5989
   63CHL1   H4A 7074   5.491   2.915  10.119 -0.4907 -0.1981  1.6679
   63CHL1   H4B 7075   5.664   2.967  10.116 -1.4885  1.1405 -2.3315
   63CHL1    C5 7076   5.606   2.859   9.950  0.0156  0.0798 -0.0220
   63CHL1    C6 7077   5.674   2.943   9.870  0.0615  0.9912 -0.1901
   63CHL1    H6 7078   5.725   3.033   9.909 -0.4959  0.3323  2.1230
   63CHL1    C7 7079   5.681   2.928   9.720  0.7545 -0.3041 -0.2696
   63CHL1   H7A 7080   5.653   3.021   9.668 -0.7314 -0.7439 -0.2669
   63CHL1   H7B 7081   5.788   2.907   9.698  0.3449 -1.8286 -0.8807
   63CHL1    C8 7082   5.597   2.819   9.662  0.4412  0.5424 -1.1083
   63CHL1    H8 7083   5.498   2.865   9.644  0.5426  0.4730 -1.8437
   63CHL1   C14 7084   5.655   2.772   9.532 -0.3502 -0.1021  0.9043
   63CHL1   H14 7085   5.747   2.716   9.559  1.0509  1.5321 -0.3479
   63CHL1   C15 7086   5.696   2.879   9.430  0.5309 -0.4133  0.8276
   63CHL1  H15A 7087   5.626   2.964   9.417  0.8317  0.0378  2.0346
   63CHL1  H15B 7088   5.799   2.922   9.435  0.0221  0.8423  0.5478
   63CHL1   C16 7089   5.680   2.810   9.288 -0.1869  0.1115  1.0465
   63CHL1  H16A 7090   5.593   2.853   9.234  0.2456 -1.1811 -0.7067
   63CHL1  H16B 7091   5.774   2.827   9.232 -1.1612  0.6799 -0.4505
   63CHL1   C17 7092   5.647   2.660   9.323 -0.2538 -0.1098  0.2446
   63CHL1   H17 7093   5.737   2.606   9.358  0.6197  0.7502 -0.6289
   63CHL1   C13 7094   5.568   2.673   9.453  0.4787 -0.2709 -0.2596
   63CHL1   C18 7095   5.422   2.732   9.423  0.0828  0.2921  0.2103
   63CHL1  H18A 7096   5.366   2.762   9.514  2.0500 -1.0151  1.8999
   63CHL1  H18B 7097   5.421   2.834   9.378  1.2208  0.4979  0.6053
   63CHL1  H18C 7098   5.358   2.659   9.370 -1.1886  0.1771  1.8591
   63CHL1   C12 7099   5.547   2.548   9.540 -0.0845  0.1882  0.5020
   63CHL1  H12A 7100   5.463   2.492   9.493  1.6473 -2.1963  0.1428
   63CHL1  H12B 7101   5.645   2.495   9.537  0.2144  0.7679  0.1780
   63CHL1   C11 7102   5.492   2.587   9.679  0.2625 -0.0333  0.4551
   63CHL1  H11A 7103   5.382   2.598   9.680  0.2078 -0.1156 -1.8203
   63CHL1  H11B 7104   5.522   2.498   9.739  1.3247  1.0909  1.6125
   63CHL1    C9 7105   5.578   2.694   9.746 -0.3543 -0.4454  0.0475
   63CHL1    H9 7106   5.677   2.647   9.767  1.2797  3.3953  1.4101
   63CHL1   C10 7107   5.534   2.731   9.895  0.0332  0.5252 -0.0095
   63CHL1   C19 7108   5.377   2.742   9.893 -0.3232  0.3666  0.3928
   63CHL1  H19A 7109   5.329   2.644   9.872  1.3795 -0.4132 -0.0309
   63CHL1  H19B 7110   5.353   2.790   9.990 -1.0146  0.2932  0.2574
   63CHL1  H19C 7111   5.337   2.804   9.810  0.5918 -0.6562 -0.8331
   63CHL1    C1 7112   5.565   2.610   9.989 -0.7929 -0.1667 -0.3077
   63CHL1   H1A 7113   5.517   2.515   9.956 -3.0138  0.4313  1.0861
   63CHL1   H1B 7114   5.673   2.587   9.992 -0.3351  1.5345 -2.4464
   63CHL1    C2 7115   5.539   2.636  10.140 -0.5343  0.1888  0.8219
   63CHL1   H2A 7116   5.572   2.551  10.203  0.2879  1.7451  2.5768
   63CHL1   H2B 7117   5.430   2.654  10.156 -0.2997  3.6540 -0.9649
   63CHL1   C20 7118   5.578   2.575   9.206  0.2998  0.0263  0.2390
   63CHL1   H20 7119   5.476   2.612   9.182 -0.5544 -2.1028  0.5245
   63CHL1   C21 7120   5.573   2.429   9.251 -0.7472 -0.1769 -0.2657
   63CHL1  H21A 7121   5.657   2.389   9.312 -1.6039 -1.7443 -0.0622
   63CHL1  H21B 7122   5.552   2.359   9.167  0.3149 -2.5839  1.3999
   63CHL1  H21C 7123   5.485   2.419   9.318  0.1722 -0.7776  0.8769
   63CHL1   C22 7124   5.663   2.589   9.077  0.7269 -0.5944  0.4785
   63CHL1  H22A 7125   5.660   2.699   9.060 -1.5692 -0.7585 -0.3713
   63CHL1  H22B 7126   5.762   2.547   9.103  0.8534 -1.4617 -1.3411
   63CHL1   C23 7127   5.608   2.518   8.942 -0.5027 -0.0625  0.1210
   63CHL1  H23A 7128   5.676   2.570   8.871  2.1330 -2.3487  0.8743
   63CHL1  H23B 7129   5.611   2.407   8.930 -1.9394  0.1004 -2.1571
   63CHL1   C24 7130   5.467   2.551   8.903  0.0447  0.1956 -0.2146
   63CHL1  H24A 7131   5.407   2.510   8.987 -2.4144  1.7161 -1.1772
   63CHL1  H24B 7132   5.448   2.661   8.907  2.6727  0.6541  0.0910
   63CHL1   C25 7133   5.431   2.489   8.766 -0.3421 -0.3401  0.2601
   63CHL1   H25 7134   5.467   2.384   8.770  0.0781 -0.2205 -0.2575
   63CHL1   C26 7135   5.279   2.493   8.743 -0.6568 -0.4177 -0.4439
   63CHL1  H26A 7136   5.210   2.447   8.817 -3.1867  1.6371 -1.4158
   63CHL1  H26B 7137   5.235   2.595   8.735 -1.2981 -0.6496  0.0266
   63CHL1  H26C 7138   5.255   2.434   8.652 -1.7974  2.7619 -2.2825
   63CHL1   C27 7139   5.480   2.552   8.641  0.2148 -0.1932 -0.4843
   63CHL1  H27A 7140   5.440   2.509   8.547 -0.4272 -0.9673  0.1460
   63CHL1  H27B 7141   5.447   2.658   8.637 -0.3233 -0.3193  0.5322
   63CHL1  H27C 7142   5.590   2.551   8.622  0.3755  0.5623  0.3542
   64CHL1    C3 7143   4.926   2.343  10.236  0.6021  0.4837  0.2790
   64CHL1    H3 7144   4.977   2.245  10.236 -2.3179 -1.1337 -2.2433
   64CHL1    O3 7145   4.961   2.407  10.355 -0.3035 -0.0634 -0.4817
   64CHL1   H3' 7146   4.908   2.357  10.417 -1.6642  0.7159 -1.0133
   64CHL1    C4 7147   4.964   2.435  10.115 -0.7400  0.0527  0.2524
   64CHL1   H4A 7148   4.908   2.525  10.147 -0.4771  0.3070 -0.0061
   64CHL1   H4B 7149   5.072   2.458  10.127 -0.9159  2.2997 -2.0983
   64CHL1    C5 7150   4.926   2.383   9.977  0.6840 -0.8537 -0.0118
   64CHL1    C6 7151   5.006   2.364   9.873 -0.2044  0.7045  0.7765
   64CHL1    H6 7152   5.112   2.391   9.878 -0.0470  0.3608 -0.5142
   64CHL1    C7 7153   4.956   2.325   9.737 -0.5274 -0.7491 -0.7044
   64CHL1   H7A 7154   5.000   2.378   9.650 -0.5359 -0.2357 -0.3971
   64CHL1   H7B 7155   4.985   2.219   9.718 -2.0931 -1.1863 -0.7308
   64CHL1    C8 7156   4.801   2.335   9.718  0.3736  0.8777 -0.4188
   64CHL1    H8 7157   4.784   2.445   9.713  3.1024  1.4495  1.4918
   64CHL1   C14 7158   4.760   2.269   9.588 -0.3108 -0.2680  0.0447
   64CHL1   H14 7159   4.794   2.163   9.589  1.6455  0.3220 -1.1748
   64CHL1   C15 7160   4.834   2.318   9.454 -0.0868  0.1049 -0.6230
   64CHL1  H15A 7161   4.871   2.423   9.456  0.3685  0.0567 -3.7773
   64CHL1  H15B 7162   4.923   2.257   9.429 -0.3326 -0.6252  0.2535
   64CHL1   C16 7163   4.724   2.293   9.345 -0.7766  0.5817  0.5587
   64CHL1  H16A 7164   4.696   2.396   9.315  1.2327  0.2026 -2.8420
   64CHL1  H16B 7165   4.759   2.243   9.253 -1.2039  1.4519 -0.0853
   64CHL1   C17 7166   4.612   2.214   9.417 -0.5723 -0.0452  0.7916
   64CHL1   H17 7167   4.647   2.109   9.408  1.1192  0.7046 -2.0906
   64CHL1   C13 7168   4.613   2.264   9.558  0.6548 -0.3620  0.3597
   64CHL1   C18 7169   4.556   2.415   9.562 -0.7709  0.1313 -0.4095
   64CHL1  H18A 7170   4.608   2.478   9.488 -0.0518  0.0015 -0.0206
   64CHL1  H18B 7171   4.447   2.430   9.545 -0.9087 -1.3289 -0.9093
   64CHL1  H18C 7172   4.552   2.457   9.665 -0.2442 -0.2711 -0.2213
   64CHL1   C12 7173   4.540   2.191   9.672  0.3961  0.4074 -0.7036
   64CHL1  H12A 7174   4.430   2.193   9.658  0.3173  1.1265 -0.0487
   64CHL1  H12B 7175   4.580   2.088   9.657 -0.9048  0.1139 -2.2412
   64CHL1   C11 7176   4.584   2.238   9.809 -0.0077 -0.3461 -0.0228
   64CHL1  H11A 7177   4.521   2.327   9.826 -0.9307  0.4600 -6.5206
   64CHL1  H11B 7178   4.550   2.167   9.888 -3.0041  0.9389 -0.1372
   64CHL1    C9 7179   4.736   2.271   9.836  0.1548 -0.4994  0.5138
   64CHL1    H9 7180   4.781   2.169   9.840 -0.6054 -0.7938  1.8743
   64CHL1   C10 7181   4.773   2.348   9.970  0.6989 -0.6744 -0.2953
   64CHL1   C19 7182   4.702   2.483   9.982 -0.1134  0.0940 -0.0458
   64CHL1  H19A 7183   4.717   2.528  10.083 -0.0572  1.7876 -0.7993
   64CHL1  H19B 7184   4.739   2.558   9.909  0.8839  1.5737  1.9092
   64CHL1  H19C 7185   4.592   2.475   9.971 -0.2254 -0.6509  1.4153
   64CHL1    C1 7186   4.736   2.256  10.094  0.8285 -0.7097  0.8678
   64CHL1   H1A 7187   4.625   2.248  10.097  0.7060  0.3002 -0.3194
   64CHL1   H1B 7188   4.792   2.162  10.077  1.3740 -0.0061 -1.4594
   64CHL1    C2 7189   4.771   2.303  10.235  0.3598 -0.3290  0.2597
   64CHL1   H2A 7190   4.756   2.216  10.301 -2.3748 -1.7999 -2.1624
   64CHL1   H2B 7191   4.707   2.390  10.263 -0.9830 -0.9003 -0.9718
   64CHL1   C20 7192   4.479   2.225   9.338  0.2123  0.6797  0.5252
   64CHL1   H20 7193   4.447   2.330   9.319 -1.5805  0.4044  1.9625
   64CHL1   C21 7194   4.357   2.160   9.409  0.2962 -0.0924 -1.2376
   64CHL1  H21A 7195   4.338   2.231   9.493 -0.2747 -1.2345 -0.3948
   64CHL1  H21B 7196   4.387   2.063   9.453  1.0638  1.0560  0.8984
   64CHL1  H21C 7197   4.267   2.146   9.346  1.0601 -2.6874 -1.8122
   64CHL1   C22 7198   4.503   2.163   9.191  0.0976 -0.3693  0.0070
   64CHL1  H22A 7199   4.575   2.237   9.151 -2.0928  1.7622 -0.1600
   64CHL1  H22B 7200   4.551   2.065   9.212 -0.4983 -0.5805  0.4010
   64CHL1   C23 7201   4.394   2.155   9.091  0.5417  0.2146 -0.3623
   64CHL1  H23A 7202   4.349   2.054   9.104  0.3959  0.0976 -1.7042
   64CHL1  H23B 7203   4.317   2.232   9.112  0.3355  0.2603 -1.2823
   64CHL1   C24 7204   4.426   2.173   8.945  0.2760  0.5086  0.4109
   64CHL1  H24A 7205   4.472   2.273   8.934 -0.7870  0.9774  0.1449
   64CHL1  H24B 7206   4.504   2.099   8.916 -0.2365  0.1431 -0.0466
   64CHL1   C25 7207   4.301   2.147   8.853  0.2350 -0.2884 -0.2035
   64CHL1   H25 7208   4.208   2.191   8.893  0.0024  0.1784 -1.2335
   64CHL1   C26 7209   4.296   2.221   8.717  1.2791 -0.4577  0.0789
   64CHL1  H26A 7210   4.381   2.206   8.647  0.9837 -0.8187 -0.2084
   64CHL1  H26B 7211   4.200   2.198   8.666  1.6406 -0.8240 -0.4358
   64CHL1  H26C 7212   4.292   2.332   8.725 -0.8195 -0.4532 -0.7142
   64CHL1   C27 7213   4.270   1.996   8.832 -0.2518  0.8662 -0.1813
   64CHL1  H27A 7214   4.171   1.989   8.782 -0.8434  1.9542  0.8343
   64CHL1  H27B 7215   4.352   1.956   8.768  0.6544  3.2789 -0.6092
   64CHL1  H27C 7216   4.264   1.952   8.934 -0.3683  0.0353 -0.5421
   65CHL1    C3 7217   1.043   6.043  10.154 -0.8271 -0.3963 -0.3212
   65CHL1    H3 7218   0.977   5.962  10.117 -3.2060  0.6756  1.4097
   65CHL1    O3 7219   1.076   6.022  10.295  0.1219 -0.3848 -0.1301
   65CHL1   H3' 7220   1.136   6.095  10.308 -1.8309  1.6909 -2.1987
   65CHL1    C4 7221   1.172   6.036  10.077 -0.1311 -0.1360 -0.3851
   65CHL1   H4A 7222   1.235   6.117  10.120 -3.6458  1.8102  1.3279
   65CHL1   H4B 7223   1.224   5.942  10.103 -1.0087 -0.2183  1.0946
   65CHL1    C5 7224   1.160   6.056   9.926  0.7762  0.4507  0.5368
   65CHL1    C6 7225   1.210   5.970   9.835 -0.0267  0.5765  0.3404
   65CHL1    H6 7226   1.262   5.883   9.876 -1.0932  0.2938  1.1114
   65CHL1    C7 7227   1.199   5.986   9.685  0.0091  0.3498 -0.1302
   65CHL1   H7A 7228   1.299   5.980   9.635 -1.0168  1.4315 -2.4038
   65CHL1   H7B 7229   1.130   5.909   9.644 -1.0075 -0.4974  3.1068
   65CHL1    C8 7230   1.143   6.130   9.649  0.5403 -0.3161  0.1580
   65CHL1    H8 7231   1.235   6.193   9.653 -0.6441  1.6609 -1.8497
   65CHL1   C14 7232   1.084   6.132   9.505 -0.7301  1.1521  0.3475
   65CHL1   H14 7233   0.994   6.066   9.506  0.6040 -0.6882  1.1291
   65CHL1   C15 7234   1.162   6.068   9.395 -1.0693  0.4100 -0.4072
   65CHL1  H15A 7235   1.271   6.078   9.410 -0.8642 -1.0286 -0.8971
   65CHL1  H15B 7236   1.143   5.959   9.396  1.1966  0.0042  1.7440
   65CHL1   C16 7237   1.133   6.139   9.265  0.5020 -0.2417  0.6286
   65CHL1  H16A 7238   1.230   6.184   9.236  0.7496  0.0888  1.9361
   65CHL1  H16B 7239   1.084   6.087   9.181 -1.6480  1.6689  0.6636
   65CHL1   C17 7240   1.034   6.247   9.311  0.6707  0.4434 -0.4607
   65CHL1   H17 7241   0.934   6.200   9.308  0.7126  0.3670 -0.6442
   65CHL1   C13 7242   1.060   6.274   9.456  0.3089 -0.0230 -0.1376
   65CHL1   C18 7243   1.190   6.363   9.459  0.2189 -0.2483 -0.0435
   65CHL1  H18A 7244   1.279   6.317   9.411  1.5901  4.0446 -1.9308
   65CHL1  H18B 7245   1.171   6.461   9.409 -1.1558  0.1905  1.3093
   65CHL1  H18C 7246   1.215   6.386   9.565 -2.8338 -0.3490  0.7491
   65CHL1   C12 7247   0.947   6.339   9.545 -0.0946 -0.0090  0.5736
   65CHL1  H12A 7248   0.939   6.440   9.498 -0.4985 -1.2806 -2.1932
   65CHL1  H12B 7249   0.851   6.289   9.522  0.9083 -0.3861 -3.0251
   65CHL1   C11 7250   0.986   6.326   9.690  0.6067  0.1537  0.7362
   65CHL1  H11A 7251   1.062   6.407   9.699 -0.6727  1.7841 -2.1145
   65CHL1  H11B 7252   0.901   6.356   9.754  1.3738 -1.0160  2.3165
   65CHL1    C9 7253   1.040   6.188   9.740  0.1567 -0.4910 -0.6473
   65CHL1    H9 7254   0.952   6.123   9.721 -0.6861  0.2561  0.6691
   65CHL1   C10 7255   1.077   6.183   9.892  0.2329 -0.1205  0.4909
   65CHL1   C19 7256   1.172   6.306   9.917  0.2579  0.0681  0.3309
   65CHL1  H19A 7257   1.205   6.288  10.021 -0.7065 -1.7328  0.3583
   65CHL1  H19B 7258   1.261   6.298   9.851 -0.0025  2.4329 -0.3298
   65CHL1  H19C 7259   1.122   6.405   9.912 -0.0568  0.0207  2.1685
   65CHL1    C1 7260   0.949   6.204   9.978  0.6145  0.1636 -0.4171
   65CHL1   H1A 7261   0.918   6.311   9.969 -0.7324  0.0535  2.3478
   65CHL1   H1B 7262   0.867   6.136   9.944 -1.7118  0.9575  3.2562
   65CHL1    C2 7263   0.968   6.173  10.128 -0.2660 -0.3165  0.0401
   65CHL1   H2A 7264   0.867   6.150  10.170  0.5789 -2.4454  1.0061
   65CHL1   H2B 7265   1.020   6.262  10.168  0.9454 -0.8967 -0.2428
   65CHL1   C20 7266   1.038   6.352   9.205 -0.5114 -0.5947  0.6628
   65CHL1   H20 7267   1.131   6.411   9.210 -1.2067  0.3474  3.0251
   65CHL1   C21 7268   0.929   6.459   9.236  0.1253  0.0227  0.4965
   65CHL1  H21A 7269   0.831   6.419   9.271  0.4374 -1.8040 -0.6354
   65CHL1  H21B 7270   0.896   6.522   9.151 -2.5872 -0.0326  1.4485
   65CHL1  H21C 7271   0.967   6.525   9.317 -0.5343  0.1279  0.7264
   65CHL1   C22 7272   1.005   6.306   9.065 -0.7745 -0.6620  0.1445
   65CHL1  H22A 7273   1.008   6.390   8.992 -1.8150 -0.2273  0.5986
   65CHL1  H22B 7274   1.088   6.246   9.022 -0.6507  1.2536 -2.3883
   65CHL1   C23 7275   0.870   6.243   9.040 -0.8138 -0.0193  0.0672
   65CHL1  H23A 7276   0.867   6.146   9.095  1.4427  0.5253  1.2455
   65CHL1  H23B 7277   0.792   6.305   9.089 -1.6898 -0.9610 -0.1285
   65CHL1   C24 7278   0.832   6.227   8.893  0.7709 -0.1141  0.0635
   65CHL1  H24A 7279   0.726   6.194   8.885  1.1971 -1.9497  1.6133
   65CHL1  H24B 7280   0.838   6.326   8.843 -0.3928 -0.9974 -1.8707
   65CHL1   C25 7281   0.924   6.133   8.816  0.2939  0.3913 -0.2871
   65CHL1   H25 7282   1.013   6.187   8.776  1.5294 -0.2342  1.5578
   65CHL1   C26 7283   0.981   6.013   8.891 -0.9778  0.2839 -0.2800
   65CHL1  H26A 7284   1.049   6.054   8.969 -0.4322 -0.0848 -0.5605
   65CHL1  H26B 7285   0.911   5.949   8.949 -1.2640 -0.9336 -1.9421
   65CHL1  H26C 7286   1.052   5.958   8.825  0.3246 -0.2621  1.5129
   65CHL1   C27 7287   0.864   6.082   8.685 -0.3465 -0.0032  0.5535
   65CHL1  H27A 7288   0.834   6.168   8.622 -0.5585  0.4659  1.2797
   65CHL1  H27B 7289   0.932   6.007   8.639 -0.8730 -1.1188  1.5575
   65CHL1  H27C 7290   0.770   6.026   8.708 -0.3383  0.3133  1.3645
   66CHL1    C3 7291   5.630   4.356  10.518  0.1355 -0.0156  0.0397
   66CHL1    H3 7292   5.698   4.441  10.537  0.4484 -0.6987  2.0968
   66CHL1    O3 7293   5.623   4.275  10.631 -0.3524  0.5403  0.0189
   66CHL1   H3' 7294   5.634   4.189  10.591 -1.7674 -0.1693  1.0871
   66CHL1    C4 7295   5.490   4.397  10.468  0.3236  0.1458  0.4134
   66CHL1   H4A 7296   5.415   4.316  10.475 -2.4546  2.6892  1.4657
   66CHL1   H4B 7297   5.452   4.471  10.542  0.1096  1.0458 -0.5802
   66CHL1    C5 7298   5.486   4.456  10.326 -0.5143  0.2093  0.8802
   66CHL1    C6 7299   5.426   4.569  10.295 -0.7286 -0.4191 -0.2307
   66CHL1    H6 7300   5.374   4.620  10.378  0.9307 -0.7352  1.0314
   66CHL1    C7 7301   5.426   4.624  10.157  0.4280 -0.3317  0.0117
   66CHL1   H7A 7302   5.319   4.652  10.149  0.1606 -0.5926  2.2236
   66CHL1   H7B 7303   5.500   4.706  10.155 -0.1323  0.1631 -3.3145
   66CHL1    C8 7304   5.454   4.520  10.047 -0.1494  0.7134  0.0520
   66CHL1    H8 7305   5.366   4.458  10.021  0.1759  0.9290 -1.6346
   66CHL1   C14 7306   5.480   4.588   9.907  0.1088 -0.2707 -0.0401
   66CHL1   H14 7307   5.566   4.652   9.937  0.6657 -0.2455 -1.6327
   66CHL1   C15 7308   5.382   4.695   9.855  0.0205  0.3974  0.0907
   66CHL1  H15A 7309   5.280   4.655   9.873 -0.0433  0.2232 -0.6453
   66CHL1  H15B 7310   5.401   4.791   9.908  2.7261  0.1921 -0.4268
   66CHL1   C16 7311   5.394   4.703   9.707 -0.7508 -0.0211 -1.0510
   66CHL1  H16A 7312   5.301   4.660   9.664 -2.0970  0.5641  1.1813
   66CHL1  H16B 7313   5.405   4.807   9.671 -0.5515  0.1805 -0.4149
   66CHL1   C17 7314   5.523   4.618   9.680  0.2553  0.3725 -0.1561
   66CHL1   H17 7315   5.602   4.689   9.714  0.1424 -0.2315  1.3998
   66CHL1   C13 7316   5.512   4.500   9.786  0.3246  0.5263 -0.2860
   66CHL1   C18 7317   5.406   4.391   9.740 -0.0056  0.0580 -0.3308
   66CHL1  H18A 7318   5.309   4.442   9.728  0.5580  1.1972 -0.1057
   66CHL1  H18B 7319   5.456   4.327   9.664  1.4672  1.6419 -0.7344
   66CHL1  H18C 7320   5.392   4.326   9.829  1.3260 -0.9404 -0.8262
   66CHL1   C12 7321   5.641   4.435   9.823 -0.4425  0.4353  1.2189
   66CHL1  H12A 7322   5.672   4.353   9.755  1.7853  0.5300  2.0536
   66CHL1  H12B 7323   5.719   4.515   9.824 -0.2179  0.2627 -0.6840
   66CHL1   C11 7324   5.643   4.360   9.959 -0.1076 -0.1789  0.3411
   66CHL1  H11A 7325   5.578   4.274   9.934 -1.1188  1.1023 -1.5137
   66CHL1  H11B 7326   5.742   4.322   9.993 -0.4162 -0.6906  0.6630
   66CHL1    C9 7327   5.581   4.442  10.083  0.7602 -0.7558 -0.0165
   66CHL1    H9 7328   5.653   4.523  10.106  0.4939 -0.3975 -0.4407
   66CHL1   C10 7329   5.562   4.368  10.218 -0.5278 -0.0453  0.0968
   66CHL1   C19 7330   5.474   4.242  10.184 -0.4970  0.1704  0.1990
   66CHL1  H19A 7331   5.391   4.263  10.114 -0.7620  3.9911  1.5245
   66CHL1  H19B 7332   5.546   4.169  10.141 -0.5256  0.7342 -0.8051
   66CHL1  H19C 7333   5.438   4.202  10.282 -0.7448  0.2902  0.1545
   66CHL1    C1 7334   5.700   4.330  10.275  0.5947 -0.8300 -0.0581
   66CHL1   H1A 7335   5.754   4.256  10.211  0.0815 -0.3703 -1.0313
   66CHL1   H1B 7336   5.762   4.422  10.279  0.8979 -0.9448 -1.7709
   66CHL1    C2 7337   5.705   4.270  10.415 -0.4968 -0.2191 -0.1934
   66CHL1   H2A 7338   5.809   4.262  10.454 -0.0610  1.2045 -1.0484
   66CHL1   H2B 7339   5.651   4.175  10.397 -0.7850 -0.0428 -0.2499
   66CHL1   C20 7340   5.540   4.585   9.534  0.2217  0.3372 -0.1436
   66CHL1   H20 7341   5.456   4.521   9.500  1.3742 -1.6365  0.6318
   66CHL1   C21 7342   5.663   4.503   9.502 -0.1203  0.2509 -0.5847
   66CHL1  H21A 7343   5.663   4.468   9.396  0.4290 -1.3761 -0.0625
   66CHL1  H21B 7344   5.676   4.420   9.574 -1.6751  2.2612  2.1021
   66CHL1  H21C 7345   5.747   4.574   9.518 -0.5957  1.0451 -1.5514
   66CHL1   C22 7346   5.537   4.708   9.437 -0.1576  0.1284 -0.2334
   66CHL1  H22A 7347   5.458   4.781   9.466  1.0265  1.1033  0.6147
   66CHL1  H22B 7348   5.631   4.768   9.439 -1.1613  1.6824  1.3303
   66CHL1   C23 7349   5.502   4.680   9.287  0.3948  0.0136 -0.1121
   66CHL1  H23A 7350   5.575   4.608   9.245  0.5211 -0.6097  1.1240
   66CHL1  H23B 7351   5.407   4.623   9.287  1.2417 -1.4550  1.3807
   66CHL1   C24 7352   5.480   4.804   9.200 -0.9920 -0.1180 -0.6558
   66CHL1  H24A 7353   5.409   4.878   9.243 -2.3226 -1.5142 -0.3641
   66CHL1  H24B 7354   5.581   4.849   9.203 -1.2179  0.3733 -0.3549
   66CHL1   C25 7355   5.431   4.776   9.059  0.7515 -0.7940 -0.7319
   66CHL1   H25 7356   5.333   4.726   9.077 -0.4176  1.8715  0.6902
   66CHL1   C26 7357   5.400   4.917   8.998 -0.3084 -0.4478  0.3398
   66CHL1  H26A 7358   5.494   4.977   8.990  0.3417 -1.5144 -0.1466
   66CHL1  H26B 7359   5.369   4.906   8.892  0.9114 -1.7062  0.1075
   66CHL1  H26C 7360   5.327   4.978   9.056 -0.6794  0.1095 -0.6809
   66CHL1   C27 7361   5.538   4.695   8.976 -0.5512  0.0449 -0.0180
   66CHL1  H27A 7362   5.631   4.750   8.950 -0.5540 -0.6269 -1.4827
   66CHL1  H27B 7363   5.572   4.604   9.030  1.7611  0.5138 -0.6137
   66CHL1  H27C 7364   5.487   4.677   8.879 -1.4029  0.5392  0.3322
   67CHL1    C3 7365   2.773   5.109  10.375 -0.4828 -0.2331 -0.0801
   67CHL1    H3 7366   2.862   5.057  10.335  1.4181  1.1649  2.2026
   67CHL1    O3 7367   2.786   5.124  10.514  0.3449  0.4685 -0.6358
   67CHL1   H3' 7368   2.859   5.186  10.519  1.0983 -0.2922 -1.9237
   67CHL1    C4 7369   2.764   5.250  10.306  0.0760 -0.5293  1.1358
   67CHL1   H4A 7370   2.675   5.310  10.335  0.7816  0.4767  1.2577
   67CHL1   H4B 7371   2.859   5.305  10.326 -0.6101  1.5579 -1.0523
   67CHL1    C5 7372   2.751   5.236  10.157  0.1505 -0.0347  0.2506
   67CHL1    C6 7373   2.838   5.298  10.073 -0.8644  0.0805 -1.4732
   67CHL1    H6 7374   2.920   5.359  10.115 -2.0910 -1.3048  3.1773
   67CHL1    C7 7375   2.837   5.297   9.923 -0.2757 -0.3929  0.2612
   67CHL1   H7A 7376   2.843   5.398   9.877 -0.3988 -0.4587  0.1005
   67CHL1   H7B 7377   2.923   5.237   9.888 -0.5590  0.3971 -1.9108
   67CHL1    C8 7378   2.708   5.230   9.875 -0.3419  0.0037 -0.0694
   67CHL1    H8 7379   2.627   5.304   9.891  0.3842  0.4274  1.7203
   67CHL1   C14 7380   2.726   5.194   9.724  0.6216 -0.1705  0.7033
   67CHL1   H14 7381   2.810   5.123   9.732  0.9625  0.0367 -0.9993
   67CHL1   C15 7382   2.766   5.307   9.628  0.2117  0.3279  0.3868
   67CHL1  H15A 7383   2.731   5.409   9.654  1.4672  1.1694 -1.2150
   67CHL1  H15B 7384   2.875   5.323   9.630  0.1793  0.6061 -0.0928
   67CHL1   C16 7385   2.721   5.258   9.493 -0.4102 -0.4046 -0.9029
   67CHL1  H16A 7386   2.651   5.336   9.454  0.2601 -0.0965 -1.5147
   67CHL1  H16B 7387   2.802   5.244   9.418 -1.1813  0.1012 -1.8368
   67CHL1   C17 7388   2.649   5.127   9.509 -0.7337  0.3772 -0.0855
   67CHL1   H17 7389   2.731   5.053   9.502 -2.0321 -0.9865 -1.1327
   67CHL1   C13 7390   2.607   5.122   9.661 -1.4131  0.3065 -0.1998
   67CHL1   C18 7391   2.466   5.196   9.680 -0.6185  0.4834 -0.4769
   67CHL1  H18A 7392   2.474   5.304   9.655 -0.9085  0.5640 -0.2264
   67CHL1  H18B 7393   2.385   5.140   9.628 -0.3071 -2.5899  2.1977
   67CHL1  H18C 7394   2.432   5.199   9.786 -3.7489 -0.0828 -1.4139
   67CHL1   C12 7395   2.586   4.988   9.741 -0.8460  0.3994 -0.0570
   67CHL1  H12A 7396   2.501   4.936   9.691 -0.9870  0.2240  0.3564
   67CHL1  H12B 7397   2.667   4.915   9.725  1.6731  2.6347  2.0157
   67CHL1   C11 7398   2.561   5.021   9.889 -0.1202  0.4898  0.0656
   67CHL1  H11A 7399   2.458   5.057   9.912  0.0715  0.5267  0.8908
   67CHL1  H11B 7400   2.556   4.923   9.941  1.6355  0.0867 -0.5028
   67CHL1    C9 7401   2.672   5.109   9.956 -0.3919 -0.6118 -0.1440
   67CHL1    H9 7402   2.765   5.048   9.951 -0.9926 -1.7208  1.7839
   67CHL1   C10 7403   2.646   5.138  10.106  0.2255 -0.7597  0.0686
   67CHL1   C19 7404   2.510   5.226  10.125 -0.0193  0.4778  0.3183
   67CHL1  H19A 7405   2.512   5.319  10.065  2.1641  1.2714  1.5751
   67CHL1  H19B 7406   2.425   5.161  10.093  0.4934 -0.6786  1.2490
   67CHL1  H19C 7407   2.499   5.259  10.230  1.2343  0.9926  0.2940
   67CHL1    C1 7408   2.634   5.010  10.196  0.0806 -0.2417  1.0294
   67CHL1   H1A 7409   2.541   4.951  10.180 -0.5853  0.3128  2.7433
   67CHL1   H1B 7410   2.712   4.935  10.173 -1.9005 -2.9759  2.9539
   67CHL1    C2 7411   2.651   5.026  10.346  0.0320  0.5969 -0.4271
   67CHL1   H2A 7412   2.657   4.928  10.396  2.7076  0.9413  0.0468
   67CHL1   H2B 7413   2.565   5.088  10.378  0.1284  1.3771 -1.6255
   67CHL1   C20 7414   2.543   5.107   9.402  0.1931 -0.4043  0.0040
   67CHL1   H20 7415   2.453   5.167   9.424 -0.1450 -1.3519  1.2766
   67CHL1   C21 7416   2.496   4.961   9.412  0.3797 -0.1747 -0.5658
   67CHL1  H21A 7417   2.436   4.936   9.502  0.1015 -2.0194 -1.2415
   67CHL1  H21B 7418   2.587   4.898   9.401  0.9988  0.7583 -0.8228
   67CHL1  H21C 7419   2.429   4.943   9.324  0.7360  2.4991 -1.4275
   67CHL1   C22 7420   2.607   5.138   9.265 -0.1144  0.2474  0.0416
   67CHL1  H22A 7421   2.628   5.246   9.247  2.0124 -0.4317 -1.7739
   67CHL1  H22B 7422   2.704   5.088   9.246 -1.0141 -0.9322 -1.5367
   67CHL1   C23 7423   2.520   5.097   9.145 -0.5429 -0.0095 -0.1251
   67CHL1  H23A 7424   2.540   4.988   9.136  0.2729 -0.0339  1.6797
   67CHL1  H23B 7425   2.415   5.120   9.173 -0.5019  2.3915 -1.8186
   67CHL1   C24 7426   2.566   5.163   9.012  0.4788 -0.3291  0.0539
   67CHL1  H24A 7427   2.557   5.273   9.020 -0.3737 -0.4851  1.4845
   67CHL1  H24B 7428   2.668   5.131   8.982  0.4740  0.7714 -1.1509
   67CHL1   C25 7429   2.472   5.140   8.893  1.0864 -0.3033  0.4894
   67CHL1   H25 7430   2.367   5.163   8.921  0.4462  1.1424 -2.8810
   67CHL1   C26 7431   2.515   5.225   8.773 -0.1341 -0.1148 -0.1719
   67CHL1  H26A 7432   2.616   5.194   8.739 -0.9005  1.3047 -3.9752
   67CHL1  H26B 7433   2.447   5.228   8.685 -1.6358  0.0401  0.9930
   67CHL1  H26C 7434   2.521   5.331   8.803  3.1218  0.0129 -1.0930
   67CHL1   C27 7435   2.461   4.987   8.857 -0.0150  0.1093  0.0370
   67CHL1  H27A 7436   2.560   4.955   8.817 -0.1978 -1.3085  0.6765
   67CHL1  H27B 7437   2.425   4.921   8.939 -0.4936 -1.9547 -1.7753
   67CHL1  H27C 7438   2.386   4.976   8.776 -0.2523 -0.7307  0.3604
   68CHL1    C3 7439   1.019   5.447  10.281  0.5502  0.1398 -0.1518
   68CHL1    H3 7440   1.058   5.347  10.255  1.7632 -0.1772  2.6654
   68CHL1    O3 7441   1.041   5.472  10.420  0.3465 -0.2959 -0.2316
   68CHL1   H3' 7442   1.117   5.530  10.426  1.4216 -1.7689  0.5555
   68CHL1    C4 7443   1.075   5.556  10.188 -0.1157 -0.7949 -0.1284
   68CHL1   H4A 7444   1.053   5.655  10.235  0.4582 -0.9656  0.5073
   68CHL1   H4B 7445   1.185   5.544  10.191 -0.2903 -2.1815  1.1111
   68CHL1    C5 7446   1.033   5.566  10.041  1.6111  0.6658 -0.0838
   68CHL1    C6 7447   1.125   5.576   9.947 -0.2084 -0.1855  0.9370
   68CHL1    H6 7448   1.232   5.575   9.973 -0.1863 -0.2437  0.8449
   68CHL1    C7 7449   1.100   5.583   9.793  0.1589  0.9397  0.5842
   68CHL1   H7A 7450   1.156   5.667   9.747 -0.0739 -0.1689 -1.7812
   68CHL1   H7B 7451   1.139   5.490   9.748  0.2530  1.9071 -1.3962
   68CHL1    C8 7452   0.948   5.592   9.759 -0.5080  0.1368 -0.5070
   68CHL1    H8 7453   0.919   5.697   9.776  1.5162  0.2729  2.5307
   68CHL1   C14 7454   0.922   5.557   9.616  0.2403 -0.5394  0.3827
   68CHL1   H14 7455   0.938   5.448   9.601 -1.2622 -0.5589 -1.3143
   68CHL1   C15 7456   0.999   5.621   9.498  1.0056  0.0655  0.1152
   68CHL1  H15A 7457   1.003   5.731   9.514  2.3600 -0.3041  2.4479
   68CHL1  H15B 7458   1.099   5.577   9.476  1.2572  0.3307  0.7381
   68CHL1   C16 7459   0.910   5.604   9.375  0.0424  0.5044  0.3352
   68CHL1  H16A 7460   0.884   5.694   9.315  0.0878  0.3516  0.0877
   68CHL1  H16B 7461   0.959   5.526   9.313  0.2544 -0.2924  1.4831
   68CHL1   C17 7462   0.769   5.537   9.430 -0.4363  0.1369 -0.5643
   68CHL1   H17 7463   0.784   5.427   9.425  2.5818  0.4955 -0.1550
   68CHL1   C13 7464   0.771   5.583   9.582 -0.9002 -0.3218  0.4897
   68CHL1   C18 7465   0.736   5.737   9.579  0.2280  1.5859 -0.3687
   68CHL1  H18A 7466   0.816   5.796   9.530  1.2773 -2.2944 -3.5865
   68CHL1  H18B 7467   0.641   5.753   9.525 -1.9375 -1.1423  2.4626
   68CHL1  H18C 7468   0.724   5.787   9.678  0.5840 -0.9148  0.9739
   68CHL1   C12 7469   0.691   5.495   9.677 -0.3672 -0.0791  0.2259
   68CHL1  H12A 7470   0.583   5.515   9.660 -0.6594 -1.9743 -0.2422
   68CHL1  H12B 7471   0.704   5.386   9.661 -2.1215  0.1183 -2.9409
   68CHL1   C11 7472   0.712   5.515   9.824 -0.4297  0.1504  0.3313
   68CHL1  H11A 7473   0.658   5.610   9.845 -0.7833  0.1837 -0.7083
   68CHL1  H11B 7474   0.663   5.434   9.883  2.6264 -1.8022  0.2935
   68CHL1    C9 7475   0.863   5.510   9.858 -0.8604 -0.2362  0.5306
   68CHL1    H9 7476   0.886   5.401   9.847  0.2360  0.0374  0.0385
   68CHL1   C10 7477   0.883   5.538  10.009 -0.1240  0.6989  0.5781
   68CHL1   C19 7478   0.813   5.671  10.048  0.3231 -0.2935 -0.1780
   68CHL1  H19A 7479   0.831   5.751   9.973  2.7111  1.5074  2.2357
   68CHL1  H19B 7480   0.705   5.645  10.047  0.8636 -2.7367  0.9364
   68CHL1  H19C 7481   0.838   5.709  10.149 -1.0207  0.6517 -0.1862
   68CHL1    C1 7482   0.835   5.425  10.106 -0.0204  0.4296  0.4768
   68CHL1   H1A 7483   0.725   5.421  10.095 -0.1460  1.0821  1.4246
   68CHL1   H1B 7484   0.887   5.331  10.077  1.0282  1.5784 -1.4114
   68CHL1    C2 7485   0.865   5.454  10.256  0.5860  0.1172  0.4615
   68CHL1   H2A 7486   0.818   5.374  10.317  1.0002 -0.8208 -0.4244
   68CHL1   H2B 7487   0.811   5.546  10.286 -1.1271 -0.1344 -1.6601
   68CHL1   C20 7488   0.649   5.561   9.329 -0.4452  0.2116 -0.1533
   68CHL1   H20 7489   0.653   5.670   9.312 -1.3718  0.1867 -0.5795
   68CHL1   C21 7490   0.516   5.503   9.380  0.5614  0.2658  0.1141
   68CHL1  H21A 7491   0.539   5.405   9.428  1.4896  0.8724  0.9176
   68CHL1  H21B 7492   0.431   5.501   9.308  0.2853  2.0154  0.3837
   68CHL1  H21C 7493   0.479   5.567   9.463  0.4684  0.9844 -0.4780
   68CHL1   C22 7494   0.669   5.496   9.194 -0.3374  0.1394 -0.6318
   68CHL1  H22A 7495   0.773   5.506   9.157 -1.2501 -0.5192 -3.4532
   68CHL1  H22B 7496   0.655   5.387   9.208  0.8219 -0.2953 -2.6295
   68CHL1   C23 7497   0.577   5.538   9.082  0.4833  0.7153  0.5230
   68CHL1  H23A 7498   0.587   5.471   8.993 -1.1233  1.3170 -0.1323
   68CHL1  H23B 7499   0.469   5.536   9.108  0.6729 -0.4042  1.2744
   68CHL1   C24 7500   0.613   5.678   9.030  0.0869  0.3672  0.0504
   68CHL1  H24A 7501   0.609   5.742   9.121  1.1162  0.4653  0.0340
   68CHL1  H24B 7502   0.713   5.688   8.982 -0.8727 -0.2678 -2.1095
   68CHL1   C25 7503   0.502   5.731   8.930  0.6382 -0.6668  0.5194
   68CHL1   H25 7504   0.481   5.650   8.856 -0.4071  1.0458 -1.1021
   68CHL1   C26 7505   0.367   5.777   8.997 -0.0992 -0.2269  0.4203
   68CHL1  H26A 7506   0.299   5.799   8.911  1.5369 -1.5250 -1.2332
   68CHL1  H26B 7507   0.327   5.706   9.072 -2.3412 -0.4650 -0.9369
   68CHL1  H26C 7508   0.376   5.874   9.052 -0.4206 -0.1013  0.2576
   68CHL1   C27 7509   0.562   5.841   8.838 -0.2617 -0.3801  0.3165
   68CHL1  H27A 7510   0.494   5.861   8.752 -1.7715 -0.4006  1.4833
   68CHL1  H27B 7511   0.580   5.935   8.894  0.1188  0.3461 -0.9907
   68CHL1  H27C 7512   0.660   5.800   8.804 -0.5843 -2.1785  1.5196
   69CHL1    C3 7513   0.144   3.780   6.770 -0.1743 -0.0996 -0.3696
   69CHL1    H3 7514   0.114   3.872   6.825 -0.9021 -0.5748  0.0256
   69CHL1    O3 7515   0.114   3.790   6.631  0.0964  0.0254 -0.1247
   69CHL1   H3' 7516   0.184   3.746   6.582 -0.0520 -0.8255  0.4216
   69CHL1    C4 7517   0.298   3.761   6.795 -0.1396 -0.1660  0.0172
   69CHL1   H4A 7518   0.340   3.673   6.741  0.3728  1.4394 -2.3011
   69CHL1   H4B 7519   0.358   3.842   6.748 -0.7841 -0.2441 -0.9546
   69CHL1    C5 7520   0.316   3.741   6.945  0.3834  0.4562  0.1150
   69CHL1    C6 7521   0.406   3.818   7.003  0.0589 -0.0173  0.1220
   69CHL1    H6 7522   0.460   3.897   6.950  1.3067 -1.4520 -0.7638
   69CHL1    C7 7523   0.431   3.816   7.147 -0.2391 -0.5778 -0.5289
   69CHL1   H7A 7524   0.538   3.803   7.174 -0.5615 -2.5928 -0.1024
   69CHL1   H7B 7525   0.385   3.910   7.185 -1.4640 -1.3716 -0.0115
   69CHL1    C8 7526   0.368   3.690   7.216  0.1342  0.2955  0.9039
   69CHL1    H8 7527   0.434   3.602   7.197  0.0624  0.7504 -1.6817
   69CHL1   C14 7528   0.369   3.710   7.369 -0.0049 -0.0000 -0.0511
   69CHL1   H14 7529   0.297   3.792   7.388 -1.7534 -1.4410 -0.3213
   69CHL1   C15 7530   0.496   3.756   7.442  0.2072 -0.6066  0.1406
   69CHL1  H15A 7531   0.585   3.698   7.407  0.0854  0.4587 -1.9842
   69CHL1  H15B 7532   0.516   3.865   7.433 -1.8037 -0.2297  0.0881
   69CHL1   C16 7533   0.463   3.722   7.592 -0.9005 -0.1966  0.0839
   69CHL1  H16A 7534   0.546   3.666   7.641  0.0909  2.6121  1.7347
   69CHL1  H16B 7535   0.450   3.812   7.656  1.4633  1.0516 -1.1369
   69CHL1   C17 7536   0.328   3.634   7.591 -0.3679 -0.2734  0.0147
   69CHL1   H17 7537   0.245   3.704   7.614 -0.1410 -0.1808  0.5540
   69CHL1   C13 7538   0.316   3.582   7.446  0.0414 -0.5027 -0.8260
   69CHL1   C18 7539   0.412   3.465   7.431 -0.7295  0.3845 -0.2395
   69CHL1  H18A 7540   0.383   3.381   7.498  0.0126 -0.3351 -0.7890
   69CHL1  H18B 7541   0.400   3.420   7.330  3.2678 -1.3084 -0.0610
   69CHL1  H18C 7542   0.517   3.498   7.446 -1.0836  1.2512  0.3100
   69CHL1   C12 7543   0.174   3.570   7.396  0.3301 -0.0476  0.8146
   69CHL1  H12A 7544   0.126   3.487   7.452 -1.7923  0.8378  0.3463
   69CHL1  H12B 7545   0.121   3.666   7.407 -2.6466 -1.4075 -0.9520
   69CHL1   C11 7546   0.167   3.538   7.245  0.2575  0.4941  0.2094
   69CHL1  H11A 7547   0.236   3.453   7.226 -1.9740 -1.2259 -0.4558
   69CHL1  H11B 7548   0.066   3.501   7.215  0.3727  0.1973  0.1791
   69CHL1    C9 7549   0.228   3.652   7.163  0.3463  0.1193  0.7345
   69CHL1    H9 7550   0.166   3.743   7.181 -1.1205 -0.6073 -0.4412
   69CHL1   C10 7551   0.222   3.636   7.010 -0.0253  0.2689  0.5842
   69CHL1   C19 7552   0.285   3.496   6.978 -0.7302  0.1511  0.4127
   69CHL1  H19A 7553   0.276   3.474   6.870  1.2635 -0.5876  0.3904
   69CHL1  H19B 7554   0.391   3.476   7.004 -0.4177  1.5499  0.2331
   69CHL1  H19C 7555   0.232   3.414   7.032  1.4590 -0.5590  1.5129
   69CHL1    C1 7556   0.069   3.646   6.968  0.3353 -0.1741  0.1212
   69CHL1   H1A 7557   0.008   3.560   7.004 -1.0293 -1.0182 -3.9677
   69CHL1   H1B 7558   0.026   3.736   7.017  0.4455 -0.5732  0.9585
   69CHL1    C2 7559   0.055   3.662   6.817  0.0201  0.0968 -0.4488
   69CHL1   H2A 7560  -0.049   3.689   6.789  0.6577  0.0770 -2.9697
   69CHL1   H2B 7561   0.084   3.569   6.763 -0.9195 -0.2201 -0.4240
   69CHL1   C20 7562   0.315   3.532   7.709 -0.5338 -0.2312 -0.7898
   69CHL1   H20 7563   0.387   3.448   7.697  0.5220  0.5300  0.1589
   69CHL1   C21 7564   0.170   3.493   7.725 -0.6212 -0.0294  0.7400
   69CHL1  H21A 7565   0.142   3.426   7.641 -0.0277  2.9663 -1.9159
   69CHL1  H21B 7566   0.101   3.580   7.717 -1.8130 -1.2299 -2.5624
   69CHL1  H21C 7567   0.139   3.450   7.824  1.0015 -0.7672  0.9431
   69CHL1   C22 7568   0.367   3.591   7.842  0.4431  0.1994  0.0175
   69CHL1  H22A 7569   0.330   3.516   7.915 -0.2322  2.5188  2.1517
   69CHL1  H22B 7570   0.478   3.597   7.839  0.4929 -1.1675 -1.2342
   69CHL1   C23 7571   0.299   3.724   7.874  0.0793  0.1563 -0.5035
   69CHL1  H23A 7572   0.296   3.797   7.790 -0.9777  2.3674  1.4020
   69CHL1  H23B 7573   0.195   3.693   7.897  0.1196  0.2915 -0.1361
   69CHL1   C24 7574   0.364   3.799   7.997 -0.1782  0.0534 -0.0207
   69CHL1  H24A 7575   0.473   3.798   7.976 -0.2531  3.8246 -0.7912
   69CHL1  H24B 7576   0.342   3.906   8.015  2.7189  0.5910  0.5955
   69CHL1   C25 7577   0.331   3.721   8.129 -0.3784 -0.1842 -0.2622
   69CHL1   H25 7578   0.374   3.620   8.114  1.3899  0.2630  1.6196
   69CHL1   C26 7579   0.416   3.784   8.247  0.2831 -0.0236 -0.0781
   69CHL1  H26A 7580   0.525   3.769   8.236  0.4733  1.5597 -0.3832
   69CHL1  H26B 7581   0.407   3.894   8.251  0.4420  0.0241 -1.1003
   69CHL1  H26C 7582   0.383   3.745   8.346  1.2977  0.3529  0.4141
   69CHL1   C27 7583   0.189   3.706   8.164 -0.3619 -0.5641 -0.2824
   69CHL1  H27A 7584   0.158   3.801   8.211  1.2154 -0.0548 -0.2480
   69CHL1  H27B 7585   0.122   3.688   8.077 -1.6157  0.3580  0.4818
   69CHL1  H27C 7586   0.175   3.622   8.236  0.1109  0.0173  0.4832
   70CHL1    C3 7587   6.215   0.493   7.089 -0.2984  0.1373  0.1681
   70CHL1    H3 7588   6.226   0.383   7.086  1.4663  0.3024 -0.6147
   70CHL1    O3 7589   6.246   0.541   6.959  0.1014  0.0881  0.6165
   70CHL1   H3' 7590   6.317   0.605   6.972 -1.2933  2.2686 -1.9244
   70CHL1    C4 7591   6.074   0.536   7.116 -0.4341  0.3044 -0.4093
   70CHL1   H4A 7592   6.063   0.645   7.103  0.2604  0.2584 -1.4969
   70CHL1   H4B 7593   6.000   0.495   7.044 -0.7930 -0.6742  0.4862
   70CHL1    C5 7594   6.028   0.514   7.263 -0.0573  0.7255  0.0236
   70CHL1    C6 7595   5.906   0.460   7.291  0.5193 -0.2615 -0.1649
   70CHL1    H6 7596   5.841   0.443   7.204  1.7633  1.4817 -1.4850
   70CHL1    C7 7597   5.856   0.437   7.433 -0.2914 -0.1973  0.4341
   70CHL1   H7A 7598   5.746   0.447   7.444 -0.2488  1.0433 -0.0893
   70CHL1   H7B 7599   5.879   0.332   7.460 -0.0966 -0.1961  0.2841
   70CHL1    C8 7600   5.934   0.520   7.541 -0.8115  0.5792  0.4330
   70CHL1    H8 7601   5.896   0.622   7.523 -0.1470  0.6380 -0.6220
   70CHL1   C14 7602   5.906   0.463   7.674 -0.3443  0.6893  0.5387
   70CHL1   H14 7603   5.945   0.359   7.675  0.1899  0.8773 -0.5779
   70CHL1   C15 7604   5.762   0.462   7.731 -0.1409  0.0573 -0.1144
   70CHL1  H15A 7605   5.715   0.558   7.703 -1.1027 -0.1882  0.6222
   70CHL1  H15B 7606   5.696   0.380   7.694  0.6792 -2.5390  3.7958
   70CHL1   C16 7607   5.782   0.457   7.887 -0.1739  0.6501  0.4170
   70CHL1  H16A 7608   5.730   0.548   7.925 -1.5596 -0.1363  0.4398
   70CHL1  H16B 7609   5.738   0.372   7.943 -0.0714 -0.5619 -1.3001
   70CHL1   C17 7610   5.939   0.475   7.914  0.1093 -0.0513  0.2728
   70CHL1   H17 7611   5.976   0.370   7.915  1.5424  0.4041 -1.5374
   70CHL1   C13 7612   5.995   0.533   7.782 -0.4015  0.6113 -0.0509
   70CHL1   C18 7613   5.960   0.684   7.774 -0.7736 -0.1641 -0.2446
   70CHL1  H18A 7614   5.970   0.739   7.678  2.0009 -0.6861 -0.2939
   70CHL1  H18B 7615   5.854   0.693   7.807 -0.6842  0.2594 -0.0732
   70CHL1  H18C 7616   6.025   0.738   7.846  0.6271 -0.2355 -1.4577
   70CHL1   C12 7617   6.144   0.509   7.768  0.7088  0.2198  0.1126
   70CHL1  H12A 7618   6.205   0.570   7.839 -0.3612  1.6171 -0.1586
   70CHL1  H12B 7619   6.164   0.401   7.787 -2.3812 -0.1495  1.5636
   70CHL1   C11 7620   6.187   0.547   7.627 -0.2035  0.5275  0.5826
   70CHL1  H11A 7621   6.200   0.657   7.625  5.0317  0.0788  2.3981
   70CHL1  H11B 7622   6.284   0.498   7.604 -0.5613 -0.0251  0.2202
   70CHL1    C9 7623   6.085   0.503   7.510  0.1323  0.3027  0.0605
   70CHL1    H9 7624   6.097   0.393   7.500  1.7145  0.3292  1.4272
   70CHL1   C10 7625   6.128   0.554   7.366 -0.2262  0.2125 -0.1723
   70CHL1   C19 7626   6.121   0.713   7.369  0.0820 -0.0522  0.3525
   70CHL1  H19A 7627   6.026   0.740   7.419  0.9788 -0.3952  2.2638
   70CHL1  H19B 7628   6.200   0.741   7.441  2.0635 -1.3565 -1.2577
   70CHL1  H19C 7629   6.137   0.758   7.268  0.6885  0.2801  0.5985
   70CHL1    C1 7630   6.275   0.520   7.333  0.4616 -0.7182  0.7000
   70CHL1   H1A 7631   6.346   0.566   7.405  2.5385 -0.7458 -1.2886
   70CHL1   H1B 7632   6.288   0.412   7.356 -2.2354 -1.6900 -1.9974
   70CHL1    C2 7633   6.316   0.552   7.189 -0.0615  0.1674 -0.2012
   70CHL1   H2A 7634   6.418   0.516   7.166  0.0194 -1.0783  1.9845
   70CHL1   H2B 7635   6.313   0.663   7.185  1.2212  0.2066 -0.2485
   70CHL1   C20 7636   5.976   0.553   8.040 -0.2957  0.3723 -0.8585
   70CHL1   H20 7637   6.042   0.638   8.012 -1.0460  2.1831  2.6013
   70CHL1   C21 7638   6.073   0.464   8.119  0.0483  0.2447  0.0636
   70CHL1  H21A 7639   6.020   0.391   8.184 -1.3122 -0.7315 -2.0868
   70CHL1  H21B 7640   6.151   0.525   8.170  0.1341  0.7765 -0.7047
   70CHL1  H21C 7641   6.122   0.403   8.041 -1.3691 -0.5080 -0.2554
   70CHL1   C22 7642   5.868   0.605   8.130 -0.2423  0.1077 -0.1221
   70CHL1  H22A 7643   5.810   0.674   8.066  1.9699  1.2410 -0.9787
   70CHL1  H22B 7644   5.803   0.519   8.157 -1.7587  1.1774 -0.3169
   70CHL1   C23 7645   5.914   0.685   8.250 -0.3651  0.3903 -0.2301
   70CHL1  H23A 7646   5.830   0.671   8.323 -0.4593 -1.2350 -0.6292
   70CHL1  H23B 7647   5.992   0.629   8.304 -0.2336  1.4609  0.7191
   70CHL1   C24 7648   5.953   0.830   8.204 -1.1637 -1.1644 -0.2186
   70CHL1  H24A 7649   6.033   0.817   8.129 -0.2273  2.1152  0.0996
   70CHL1  H24B 7650   5.868   0.886   8.159 -0.4962 -0.1349 -0.2105
   70CHL1   C25 7651   6.020   0.919   8.311 -0.2492 -1.0495 -0.3986
   70CHL1   H25 7652   5.955   0.957   8.393 -0.8917 -1.6112 -0.6403
   70CHL1   C26 7653   6.137   0.843   8.386 -0.8529  0.0627 -0.0134
   70CHL1  H26A 7654   6.219   0.896   8.439  0.2356 -2.6179  1.1043
   70CHL1  H26B 7655   6.084   0.773   8.455 -1.4086  1.7017  1.2472
   70CHL1  H26C 7656   6.190   0.778   8.312  0.6323  0.0062  1.0667
   70CHL1   C27 7657   6.064   1.050   8.246 -0.1598 -0.5428 -0.1399
   70CHL1  H27A 7658   5.977   1.098   8.197 -1.8592 -1.2867  2.0825
   70CHL1  H27B 7659   6.104   1.120   8.322 -0.9029 -3.8356  3.4082
   70CHL1  H27C 7660   6.144   1.029   8.172  0.6309  2.3873 -0.2081
   71CHL1    C3 7661   5.551   3.269   6.735  0.2511 -0.4347 -0.1845
   71CHL1    H3 7662   5.452   3.227   6.762  1.0699 -2.6153 -0.4001
   71CHL1    O3 7663   5.578   3.225   6.606  0.0301  0.2437  0.1849
   71CHL1   H3' 7664   5.492   3.192   6.578 -1.4602  3.0529  1.2308
   71CHL1    C4 7665   5.568   3.423   6.759  0.0868 -0.1007  0.0890
   71CHL1   H4A 7666   5.665   3.451   6.712 -1.2828 -1.8690 -4.0710
   71CHL1   H4B 7667   5.488   3.468   6.695  1.5328 -1.0758 -2.4888
   71CHL1    C5 7668   5.556   3.478   6.901  0.0609 -0.2265  0.2052
   71CHL1    C6 7669   5.470   3.568   6.946  0.8748 -0.2259  0.0643
   71CHL1    H6 7670   5.399   3.621   6.880  1.1265  1.4717  1.1458
   71CHL1    C7 7671   5.473   3.617   7.092 -0.8593  0.3122 -0.3024
   71CHL1   H7A 7672   5.459   3.726   7.108 -1.6073 -0.0227  1.4055
   71CHL1   H7B 7673   5.384   3.576   7.145 -1.0238 -1.7828 -2.0849
   71CHL1    C8 7674   5.598   3.575   7.170  0.4808  0.2322 -0.1074
   71CHL1    H8 7675   5.673   3.645   7.127 -0.2514  0.3572 -1.2029
   71CHL1   C14 7676   5.570   3.585   7.319 -0.1697  0.1575 -0.0571
   71CHL1   H14 7677   5.487   3.516   7.344 -1.0412  0.2343 -2.6465
   71CHL1   C15 7678   5.522   3.715   7.373 -0.3379  0.0268 -0.4519
   71CHL1  H15A 7679   5.598   3.786   7.335 -1.1076  0.4037 -1.3135
   71CHL1  H15B 7680   5.418   3.739   7.340 -0.6122  2.4951  2.0442
   71CHL1   C16 7681   5.535   3.705   7.529 -0.0227 -0.5082 -0.4952
   71CHL1  H16A 7682   5.584   3.798   7.565  0.1175 -1.3848  1.6643
   71CHL1  H16B 7683   5.437   3.686   7.577  0.1887 -2.0936 -0.6582
   71CHL1   C17 7684   5.631   3.583   7.552 -0.0822  0.0606  0.4590
   71CHL1   H17 7685   5.561   3.500   7.578 -1.9351  1.3478 -0.3430
   71CHL1   C13 7686   5.682   3.541   7.411 -0.1723  0.3425  0.1377
   71CHL1   C18 7687   5.816   3.617   7.374 -0.4598 -1.0692  0.5783
   71CHL1  H18A 7688   5.807   3.726   7.396  2.0393 -1.0696  1.7353
   71CHL1  H18B 7689   5.909   3.576   7.417  1.4828  1.4576 -1.0646
   71CHL1  H18C 7690   5.843   3.612   7.266  1.3652  1.2747  0.8854
   71CHL1   C12 7691   5.700   3.390   7.387 -0.4201 -0.0222  0.2078
   71CHL1  H12A 7692   5.780   3.343   7.448 -0.3064  0.7281  0.6419
   71CHL1  H12B 7693   5.609   3.335   7.420 -1.2559 -0.9057 -3.3499
   71CHL1   C11 7694   5.739   3.358   7.240  0.6286  0.2238  0.1005
   71CHL1  H11A 7695   5.838   3.404   7.218 -0.6545  2.8139 -0.5869
   71CHL1  H11B 7696   5.740   3.248   7.225 -1.2967  0.6137 -3.5525
   71CHL1    C9 7697   5.634   3.420   7.140 -0.0405  0.8896  0.0023
   71CHL1    H9 7698   5.543   3.370   7.178  0.9183  0.0575  1.2403
   71CHL1   C10 7699   5.655   3.396   6.985 -0.3075 -0.0157  0.2894
   71CHL1   C19 7700   5.803   3.442   6.956 -0.1704 -0.3537  0.7162
   71CHL1  H19A 7701   5.874   3.383   7.017  0.0345  0.5405  1.3533
   71CHL1  H19B 7702   5.831   3.410   6.853 -0.1030  0.7935  0.3688
   71CHL1  H19C 7703   5.824   3.550   6.969  0.9768 -0.6796  1.6654
   71CHL1    C1 7704   5.641   3.243   6.969 -0.4770  0.7463  0.1763
   71CHL1   H1A 7705   5.727   3.200   7.024  0.3664  0.9361 -0.9654
   71CHL1   H1B 7706   5.545   3.209   7.013  0.1065  0.2225  1.0642
   71CHL1    C2 7707   5.650   3.194   6.818  0.3472  0.5529  0.2311
   71CHL1   H2A 7708   5.630   3.085   6.822 -1.8108  0.8510 -1.4638
   71CHL1   H2B 7709   5.757   3.208   6.792  0.6121 -3.1635 -0.9176
   71CHL1   C20 7710   5.735   3.600   7.665 -0.4762 -0.2755 -0.4116
   71CHL1   H20 7711   5.808   3.681   7.644  0.6173 -1.2947 -0.6116
   71CHL1   C21 7712   5.810   3.465   7.690  0.4836  0.4187 -1.3639
   71CHL1  H21A 7713   5.739   3.385   7.722 -1.1982  1.2036 -3.0282
   71CHL1  H21B 7714   5.881   3.476   7.774  0.1345 -0.4709 -0.9374
   71CHL1  H21C 7715   5.873   3.437   7.602  0.2447  1.2449 -1.8060
   71CHL1   C22 7716   5.655   3.637   7.799 -0.0656 -0.5042  0.1040
   71CHL1  H22A 7717   5.620   3.741   7.782  1.6679 -0.2368 -2.1249
   71CHL1  H22B 7718   5.568   3.570   7.811 -0.9050  0.7098  0.8734
   71CHL1   C23 7719   5.746   3.643   7.930  0.6655 -0.3585 -0.0177
   71CHL1  H23A 7720   5.800   3.549   7.954 -0.6100 -0.8159  1.0822
   71CHL1  H23B 7721   5.819   3.726   7.917 -2.2190  2.2034 -0.3212
   71CHL1   C24 7722   5.657   3.678   8.049  0.9700  0.3652 -0.1557
   71CHL1  H24A 7723   5.593   3.766   8.027 -0.7713 -0.3481  1.9146
   71CHL1  H24B 7724   5.592   3.592   8.075  1.3071  0.0334 -0.4094
   71CHL1   C25 7725   5.736   3.699   8.181 -0.4917  0.3773  0.5206
   71CHL1   H25 7726   5.812   3.779   8.174  1.7774 -1.6681  1.1517
   71CHL1   C26 7727   5.637   3.758   8.283  0.5966  0.3729 -0.1884
   71CHL1  H26A 7728   5.561   3.679   8.303  0.2012  0.7183 -0.3227
   71CHL1  H26B 7729   5.692   3.776   8.378  0.1309 -1.0667  0.3609
   71CHL1  H26C 7730   5.581   3.849   8.253  0.1533  0.1166 -0.1492
   71CHL1   C27 7731   5.798   3.569   8.226 -0.2092 -0.1834 -0.4519
   71CHL1  H27A 7732   5.858   3.527   8.142  3.2518  3.0212  0.2686
   71CHL1  H27B 7733   5.867   3.600   8.308  1.6867 -1.3895 -1.5599
   71CHL1  H27C 7734   5.716   3.503   8.261 -0.4170 -0.4773 -1.4761
   72CHL1    C3 7735   6.463   1.078   7.316  0.0875  0.0350  0.0396
   72CHL1    H3 7736   6.573   1.072   7.326 -0.0075 -1.2075  0.4876
   72CHL1    O3 7737   6.415   1.128   7.193 -0.0831 -0.0095  0.6898
   72CHL1   H3' 7738   6.448   1.075   7.120 -2.1649 -0.2952 -0.0636
   72CHL1    C4 7739   6.406   0.937   7.349  0.6620  0.1127 -0.2240
   72CHL1   H4A 7740   6.296   0.954   7.349  0.6108 -0.2295  0.6158
   72CHL1   H4B 7741   6.431   0.869   7.265 -1.1274 -0.8754  0.0172
   72CHL1    C5 7742   6.452   0.889   7.484  0.1108 -0.2535 -0.0885
   72CHL1    C6 7743   6.523   0.778   7.504 -0.0480  0.1996 -0.0626
   72CHL1    H6 7744   6.554   0.714   7.420  1.0964  0.8624 -0.1580
   72CHL1    C7 7745   6.551   0.712   7.641  0.1633 -0.4541 -0.7069
   72CHL1   H7A 7746   6.521   0.605   7.648 -1.1864  0.1152  3.3151
   72CHL1   H7B 7747   6.662   0.713   7.652  0.0477 -2.4167  0.9003
   72CHL1    C8 7748   6.487   0.790   7.753  0.6012  0.1986  0.6982
   72CHL1    H8 7749   6.383   0.752   7.762  0.7986 -1.0233 -1.8223
   72CHL1   C14 7750   6.556   0.756   7.881  0.4621  0.5689  0.5024
   72CHL1   H14 7751   6.661   0.795   7.884  1.5626 -2.2076 -0.4946
   72CHL1   C15 7752   6.575   0.606   7.914 -0.0583  0.3491 -0.2293
   72CHL1  H15A 7753   6.482   0.552   7.888  0.6980 -0.9879 -0.2497
   72CHL1  H15B 7754   6.656   0.561   7.852 -1.1615 -1.6849 -0.2479
   72CHL1   C16 7755   6.609   0.604   8.066  0.0077 -0.5955  0.8178
   72CHL1  H16A 7756   6.544   0.537   8.126 -0.8454  0.7989  1.4549
   72CHL1  H16B 7757   6.714   0.570   8.079  0.2889 -1.4543 -3.0126
   72CHL1   C17 7758   6.576   0.759   8.111  0.2215 -0.3321 -0.4199
   72CHL1   H17 7759   6.675   0.810   8.111  0.2566 -0.3998 -0.2756
   72CHL1   C13 7760   6.491   0.822   8.000 -0.0600  0.5293  0.7690
   72CHL1   C18 7761   6.346   0.766   8.021  0.7701 -0.6481  0.2270
   72CHL1  H18A 7762   6.276   0.783   7.936 -1.6707 -1.7717  1.9724
   72CHL1  H18B 7763   6.345   0.656   8.032  2.0935 -0.6380  0.5793
   72CHL1  H18C 7764   6.292   0.809   8.107 -2.2151 -0.2763 -1.7619
   72CHL1   C12 7765   6.502   0.977   7.985 -0.1718  0.0763  0.8920
   72CHL1  H12A 7766   6.436   1.023   8.061 -1.5762  0.3484 -0.4676
   72CHL1  H12B 7767   6.611   0.994   7.998  0.2109 -1.9444  0.4941
   72CHL1   C11 7768   6.444   1.024   7.852 -0.4515 -0.3259  0.3869
   72CHL1  H11A 7769   6.335   1.029   7.871 -0.6416 -1.3097 -0.4146
   72CHL1  H11B 7770   6.483   1.126   7.831 -1.6946 -0.0512 -0.6108
   72CHL1    C9 7771   6.481   0.943   7.731 -0.4972  0.2379 -0.5251
   72CHL1    H9 7772   6.588   0.966   7.715 -0.1394 -1.8916 -1.3009
   72CHL1   C10 7773   6.417   0.976   7.598  0.3562 -0.1216 -0.8318
   72CHL1   C19 7774   6.261   0.959   7.618 -0.5375  0.3835  0.0337
   72CHL1  H19A 7775   6.202   0.949   7.524 -1.0039  0.3820  0.3262
   72CHL1  H19B 7776   6.240   0.867   7.677 -1.0422 -0.0252 -0.7699
   72CHL1  H19C 7777   6.224   1.047   7.675 -0.7751  0.9626 -1.0097
   72CHL1    C1 7778   6.454   1.124   7.563 -0.4686  0.4881  0.1194
   72CHL1   H1A 7779   6.402   1.192   7.634 -0.6719 -1.6837  2.1248
   72CHL1   H1B 7780   6.563   1.135   7.575 -0.4612 -0.9287  1.4743
   72CHL1    C2 7781   6.409   1.172   7.424 -0.5345  0.8975  0.3084
   72CHL1   H2A 7782   6.443   1.276   7.409  0.6584  0.5446  0.5338
   72CHL1   H2B 7783   6.299   1.170   7.409 -0.5697  0.2340  0.6178
   72CHL1   C20 7784   6.524   0.759   8.254  0.1254  0.6790 -0.2739
   72CHL1   H20 7785   6.432   0.697   8.261  1.3110 -1.2898 -1.7561
   72CHL1   C21 7786   6.508   0.904   8.296 -0.1361  0.2067  0.0836
   72CHL1  H21A 7787   6.468   0.913   8.399 -1.0310  1.6533 -0.3816
   72CHL1  H21B 7788   6.431   0.949   8.230  0.6562  0.9025 -0.3778
   72CHL1  H21C 7789   6.605   0.957   8.286  0.3693 -1.1477 -2.5395
   72CHL1   C22 7790   6.621   0.681   8.353 -0.0576  0.1070 -0.3583
   72CHL1  H22A 7791   6.646   0.583   8.308  1.1325 -0.0004  0.4929
   72CHL1  H22B 7792   6.717   0.737   8.359 -0.8755  1.7606 -2.4085
   72CHL1   C23 7793   6.577   0.660   8.502 -0.1978  0.4941 -0.1957
   72CHL1  H23A 7794   6.647   0.601   8.565  1.1492  2.3274  0.0718
   72CHL1  H23B 7795   6.555   0.762   8.539  0.0993  0.6539 -0.4577
   72CHL1   C24 7796   6.442   0.587   8.506  0.4057 -0.1589 -0.3385
   72CHL1  H24A 7797   6.372   0.656   8.455 -0.3979  0.5365  1.6758
   72CHL1  H24B 7798   6.448   0.493   8.448  1.7009 -0.8005  0.7951
   72CHL1   C25 7799   6.382   0.547   8.640 -0.1198  0.1361 -0.0296
   72CHL1   H25 7800   6.396   0.638   8.702  0.7476  1.3969 -1.9870
   72CHL1   C26 7801   6.228   0.529   8.629 -0.0316 -0.4220  0.2296
   72CHL1  H26A 7802   6.185   0.614   8.571  0.4977 -0.7925 -0.7215
   72CHL1  H26B 7803   6.199   0.439   8.571 -0.3160 -1.3278  1.7509
   72CHL1  H26C 7804   6.184   0.534   8.730  0.8480 -0.7928  0.6369
   72CHL1   C27 7805   6.474   0.436   8.695 -0.0313  0.0690 -0.1132
   72CHL1  H27A 7806   6.431   0.397   8.789 -2.9977  0.5475 -1.2000
   72CHL1  H27B 7807   6.467   0.353   8.621 -0.3883  0.2729 -0.3095
   72CHL1  H27C 7808   6.578   0.470   8.711 -0.2746  2.1911 -2.6425
   73CHL1    C3 7809   5.524   4.064   6.822  0.1159  0.1494  0.4903
   73CHL1    H3 7810   5.441   3.990   6.832 -1.4823  1.8846  0.2402
   73CHL1    O3 7811   5.522   4.092   6.685 -0.1077 -0.1621 -0.2292
   73CHL1   H3' 7812   5.595   4.152   6.668  0.4091 -0.5359  0.6725
   73CHL1    C4 7813   5.502   4.197   6.895  0.5781  0.8153 -0.0487
   73CHL1   H4A 7814   5.583   4.263   6.856  2.1840 -1.4568 -0.7047
   73CHL1   H4B 7815   5.406   4.235   6.855  0.9776  0.4159 -1.4506
   73CHL1    C5 7816   5.512   4.170   7.044 -0.2476  0.1006  0.0472
   73CHL1    C6 7817   5.409   4.203   7.121  0.1847  0.2029  0.3737
   73CHL1    H6 7818   5.320   4.250   7.078 -0.0229 -0.6991 -0.1904
   73CHL1    C7 7819   5.408   4.184   7.268  0.1911  0.7574 -0.3408
   73CHL1   H7A 7820   5.344   4.264   7.312  2.5243  2.7081 -0.3673
   73CHL1   H7B 7821   5.363   4.085   7.290  1.3460  0.0766 -1.0451
   73CHL1    C8 7822   5.550   4.187   7.328 -0.3691 -0.2447  0.1022
   73CHL1    H8 7823   5.574   4.295   7.333  0.3305 -0.4286  0.8719
   73CHL1   C14 7824   5.552   4.127   7.475 -0.3081  0.8642 -0.2580
   73CHL1   H14 7825   5.519   4.021   7.477  0.7361  0.5169 -1.2577
   73CHL1   C15 7826   5.459   4.194   7.580 -0.1295  0.4788  0.3723
   73CHL1  H15A 7827   5.486   4.301   7.568  0.3151  0.1117 -2.3854
   73CHL1  H15B 7828   5.351   4.171   7.565  0.2359 -1.4561  0.5205
   73CHL1   C16 7829   5.524   4.144   7.710  1.6779 -0.5067  0.0471
   73CHL1  H16A 7830   5.531   4.229   7.782  0.2738 -0.0241 -0.3683
   73CHL1  H16B 7831   5.449   4.075   7.755 -1.8439  2.7281 -0.5377
   73CHL1   C17 7832   5.665   4.084   7.691  0.1776 -0.1210 -0.0071
   73CHL1   H17 7833   5.655   3.973   7.689  1.3147 -0.2254 -0.1443
   73CHL1   C13 7834   5.698   4.131   7.540 -0.8739 -0.0418 -0.5261
   73CHL1   C18 7835   5.760   4.275   7.543  0.0148 -0.1404 -0.3731
   73CHL1  H18A 7836   5.702   4.330   7.620  0.0078  1.1046 -1.2558
   73CHL1  H18B 7837   5.861   4.271   7.589 -0.2831 -2.2214  0.1460
   73CHL1  H18C 7838   5.766   4.325   7.444 -1.2587 -0.1534 -0.4606
   73CHL1   C12 7839   5.789   4.035   7.463 -0.3983 -0.5647  0.8535
   73CHL1  H12A 7840   5.893   4.036   7.504  0.0224 -1.0290 -0.1821
   73CHL1  H12B 7841   5.734   3.940   7.477 -1.9082 -0.0713 -1.4644
   73CHL1   C11 7842   5.787   4.073   7.307 -0.2114  0.7496  0.5875
   73CHL1  H11A 7843   5.848   4.162   7.282  1.3123 -0.6582 -0.7516
   73CHL1  H11B 7844   5.833   3.986   7.255  0.2290  0.9614  0.6222
   73CHL1    C9 7845   5.645   4.097   7.242  0.7005 -0.0409 -0.5344
   73CHL1    H9 7846   5.594   3.998   7.243  2.8326 -1.1578  0.5238
   73CHL1   C10 7847   5.649   4.122   7.091 -0.5531 -0.0029  0.1713
   73CHL1   C19 7848   5.757   4.224   7.060 -0.3336 -0.2395 -0.5666
   73CHL1  H19A 7849   5.852   4.175   7.087 -0.3364  0.9857  1.7870
   73CHL1  H19B 7850   5.769   4.228   6.949  0.0891 -1.0475 -0.5533
   73CHL1  H19C 7851   5.745   4.322   7.111  4.6279  0.2651 -0.2038
   73CHL1    C1 7852   5.666   3.985   7.005 -0.0907 -0.4893 -1.2627
   73CHL1   H1A 7853   5.766   3.946   7.032  0.6263  0.8049 -1.9617
   73CHL1   H1B 7854   5.604   3.905   7.049 -0.8414  0.3106 -0.8501
   73CHL1    C2 7855   5.655   3.986   6.852  0.8721  1.0988  0.1233
   73CHL1   H2A 7856   5.651   3.886   6.804  0.7704 -0.0488  2.4309
   73CHL1   H2B 7857   5.749   4.037   6.819  1.8677 -1.2862 -0.8062
   73CHL1   C20 7858   5.762   4.106   7.806 -0.3863  0.4342 -0.5308
   73CHL1   H20 7859   5.794   4.213   7.810 -1.3976  0.7389 -0.5940
   73CHL1   C21 7860   5.885   4.008   7.778  0.2366  0.1439  1.1382
   73CHL1  H21A 7861   5.947   4.056   7.699  0.7945 -0.5320  1.1647
   73CHL1  H21B 7862   5.861   3.903   7.752 -0.2007  0.0865  1.7529
   73CHL1  H21C 7863   5.958   4.012   7.862  1.2401 -1.3058  0.3578
   73CHL1   C22 7864   5.694   4.063   7.942 -0.2700  0.3610  0.0179
   73CHL1  H22A 7865   5.612   4.137   7.956  0.4003  1.3277 -1.1489
   73CHL1  H22B 7866   5.642   3.966   7.924 -1.8192  1.4533 -1.5735
   73CHL1   C23 7867   5.781   4.049   8.072 -0.6841  0.2135  0.3739
   73CHL1  H23A 7868   5.713   4.015   8.153 -1.1487  0.8596  0.2648
   73CHL1  H23B 7869   5.869   3.984   8.056  1.9048  3.9243 -1.2117
   73CHL1   C24 7870   5.838   4.182   8.115 -0.2268 -0.1049 -0.7327
   73CHL1  H24A 7871   5.912   4.223   8.042  1.1658 -0.5855  0.3717
   73CHL1  H24B 7872   5.751   4.250   8.121  0.1394  0.3736 -0.8216
   73CHL1   C25 7873   5.886   4.171   8.267  0.2219  0.3616 -0.6802
   73CHL1   H25 7874   5.819   4.106   8.327  0.6670 -0.7255 -1.3472
   73CHL1   C26 7875   6.020   4.103   8.264  0.9405 -0.5948  0.4906
   73CHL1  H26A 7876   6.090   4.163   8.202  0.5906 -0.4464  0.2332
   73CHL1  H26B 7877   6.068   4.091   8.363  3.3566 -0.5657 -0.6516
   73CHL1  H26C 7878   6.016   4.006   8.209 -0.5095 -0.0629 -0.3916
   73CHL1   C27 7879   5.893   4.311   8.331  0.1730 -0.1506  0.1945
   73CHL1  H27A 7880   5.794   4.359   8.326  0.3850  0.3260  0.4973
   73CHL1  H27B 7881   5.939   4.319   8.432 -3.1887  2.8426  1.5758
   73CHL1  H27C 7882   5.959   4.373   8.266 -0.5386 -1.2085 -1.5375
   74CHL1    C3 7883   4.995   2.282   7.027  0.0713  0.1613  0.2755
   74CHL1    H3 7884   4.927   2.346   7.086 -2.4900 -2.2370  0.0333
   74CHL1    O3 7885   4.938   2.250   6.901  0.0712  0.2145 -0.2912
   74CHL1   H3' 7886   4.988   2.180   6.856  2.0398  0.1893  1.8369
   74CHL1    C4 7887   5.122   2.353   6.995  0.0086 -0.2654  0.4314
   74CHL1   H4A 7888   5.198   2.294   6.939 -0.9166 -0.6987 -0.3690
   74CHL1   H4B 7889   5.102   2.443   6.932  1.1883 -0.0457  0.3514
   74CHL1    C5 7890   5.191   2.392   7.129 -0.8551  0.7586  0.1277
   74CHL1    C6 7891   5.216   2.521   7.156  0.3255 -0.7756 -0.3960
   74CHL1    H6 7892   5.195   2.604   7.085 -2.4752 -1.8184 -0.8701
   74CHL1    C7 7893   5.269   2.567   7.286 -0.1853  0.2708  0.3206
   74CHL1   H7A 7894   5.352   2.639   7.268  0.0591 -0.1692 -0.3559
   74CHL1   H7B 7895   5.191   2.613   7.349 -0.5940  1.2857 -0.8930
   74CHL1    C8 7896   5.344   2.452   7.358 -0.2265 -0.2887 -0.1942
   74CHL1    H8 7897   5.432   2.433   7.292  0.6389 -1.4260  1.2595
   74CHL1   C14 7898   5.389   2.503   7.498 -0.1911 -0.0695 -0.4844
   74CHL1   H14 7899   5.293   2.525   7.549  0.8925  1.6101  0.9057
   74CHL1   C15 7900   5.455   2.643   7.515 -0.4621  0.7034 -0.3562
   74CHL1  H15A 7901   5.537   2.651   7.440 -0.5964 -0.5273 -0.6413
   74CHL1  H15B 7902   5.381   2.725   7.509 -0.2865  0.6865 -3.6106
   74CHL1   C16 7903   5.510   2.627   7.657  0.2261 -0.8277 -0.0568
   74CHL1  H16A 7904   5.621   2.638   7.658  0.4059 -2.2795 -1.8490
   74CHL1  H16B 7905   5.468   2.704   7.726  1.2256 -0.2387 -0.0948
   74CHL1   C17 7906   5.470   2.484   7.711 -0.2842  0.0516  0.5075
   74CHL1   H17 7907   5.374   2.503   7.763 -0.2698  2.7049 -0.3520
   74CHL1   C13 7908   5.450   2.397   7.588  0.3531 -0.0500 -0.6339
   74CHL1   C18 7909   5.589   2.351   7.533 -0.1873 -0.4040  0.0048
   74CHL1  H18A 7910   5.622   2.258   7.585 -0.4823 -0.2382  0.4997
   74CHL1  H18B 7911   5.585   2.328   7.425 -0.7684 -0.7537  0.0979
   74CHL1  H18C 7912   5.664   2.432   7.547  0.1282 -0.9709  1.8314
   74CHL1   C12 7913   5.347   2.282   7.602 -0.8777 -0.1802  0.3045
   74CHL1  H12A 7914   5.387   2.194   7.657 -0.2844 -0.0518  0.0869
   74CHL1  H12B 7915   5.259   2.328   7.651 -0.5507  1.3938 -0.5476
   74CHL1   C11 7916   5.318   2.220   7.465  0.6803  0.1599 -0.3915
   74CHL1  H11A 7917   5.407   2.175   7.416 -0.5938 -1.9464 -0.8537
   74CHL1  H11B 7918   5.243   2.140   7.483  0.9445  0.0269  0.1270
   74CHL1    C9 7919   5.258   2.328   7.368 -0.2356 -0.5008  0.5615
   74CHL1    H9 7920   5.163   2.360   7.416 -1.3641 -2.3352 -0.4300
   74CHL1   C10 7921   5.224   2.273   7.228  0.3023 -0.0378  0.1533
   74CHL1   C19 7922   5.342   2.200   7.157 -0.1906 -0.1693  0.6139
   74CHL1  H19A 7923   5.427   2.270   7.145 -0.1233  0.0690  2.3506
   74CHL1  H19B 7924   5.376   2.120   7.227  1.1320  0.5162  0.7847
   74CHL1  H19C 7925   5.332   2.161   7.054 -1.7989  1.1774  0.2355
   74CHL1    C1 7926   5.102   2.181   7.238  0.6527 -0.2912 -0.1420
   74CHL1   H1A 7927   5.133   2.085   7.285 -1.5779 -2.1540 -2.3426
   74CHL1   H1B 7928   5.028   2.221   7.310  1.1057 -0.1356  0.2399
   74CHL1    C2 7929   5.022   2.157   7.113  0.2761 -0.2708  0.3398
   74CHL1   H2A 7930   4.918   2.119   7.128  0.5274 -0.4183  1.7702
   74CHL1   H2B 7931   5.071   2.079   7.052  2.0951 -0.8931  2.5322
   74CHL1   C20 7932   5.567   2.424   7.827 -0.5015 -0.2406  0.1174
   74CHL1   H20 7933   5.662   2.381   7.789 -0.8001  0.8008 -1.8425
   74CHL1   C21 7934   5.492   2.315   7.903  0.5458  0.2495  0.1732
   74CHL1  H21A 7935   5.536   2.292   8.002  1.4614  0.3068 -0.2174
   74CHL1  H21B 7936   5.488   2.219   7.846 -1.3030  0.7336 -0.5578
   74CHL1  H21C 7937   5.390   2.359   7.912  0.4350  0.2419 -0.9864
   74CHL1   C22 7938   5.606   2.533   7.931  0.5191 -0.4352  0.2561
   74CHL1  H22A 7939   5.669   2.489   8.011 -1.3921  0.0271  2.0718
   74CHL1  H22B 7940   5.673   2.607   7.883 -1.0370  0.7200 -0.1611
   74CHL1   C23 7941   5.484   2.607   7.992  0.1058  0.2566  0.6918
   74CHL1  H23A 7942   5.415   2.642   7.913 -1.1110 -1.1291  1.1257
   74CHL1  H23B 7943   5.429   2.533   8.054  1.0838  1.1741  2.7211
   74CHL1   C24 7944   5.521   2.713   8.091  0.0809 -0.6899  0.4105
   74CHL1  H24A 7945   5.586   2.669   8.170  2.0928  0.5622 -0.5265
   74CHL1  H24B 7946   5.574   2.792   8.034 -2.5002  0.3547 -0.6193
   74CHL1   C25 7947   5.405   2.786   8.172  0.9056  0.4469  0.7051
   74CHL1   H25 7948   5.315   2.724   8.157  0.3751  0.8247  2.2865
   74CHL1   C26 7949   5.430   2.783   8.322  0.1464  0.2482 -0.1808
   74CHL1  H26A 7950   5.513   2.850   8.352  0.1093  0.4241 -0.4677
   74CHL1  H26B 7951   5.339   2.814   8.377  0.9122 -0.2212  1.3838
   74CHL1  H26C 7952   5.453   2.682   8.364 -0.7013  0.5846  1.0948
   74CHL1   C27 7953   5.365   2.920   8.126 -0.0812 -0.9920 -0.0009
   74CHL1  H27A 7954   5.257   2.918   8.101 -0.3675  1.4815  0.8180
   74CHL1  H27B 7955   5.379   3.000   8.202  1.7210  0.9900 -2.3071
   74CHL1  H27C 7956   5.409   2.955   8.030 -0.7457  2.7016  0.9641
   75CHL1    C3 7957   1.649   4.674   6.694  0.5986 -0.6719 -0.0132
   75CHL1    H3 7958   1.708   4.768   6.705  1.1105 -1.0263  0.2529
   75CHL1    O3 7959   1.632   4.653   6.555 -0.7212  0.2164  0.0248
   75CHL1   H3' 7960   1.546   4.691   6.536 -0.2912  1.6969  0.9137
   75CHL1    C4 7961   1.730   4.554   6.738 -0.1227  0.2980  0.0348
   75CHL1   H4A 7962   1.674   4.460   6.722  1.8124 -0.6883 -1.0866
   75CHL1   H4B 7963   1.827   4.547   6.684  0.5201 -1.5265  1.3827
   75CHL1    C5 7964   1.760   4.562   6.891 -0.0238 -0.3474 -0.4845
   75CHL1    C6 7965   1.881   4.559   6.943 -0.1470  0.2296 -0.9592
   75CHL1    H6 7966   1.969   4.559   6.876  1.1123 -3.1226  0.5865
   75CHL1    C7 7967   1.913   4.561   7.091 -0.2629  0.0238  0.3117
   75CHL1   H7A 7968   2.005   4.503   7.113 -0.5437 -1.0550 -1.2557
   75CHL1   H7B 7969   1.942   4.666   7.111  0.2307 -0.3003  1.3263
   75CHL1    C8 7970   1.791   4.511   7.180 -0.7773  0.3409  0.3010
   75CHL1    H8 7971   1.774   4.402   7.165 -0.3744 -0.0695  2.6919
   75CHL1   C14 7972   1.823   4.532   7.328  0.3845 -0.4988 -0.5005
   75CHL1   H14 7973   1.839   4.641   7.341 -1.3394 -0.2055 -0.7033
   75CHL1   C15 7974   1.934   4.447   7.390  0.3664 -0.4777  0.4192
   75CHL1  H15A 7975   1.934   4.352   7.333  0.3892 -0.9365  1.1822
   75CHL1  H15B 7976   2.033   4.497   7.377  0.5433 -1.0249 -0.4256
   75CHL1   C16 7977   1.887   4.415   7.535 -0.1844 -0.0849 -0.4424
   75CHL1  H16A 7978   1.869   4.306   7.552  2.3836 -0.3180  0.8711
   75CHL1  H16B 7979   1.961   4.449   7.610  2.8957 -0.7872 -3.0401
   75CHL1   C17 7980   1.763   4.496   7.553  0.4673  0.0145 -1.1306
   75CHL1   H17 7981   1.798   4.599   7.573  0.4422 -0.5694  2.1657
   75CHL1   C13 7982   1.700   4.506   7.413  0.3113  0.3969  0.0909
   75CHL1   C18 7983   1.649   4.369   7.383  0.4282  0.0644  0.3257
   75CHL1  H18A 7984   1.579   4.327   7.458  1.7954 -1.3035  0.8596
   75CHL1  H18B 7985   1.585   4.363   7.292  0.9404 -1.2458  0.0392
   75CHL1  H18C 7986   1.729   4.292   7.377 -0.8454 -1.3221  0.9710
   75CHL1   C12 7987   1.596   4.618   7.379  0.7261 -0.4077 -0.3474
   75CHL1  H12A 7988   1.511   4.611   7.449  0.7697  0.4730 -0.2025
   75CHL1  H12B 7989   1.648   4.715   7.395 -2.5758  1.7637 -2.3751
   75CHL1   C11 7990   1.556   4.610   7.231  0.2413  0.4071  0.1808
   75CHL1  H11A 7991   1.469   4.543   7.216  1.5044 -0.9208 -1.4333
   75CHL1  H11B 7992   1.514   4.708   7.202 -2.1701 -0.9622 -1.1324
   75CHL1    C9 7993   1.678   4.602   7.132 -0.5681 -0.3655 -0.5138
   75CHL1    H9 7994   1.718   4.706   7.129  1.0973 -1.0037 -0.7324
   75CHL1   C10 7995   1.634   4.575   6.985  0.0286 -0.1111 -0.1512
   75CHL1   C19 7996   1.554   4.440   6.982 -0.8533 -0.6448  0.0025
   75CHL1  H19A 7997   1.616   4.353   7.012  0.1382 -0.3145 -1.0102
   75CHL1  H19B 7998   1.460   4.443   7.040 -0.4627 -0.4781  0.6308
   75CHL1  H19C 7999   1.523   4.417   6.878 -1.0941  0.6077 -0.2196
   75CHL1    C1 8000   1.534   4.685   6.922 -0.7498  0.3538 -0.6339
   75CHL1   H1A 8001   1.437   4.664   6.973  0.1291 -1.2461  0.4246
   75CHL1   H1B 8002   1.579   4.783   6.948 -2.4164  0.7897  0.6878
   75CHL1    C2 8003   1.511   4.673   6.769  0.1074  0.1323  0.6110
   75CHL1   H2A 8004   1.453   4.762   6.737 -1.0551 -0.5171  0.8996
   75CHL1   H2B 8005   1.450   4.586   6.735  0.3546 -0.5063  1.7530
   75CHL1   C20 8006   1.678   4.448   7.679 -0.5466  0.2981 -0.4511
   75CHL1   H20 8007   1.595   4.379   7.655 -0.3892 -0.1310  0.2192
   75CHL1   C21 8008   1.609   4.575   7.729 -0.1317  0.6907 -0.1635
   75CHL1  H21A 8009   1.545   4.551   7.816  0.5770 -2.4158 -0.4355
   75CHL1  H21B 8010   1.553   4.621   7.645  0.0441  1.1574 -0.0267
   75CHL1  H21C 8011   1.680   4.655   7.759 -0.0203  0.9171 -0.9994
   75CHL1   C22 8012   1.768   4.386   7.793  0.0083 -0.2969  0.3721
   75CHL1  H22A 8013   1.819   4.301   7.744 -1.4629 -0.6172 -0.6592
   75CHL1  H22B 8014   1.835   4.470   7.823  1.4056 -2.3199  3.0932
   75CHL1   C23 8015   1.690   4.326   7.916  0.0650  0.5628 -0.1938
   75CHL1  H23A 8016   1.772   4.295   7.984  0.0172  0.3015 -0.2542
   75CHL1  H23B 8017   1.634   4.408   7.966 -1.6028 -0.0599 -1.0158
   75CHL1   C24 8018   1.601   4.200   7.893  0.4913  0.7334  0.0309
   75CHL1  H24A 8019   1.510   4.225   7.834  0.0980  1.1956  0.8272
   75CHL1  H24B 8020   1.660   4.129   7.831 -1.6815 -0.5079 -0.6423
   75CHL1   C25 8021   1.544   4.148   8.027 -0.6753  0.0029 -0.5645
   75CHL1   H25 8022   1.623   4.161   8.104 -2.4569 -1.3093  1.5538
   75CHL1   C26 8023   1.415   4.217   8.076  0.1898 -0.3530  0.6540
   75CHL1  H26A 8024   1.348   4.242   7.991 -0.2302  0.8293  1.3220
   75CHL1  H26B 8025   1.360   4.159   8.155 -0.6789  0.3172  0.5498
   75CHL1  H26C 8026   1.431   4.314   8.129  1.4621 -0.7595  1.0228
   75CHL1   C27 8027   1.504   4.000   8.026 -0.3591  0.2921 -1.1438
   75CHL1  H27A 8028   1.420   3.976   7.958 -1.9665  1.5670  0.3532
   75CHL1  H27B 8029   1.589   3.939   7.987  1.0675  1.6310 -0.1889
   75CHL1  H27C 8030   1.475   3.959   8.125 -0.6192  0.4113 -1.1717
   76CHL1    C3 8031   5.243   6.504   7.352 -0.4998 -0.1605  0.2270
   76CHL1    H3 8032   5.318   6.444   7.409 -0.0148 -0.2340 -0.4873
   76CHL1    O3 8033   5.280   6.528   7.220  0.4875  0.9513  0.2766
   76CHL1   H3' 8034   5.290   6.440   7.183 -0.9910  1.2952 -0.9444
   76CHL1    C4 8035   5.110   6.424   7.351 -0.3964  0.3762 -0.2943
   76CHL1   H4A 8036   5.030   6.480   7.296 -2.5924 -1.6581  0.7345
   76CHL1   H4B 8037   5.139   6.330   7.300 -0.2499  0.0246  0.4383
   76CHL1    C5 8038   5.067   6.397   7.494  0.5249 -0.3710 -0.2976
   76CHL1    C6 8039   5.076   6.269   7.547  0.0041  0.3882  0.7866
   76CHL1    H6 8040   5.108   6.193   7.474 -0.3215  0.9241  0.0830
   76CHL1    C7 8041   5.016   6.238   7.684 -0.3412  0.1047  0.1768
   76CHL1   H7A 8042   4.938   6.159   7.686 -0.5309  0.2789  3.0708
   76CHL1   H7B 8043   5.091   6.198   7.757 -0.7803  0.7257  0.9806
   76CHL1    C8 8044   4.957   6.365   7.758 -0.0126 -1.1290  0.4994
   76CHL1    H8 8045   4.854   6.389   7.724  0.0893 -0.8875  0.3608
   76CHL1   C14 8046   4.955   6.331   7.905 -0.1295  0.5077 -0.0212
   76CHL1   H14 8047   5.064   6.323   7.925 -0.2230  2.1607  1.2255
   76CHL1   C15 8048   4.885   6.208   7.960 -0.3839 -0.5408 -0.4572
   76CHL1  H15A 8049   4.783   6.194   7.918 -0.3304 -1.8517 -0.1872
   76CHL1  H15B 8050   4.941   6.113   7.941  1.6773  1.1162 -2.9720
   76CHL1   C16 8051   4.870   6.235   8.109  0.9520 -0.2499 -0.7031
   76CHL1  H16A 8052   4.762   6.215   8.128  0.9218 -0.6783 -1.3124
   76CHL1  H16B 8053   4.927   6.160   8.167 -0.2924  1.0882  2.3702
   76CHL1   C17 8054   4.920   6.380   8.133 -0.1844 -0.1432 -0.5521
   76CHL1   H17 8055   5.029   6.376   8.153  0.0705  0.8228 -1.6923
   76CHL1   C13 8056   4.905   6.446   7.995  0.8723  0.0871  0.2117
   76CHL1   C18 8057   4.757   6.475   7.956 -0.5646 -0.0196 -0.0579
   76CHL1  H18A 8058   4.691   6.388   7.978  1.6325 -1.5200  0.8750
   76CHL1  H18B 8059   4.746   6.569   8.013 -0.6275 -0.5967  0.8997
   76CHL1  H18C 8060   4.752   6.508   7.851 -0.2962 -0.8287 -0.3280
   76CHL1   C12 8061   4.993   6.568   7.966  0.0106 -0.5449 -0.1740
   76CHL1  H12A 8062   4.958   6.655   8.026 -0.4170  0.1647 -1.4510
   76CHL1  H12B 8063   5.093   6.534   8.001  0.1233 -0.8090 -0.7586
   76CHL1   C11 8064   5.004   6.610   7.822  0.3455 -0.1050  0.5563
   76CHL1  H11A 8065   4.902   6.645   7.794  0.4784  0.9588  1.3929
   76CHL1  H11B 8066   5.090   6.680   7.816  1.1661 -1.0044  1.6760
   76CHL1    C9 8067   5.034   6.489   7.731 -0.1518  0.1349 -0.0447
   76CHL1    H9 8068   5.135   6.463   7.767  0.0003 -1.1764 -1.3228
   76CHL1   C10 8069   5.043   6.523   7.580  0.6209 -0.1602 -0.2787
   76CHL1   C19 8070   4.903   6.589   7.530 -0.8685 -0.6995  0.2924
   76CHL1  H19A 8071   4.881   6.689   7.574 -1.2139  0.0049 -1.4403
   76CHL1  H19B 8072   4.908   6.620   7.424 -0.9383 -1.6519  0.0096
   76CHL1  H19C 8073   4.823   6.518   7.560  0.7440 -1.5020  2.9141
   76CHL1    C1 8074   5.162   6.619   7.559  1.0965 -0.5441 -0.3352
   76CHL1   H1A 8075   5.143   6.717   7.608 -0.6777 -0.8650 -0.3484
   76CHL1   H1B 8076   5.252   6.578   7.611  0.6787  0.1088  0.9195
   76CHL1    C2 8077   5.214   6.637   7.418 -0.6037 -0.5280 -0.2176
   76CHL1   H2A 8078   5.303   6.701   7.400  0.1044 -1.3609  0.2842
   76CHL1   H2B 8079   5.131   6.685   7.362 -0.6804  1.4031  1.4922
   76CHL1   C20 8080   4.860   6.448   8.262  0.0635 -0.3059 -0.0303
   76CHL1   H20 8081   4.755   6.470   8.234  0.5488  2.9542  0.5553
   76CHL1   C21 8082   4.935   6.574   8.299 -0.2648  0.5088 -0.8488
   76CHL1  H21A 8083   4.905   6.597   8.404  0.6459 -0.4423 -0.3735
   76CHL1  H21B 8084   4.882   6.645   8.232  1.0768  0.7937 -1.6072
   76CHL1  H21C 8085   5.044   6.569   8.279 -0.0495 -2.9169  0.9367
   76CHL1   C22 8086   4.857   6.349   8.391 -0.2859 -0.0623 -0.6000
   76CHL1  H22A 8087   4.825   6.247   8.358 -1.3106 -0.1942  0.7938
   76CHL1  H22B 8088   4.958   6.362   8.436 -0.0332 -0.4819 -1.0346
   76CHL1   C23 8089   4.756   6.385   8.501 -0.5175  0.4117  0.8425
   76CHL1  H23A 8090   4.771   6.494   8.516  1.7794  0.4932 -1.7218
   76CHL1  H23B 8091   4.653   6.370   8.460 -0.0858 -0.5971  0.1128
   76CHL1   C24 8092   4.775   6.303   8.621 -0.1186 -0.0950 -0.2874
   76CHL1  H24A 8093   4.770   6.196   8.593 -3.5634 -0.3115  0.8622
   76CHL1  H24B 8094   4.873   6.326   8.667 -0.8656  2.5038  0.0870
   76CHL1   C25 8095   4.671   6.317   8.730 -0.2674  0.0316 -0.1283
   76CHL1   H25 8096   4.573   6.326   8.678  0.2499  0.4646 -1.0427
   76CHL1   C26 8097   4.655   6.190   8.818 -0.3333  0.3606  0.1952
   76CHL1  H26A 8098   4.590   6.115   8.768  1.9685 -1.8791  0.4060
   76CHL1  H26B 8099   4.753   6.143   8.841  0.6781  1.9793 -0.6887
   76CHL1  H26C 8100   4.596   6.222   8.905 -2.0902  1.4640 -1.3702
   76CHL1   C27 8101   4.692   6.439   8.823 -0.8939  0.7434 -0.9096
   76CHL1  H27A 8102   4.762   6.421   8.908 -2.0441  2.9286  0.5377
   76CHL1  H27B 8103   4.743   6.513   8.758  0.9371 -1.8543 -2.5381
   76CHL1  H27C 8104   4.592   6.473   8.857 -1.3496 -0.2636 -1.2153
   77CHL1    C3 8105   6.253   4.418   6.885 -0.3289  0.8194  0.0857
   77CHL1    H3 8106   6.263   4.527   6.903  0.7078  0.3689  2.4285
   77CHL1    O3 8107   6.274   4.388   6.743 -0.1267 -0.2758  0.2339
   77CHL1   H3' 8108   6.273   4.467   6.688  1.5517 -0.2407  0.2320
   77CHL1    C4 8109   6.369   4.343   6.954 -0.8672  0.1981  0.0475
   77CHL1   H4A 8110   6.373   4.236   6.923  0.0328  1.0214 -2.8346
   77CHL1   H4B 8111   6.456   4.380   6.895  0.9474 -2.9023  0.6642
   77CHL1    C5 8112   6.385   4.353   7.103 -0.0890  0.0396 -0.3329
   77CHL1    C6 8113   6.497   4.388   7.163  0.0944 -0.8297  0.4599
   77CHL1    H6 8114   6.586   4.401   7.099  1.1451  2.8171  2.5664
   77CHL1    C7 8115   6.512   4.411   7.306 -0.1606 -0.6448 -0.9367
   77CHL1   H7A 8116   6.604   4.366   7.348  0.1685 -0.1395 -1.1210
   77CHL1   H7B 8117   6.516   4.521   7.320 -1.2799 -0.5781 -1.0897
   77CHL1    C8 8118   6.395   4.347   7.392 -0.2204  0.0663  0.0369
   77CHL1    H8 8119   6.411   4.237   7.391  0.8127  0.2105  0.5042
   77CHL1   C14 8120   6.408   4.388   7.540 -0.5347 -0.5090 -0.0726
   77CHL1   H14 8121   6.432   4.496   7.526 -2.7382 -0.1116 -1.0515
   77CHL1   C15 8122   6.540   4.352   7.614 -0.6174 -0.2686  0.1231
   77CHL1  H15A 8123   6.559   4.243   7.604 -1.2313 -0.1324 -2.8877
   77CHL1  H15B 8124   6.620   4.415   7.569  1.1493 -2.6463 -0.1137
   77CHL1   C16 8125   6.516   4.390   7.760 -0.5931  0.2271  1.0028
   77CHL1  H16A 8126   6.523   4.303   7.828 -2.8967 -0.0272  0.9476
   77CHL1  H16B 8127   6.578   4.471   7.804  0.0639  0.8685 -1.0431
   77CHL1   C17 8128   6.358   4.441   7.765  0.4950 -0.9440 -0.3540
   77CHL1   H17 8129   6.366   4.551   7.753 -0.4273 -0.8770 -0.4346
   77CHL1   C13 8130   6.295   4.378   7.635  0.4367 -0.2741  0.5479
   77CHL1   C18 8131   6.269   4.229   7.656 -0.1228  0.7952 -0.5579
   77CHL1  H18A 8132   6.253   4.189   7.553 -1.4447 -0.2410  0.0451
   77CHL1  H18B 8133   6.356   4.180   7.705 -0.4394 -0.6210 -1.3721
   77CHL1  H18C 8134   6.181   4.216   7.722  0.3726 -1.1517 -0.2478
   77CHL1   C12 8135   6.168   4.439   7.571  0.7069  0.3089 -0.3485
   77CHL1  H12A 8136   6.083   4.421   7.639  0.4074 -0.1829 -0.8546
   77CHL1  H12B 8137   6.200   4.546   7.568 -0.4719  0.6615 -0.7207
   77CHL1   C11 8138   6.140   4.389   7.423  0.4784 -0.4331  0.6227
   77CHL1  H11A 8139   6.093   4.289   7.429  1.6882 -1.2917 -2.8683
   77CHL1  H11B 8140   6.071   4.461   7.374  2.5573  1.2172  0.0046
   77CHL1    C9 8141   6.269   4.387   7.326  0.3976  0.4736 -0.3227
   77CHL1    H9 8142   6.284   4.496   7.308  0.9039  0.2498 -1.2906
   77CHL1   C10 8143   6.251   4.334   7.182  0.5212 -0.4346 -0.3818
   77CHL1   C19 8144   6.224   4.188   7.191  0.3763  0.0421 -0.1058
   77CHL1  H19A 8145   6.219   4.142   7.090  1.8277 -2.3133  0.8628
   77CHL1  H19B 8146   6.312   4.135   7.233 -1.4020 -1.7922  1.3960
   77CHL1  H19C 8147   6.131   4.150   7.239  2.7692 -1.1850  3.7380
   77CHL1    C1 8148   6.132   4.408   7.108  0.3889  0.4585  0.6232
   77CHL1   H1A 8149   6.028   4.395   7.144 -0.4379  0.6615 -1.6021
   77CHL1   H1B 8150   6.153   4.516   7.125 -1.0257  0.6946  0.9294
   77CHL1    C2 8151   6.115   4.379   6.957 -0.2272 -0.5062  0.5379
   77CHL1   H2A 8152   6.036   4.449   6.923 -0.2488  0.0661  1.7068
   77CHL1   H2B 8153   6.088   4.273   6.938  0.2891 -0.0925 -2.6900
   77CHL1   C20 8154   6.290   4.400   7.899 -0.7073 -0.2946 -0.2559
   77CHL1   H20 8155   6.277   4.290   7.903  0.6901 -0.5582 -1.9552
   77CHL1   C21 8156   6.150   4.462   7.906  0.0657 -0.0850  0.4976
   77CHL1  H21A 8157   6.112   4.435   8.007 -0.8027  2.3843  0.8580
   77CHL1  H21B 8158   6.071   4.429   7.835  1.1620  1.2190 -1.3559
   77CHL1  H21C 8159   6.159   4.573   7.904  0.7964 -0.1595 -0.2259
   77CHL1   C22 8160   6.374   4.444   8.023  0.2529  0.4386 -0.2841
   77CHL1  H22A 8161   6.480   4.409   8.017 -0.1925 -1.0793  0.3831
   77CHL1  H22B 8162   6.384   4.555   8.029 -1.4502  0.6090 -0.3927
   77CHL1   C23 8163   6.311   4.394   8.156  0.3707  0.6144  0.4815
   77CHL1  H23A 8164   6.225   4.463   8.171 -1.7177 -1.1339 -2.7835
   77CHL1  H23B 8165   6.273   4.291   8.139 -3.1123  2.1937 -2.0562
   77CHL1   C24 8166   6.414   4.396   8.275  0.3471  0.1595 -0.2243
   77CHL1  H24A 8167   6.489   4.315   8.268 -0.8985 -0.9932 -0.3877
   77CHL1  H24B 8168   6.463   4.494   8.293  2.8330 -1.0155 -0.4590
   77CHL1   C25 8169   6.332   4.374   8.405 -0.6151  0.4335 -0.0499
   77CHL1   H25 8170   6.258   4.292   8.397 -1.0533  0.8025  0.2271
   77CHL1   C26 8171   6.428   4.333   8.519  0.2838 -0.1713  0.3176
   77CHL1  H26A 8172   6.371   4.342   8.614 -0.8155 -0.9635 -0.2487
   77CHL1  H26B 8173   6.473   4.232   8.509  1.1744  0.3252 -0.7774
   77CHL1  H26C 8174   6.520   4.394   8.518  1.0520 -1.3257 -1.0563
   77CHL1   C27 8175   6.258   4.501   8.448 -0.0903 -0.0657 -0.6537
   77CHL1  H27A 8176   6.206   4.553   8.364 -1.0656  0.3719  0.2139
   77CHL1  H27B 8177   6.191   4.474   8.531  1.0840 -1.2614 -0.0759
   77CHL1  H27C 8178   6.322   4.583   8.488 -0.4110  0.2268 -0.7333
   78CHL1    C3 8179   1.162   5.941   6.753  1.3091  0.5136  0.4484
   78CHL1    H3 8180   1.190   5.836   6.777  0.3385 -0.5421 -2.8069
   78CHL1    O3 8181   1.166   5.954   6.610  0.0703  0.3617  0.4598
   78CHL1   H3' 8182   1.125   5.872   6.580 -0.0876  0.0148  1.6070
   78CHL1    C4 8183   1.028   5.980   6.816 -0.2222 -0.1951  0.2540
   78CHL1   H4A 8184   1.014   6.088   6.791 -0.2546 -0.9996 -3.4664
   78CHL1   H4B 8185   0.943   5.921   6.776 -0.6558 -2.1252  3.8208
   78CHL1    C5 8186   1.041   5.959   6.967  0.0678  0.1628 -0.1977
   78CHL1    C6 8187   0.969   5.870   7.039  0.0871 -0.1812 -0.3514
   78CHL1    H6 8188   0.900   5.810   6.978 -0.6412  1.0828 -0.8118
   78CHL1    C7 8189   0.969   5.848   7.182  0.0662  0.0601 -1.0538
   78CHL1   H7A 8190   0.866   5.831   7.222  0.2040  0.8354 -0.3514
   78CHL1   H7B 8191   1.021   5.751   7.193 -1.7020 -0.8689 -0.6850
   78CHL1    C8 8192   1.033   5.971   7.253 -0.4543  0.3000  0.2856
   78CHL1    H8 8193   0.961   6.056   7.251  0.0013  0.6857 -0.0034
   78CHL1   C14 8194   1.055   5.945   7.405 -0.5933 -0.4222 -0.0123
   78CHL1   H14 8195   1.131   5.863   7.409 -0.3990 -0.1920  1.5122
   78CHL1   C15 8196   0.940   5.895   7.483 -0.3082  0.1106  0.2466
   78CHL1  H15A 8197   0.855   5.965   7.465 -1.0650 -0.3706  1.8499
   78CHL1  H15B 8198   0.904   5.796   7.448 -1.3416  0.3636  0.5602
   78CHL1   C16 8199   0.985   5.909   7.629  0.1818 -1.0163 -0.2523
   78CHL1  H16A 8200   0.911   5.964   7.692 -0.8287 -1.3125 -1.1711
   78CHL1  H16B 8201   1.002   5.808   7.671  3.1881 -0.1315  0.8002
   78CHL1   C17 8202   1.114   6.001   7.632  0.8462  0.2237  0.3366
   78CHL1   H17 8203   1.193   5.924   7.644  0.0661 -0.3581  1.7827
   78CHL1   C13 8204   1.116   6.057   7.486 -0.3456 -0.3910  0.4395
   78CHL1   C18 8205   1.033   6.182   7.478 -0.2386  0.0761 -0.4819
   78CHL1  H18A 8206   1.028   6.231   7.378  0.9856 -1.7295 -1.4466
   78CHL1  H18B 8207   0.930   6.164   7.516 -0.2029  2.0819  0.6331
   78CHL1  H18C 8208   1.072   6.261   7.545  1.6876  1.5435 -3.2403
   78CHL1   C12 8209   1.258   6.079   7.434  0.1751 -0.5830  0.0306
   78CHL1  H12A 8210   1.331   6.149   7.482  0.5521 -0.8307 -0.1779
   78CHL1  H12B 8211   1.319   5.987   7.424  1.1801 -0.0749  1.2716
   78CHL1   C11 8212   1.253   6.110   7.286  0.4244  0.3649  0.0391
   78CHL1  H11A 8213   1.216   6.215   7.278  0.2475  0.2872 -0.1490
   78CHL1  H11B 8214   1.354   6.105   7.238 -0.7845  2.2600 -2.8766
   78CHL1    C9 8215   1.167   6.009   7.196  0.0572 -0.0727 -0.2609
   78CHL1    H9 8216   1.227   5.916   7.190  1.0209  0.6106 -1.4715
   78CHL1   C10 8217   1.156   6.045   7.041 -0.2676 -0.1304 -0.0458
   78CHL1   C19 8218   1.128   6.198   7.030 -0.1787 -0.3133 -0.5179
   78CHL1  H19A 8219   1.051   6.226   7.106 -0.6066 -0.6771 -0.8162
   78CHL1  H19B 8220   1.208   6.261   7.075 -0.5169  0.1110 -0.5106
   78CHL1  H19C 8221   1.098   6.233   6.929  1.2210  0.1168 -0.7945
   78CHL1    C1 8222   1.288   6.010   6.967  0.9830  0.5882 -0.1579
   78CHL1   H1A 8223   1.363   6.074   7.020  1.3660  1.8735 -2.1971
   78CHL1   H1B 8224   1.320   5.906   6.988  0.2028  0.3276 -0.2803
   78CHL1    C2 8225   1.274   6.022   6.822 -0.0712 -0.4837 -0.1001
   78CHL1   H2A 8226   1.368   5.979   6.780 -0.9778 -1.9635 -0.6476
   78CHL1   H2B 8227   1.271   6.125   6.783 -2.2520  0.0012  1.2951
   78CHL1   C20 8228   1.129   6.103   7.747 -0.3317 -0.0129 -0.6547
   78CHL1   H20 8229   1.041   6.171   7.744 -0.7734 -0.5877 -0.9299
   78CHL1   C21 8230   1.259   6.182   7.742 -0.0738 -0.0363  1.1088
   78CHL1  H21A 8231   1.345   6.118   7.713  0.0457  0.6135 -0.0032
   78CHL1  H21B 8232   1.282   6.243   7.832  0.8992  2.8813 -1.0234
   78CHL1  H21C 8233   1.252   6.262   7.665 -2.1667 -0.0439  1.2641
   78CHL1   C22 8234   1.128   6.016   7.877 -0.3894 -0.1854  0.4876
   78CHL1  H22A 8235   1.053   5.934   7.875  0.8289 -1.3011 -0.3555
   78CHL1  H22B 8236   1.227   5.968   7.877 -0.3117 -0.0708 -0.9447
   78CHL1   C23 8237   1.106   6.095   8.013 -0.1535  0.4098  0.2432
   78CHL1  H23A 8238   1.165   6.189   8.013  0.8465 -0.2022 -0.0938
   78CHL1  H23B 8239   0.999   6.123   8.009 -0.4347 -0.5377  0.7769
   78CHL1   C24 8240   1.136   6.003   8.132  0.4610 -0.3693 -0.6944
   78CHL1  H24A 8241   1.086   5.905   8.133 -1.0096  0.3670 -1.1102
   78CHL1  H24B 8242   1.244   5.976   8.126  0.6113  0.2895 -1.0320
   78CHL1   C25 8243   1.102   6.065   8.273 -0.2010 -0.0041  0.0355
   78CHL1   H25 8244   1.173   6.015   8.343  1.0700 -0.1425 -1.3249
   78CHL1   C26 8245   1.122   6.223   8.277 -0.6550  0.4520 -0.0255
   78CHL1  H26A 8246   1.058   6.261   8.194 -0.7983 -3.1293 -1.6636
   78CHL1  H26B 8247   1.082   6.258   8.374  1.5364  0.9876  0.7163
   78CHL1  H26C 8248   1.225   6.262   8.264 -0.4935 -0.4520 -1.7091
   78CHL1   C27 8249   0.966   6.026   8.314  0.1069 -0.1519  0.0367
   78CHL1  H27A 8250   0.951   5.916   8.314  2.6001 -0.5214  1.2542
   78CHL1  H27B 8251   0.938   6.059   8.416 -1.0979 -1.1337  0.0361
   78CHL1  H27C 8252   0.892   6.066   8.241  1.2015  0.3348 -0.8192
   79CHL1    C3 8253   6.511   5.999   7.222 -0.2646  0.3921  0.2483
   79CHL1    H3 8254   6.488   5.891   7.208 -0.1409  0.3784  0.1492
   79CHL1    O3 8255   6.549   6.065   7.104 -0.0853 -0.1987  0.4136
   79CHL1   H3' 8256   6.491   6.033   7.035 -2.7708  4.8919  0.0850
   79CHL1    C4 8257   6.377   6.068   7.264 -0.0978  0.2136  0.4298
   79CHL1   H4A 8258   6.392   6.177   7.254  1.2315 -0.1695 -2.1141
   79CHL1   H4B 8259   6.296   6.038   7.194  0.4252  0.5696 -0.3258
   79CHL1    C5 8260   6.344   6.043   7.403  0.2993  0.3147 -0.9155
   79CHL1    C6 8261   6.223   6.012   7.450 -0.2696 -0.3212  0.1965
   79CHL1    H6 8262   6.140   6.001   7.379  0.3387  2.0181 -0.9283
   79CHL1    C7 8263   6.169   5.986   7.588  0.1156 -0.2476 -0.3706
   79CHL1   H7A 8264   6.079   6.044   7.618  1.1445  1.3803 -0.4000
   79CHL1   H7B 8265   6.139   5.879   7.592 -0.0126 -0.2907 -2.0989
   79CHL1    C8 8266   6.273   6.014   7.703 -0.0727  0.4983  0.4643
   79CHL1    H8 8267   6.269   6.124   7.719 -0.5465  0.4691  0.5680
   79CHL1   C14 8268   6.243   5.941   7.828  0.3981 -0.5050 -0.3889
   79CHL1   H14 8269   6.246   5.832   7.804 -2.8934 -0.9989  1.0524
   79CHL1   C15 8270   6.099   5.961   7.880 -0.2218  0.2376  0.4034
   79CHL1  H15A 8271   6.070   6.068   7.881  0.3338  0.3880  1.1330
   79CHL1  H15B 8272   6.032   5.908   7.810 -0.3360  0.4909  0.3223
   79CHL1   C16 8273   6.118   5.907   8.021 -0.3134  1.2474  0.5457
   79CHL1  H16A 8274   6.077   5.982   8.093 -0.3174  1.8464 -0.0784
   79CHL1  H16B 8275   6.060   5.812   8.033  0.1862  0.8513 -0.1845
   79CHL1   C17 8276   6.267   5.882   8.049 -0.3817  0.0985  0.1807
   79CHL1   H17 8277   6.260   5.773   8.025  0.3407  0.1284 -0.1932
   79CHL1   C13 8278   6.343   5.959   7.944 -0.4372 -0.3319  0.1501
   79CHL1   C18 8279   6.356   6.104   7.985  0.1791 -0.1110  0.3073
   79CHL1  H18A 8280   6.377   6.172   7.899  1.5779 -0.4432  0.3688
   79CHL1  H18B 8281   6.260   6.127   8.036  0.5888 -0.0187  1.0448
   79CHL1  H18C 8282   6.426   6.131   8.066 -0.2948  0.1523  0.6301
   79CHL1   C12 8283   6.482   5.906   7.895  0.8168 -0.2361 -0.6268
   79CHL1  H12A 8284   6.556   5.915   7.977 -1.3446 -1.6699  1.5530
   79CHL1  H12B 8285   6.475   5.798   7.874  1.2854 -0.1414 -1.2719
   79CHL1   C11 8286   6.522   5.985   7.771  0.4278  0.6207 -1.0488
   79CHL1  H11A 8287   6.536   6.094   7.788  2.4135  0.4748 -1.6519
   79CHL1  H11B 8288   6.618   5.946   7.731  2.2852  3.4648  0.4645
   79CHL1    C9 8289   6.416   5.980   7.657  0.5286  0.7549  0.5804
   79CHL1    H9 8290   6.411   5.869   7.644  0.5742  0.7130  0.9238
   79CHL1   C10 8291   6.461   6.047   7.514 -0.1139  0.1992 -0.8337
   79CHL1   C19 8292   6.502   6.191   7.535  0.1755 -0.3849 -0.8748
   79CHL1  H19A 8293   6.586   6.185   7.607  0.1482  2.3397 -0.5548
   79CHL1  H19B 8294   6.516   6.252   7.444 -1.3651  3.8783  1.6039
   79CHL1  H19C 8295   6.417   6.244   7.584  0.9524  0.5625 -0.5413
   79CHL1    C1 8296   6.575   5.961   7.459 -0.2857  0.0827  0.3668
   79CHL1   H1A 8297   6.656   5.950   7.535  1.0280 -0.0327 -1.0396
   79CHL1   H1B 8298   6.536   5.857   7.453  0.2530 -0.0257 -1.6191
   79CHL1    C2 8299   6.618   6.015   7.322 -1.2288  0.2177  0.1663
   79CHL1   H2A 8300   6.707   5.969   7.274 -0.3614  2.4257 -0.4435
   79CHL1   H2B 8301   6.645   6.122   7.335  1.9796 -0.5804  0.5394
   79CHL1   C20 8302   6.303   5.895   8.200 -1.0180 -0.1587  0.9026
   79CHL1   H20 8303   6.291   5.999   8.237  0.6210 -0.3232  1.9409
   79CHL1   C21 8304   6.459   5.881   8.219  0.1993  0.0223 -1.0777
   79CHL1  H21A 8305   6.514   5.958   8.161 -1.6329  0.1021 -2.7489
   79CHL1  H21B 8306   6.494   5.782   8.184 -0.2625 -0.2667 -0.7219
   79CHL1  H21C 8307   6.484   5.909   8.324 -2.4311  2.7785 -1.1323
   79CHL1   C22 8308   6.226   5.799   8.285  0.3156 -0.2439  0.7131
   79CHL1  H22A 8309   6.116   5.806   8.271 -0.0114 -1.6074  2.4503
   79CHL1  H22B 8310   6.261   5.696   8.263 -0.5835 -0.1026 -1.5377
   79CHL1   C23 8311   6.258   5.804   8.441  0.1457  0.2651  0.4015
   79CHL1  H23A 8312   6.360   5.764   8.458  0.1376  0.1601  0.2053
   79CHL1  H23B 8313   6.252   5.911   8.470  0.5305 -0.0751  1.7544
   79CHL1   C24 8314   6.169   5.707   8.521  0.0426 -0.4099 -0.1516
   79CHL1  H24A 8315   6.060   5.729   8.509  0.2819  0.1571 -1.3277
   79CHL1  H24B 8316   6.192   5.606   8.480  1.0205 -0.2442  0.0004
   79CHL1   C25 8317   6.198   5.703   8.673  0.4525  1.1011  0.7343
   79CHL1   H25 8318   6.304   5.672   8.684  0.1355  0.2639  1.5401
   79CHL1   C26 8319   6.189   5.839   8.729  0.6866  0.1678 -0.0764
   79CHL1  H26A 8320   6.278   5.900   8.704  0.5908  0.8320  1.1499
   79CHL1  H26B 8321   6.107   5.896   8.681  0.6668  0.9511  0.8817
   79CHL1  H26C 8322   6.184   5.837   8.840 -0.5354 -0.3792 -0.1344
   79CHL1   C27 8323   6.109   5.605   8.750  0.0493  0.0008 -1.2371
   79CHL1  H27A 8324   6.138   5.598   8.858 -0.9748 -0.3670 -0.9819
   79CHL1  H27B 8325   6.003   5.638   8.742 -0.2220 -0.4808  0.1203
   79CHL1  H27C 8326   6.126   5.504   8.708 -0.1293 -1.4492  1.9618
   80CHL1    C3 8327   4.811   2.695   6.988 -0.5538  0.0884 -0.4789
   80CHL1    H3 8328   4.888   2.620   6.960 -0.0290  0.2063  0.6312
   80CHL1    O3 8329   4.759   2.754   6.870 -0.6269  0.4422 -0.2541
   80CHL1   H3' 8330   4.725   2.685   6.813  0.2878 -0.5790  0.4344
   80CHL1    C4 8331   4.706   2.622   7.061  0.1650  0.0032  0.0524
   80CHL1   H4A 8332   4.619   2.690   7.047  2.0927  2.0646 -2.3684
   80CHL1   H4B 8333   4.674   2.535   7.000  1.6315 -1.9966  2.0913
   80CHL1    C5 8334   4.747   2.591   7.203 -0.6727 -0.3146 -0.7947
   80CHL1    C6 8335   4.753   2.462   7.243 -0.3683 -0.0880 -0.0642
   80CHL1    H6 8336   4.721   2.376   7.182  3.1604 -0.6732 -1.1745
   80CHL1    C7 8337   4.799   2.426   7.381  0.2364 -0.2758 -0.0777
   80CHL1   H7A 8338   4.747   2.331   7.407  1.7070 -0.8313  0.9002
   80CHL1   H7B 8339   4.908   2.405   7.371 -0.2299 -3.4847  0.9411
   80CHL1    C8 8340   4.798   2.533   7.491  0.4395 -0.5537  0.4399
   80CHL1    H8 8341   4.696   2.555   7.529  1.3921  2.5030  1.3762
   80CHL1   C14 8342   4.867   2.480   7.623  0.6536  0.2918  0.4087
   80CHL1   H14 8343   4.974   2.463   7.598  0.6965  0.9858  0.1019
   80CHL1   C15 8344   4.827   2.348   7.687 -0.0869  0.1726 -0.5476
   80CHL1  H15A 8345   4.716   2.335   7.691  0.0907 -1.0300  0.6426
   80CHL1  H15B 8346   4.864   2.258   7.635  0.9456  0.2743 -0.0066
   80CHL1   C16 8347   4.880   2.360   7.833 -0.2748 -0.4166  0.1337
   80CHL1  H16A 8348   4.812   2.343   7.920  0.5200 -1.1017  0.6267
   80CHL1  H16B 8349   4.961   2.285   7.848 -0.0188  0.0649  1.1817
   80CHL1   C17 8350   4.945   2.500   7.838  0.3346  0.3148 -0.3628
   80CHL1   H17 8351   5.052   2.490   7.809  0.5790 -0.3734  0.7251
   80CHL1   C13 8352   4.872   2.581   7.731 -0.1549 -0.1114  0.1408
   80CHL1   C18 8353   4.733   2.620   7.780 -0.8056 -0.5254 -0.5477
   80CHL1  H18A 8354   4.753   2.703   7.850 -2.9638 -1.1510  0.8714
   80CHL1  H18B 8355   4.665   2.667   7.705  0.3927  3.1833  0.5915
   80CHL1  H18C 8356   4.687   2.537   7.838  1.1573 -0.5305  1.0548
   80CHL1   C12 8357   4.960   2.695   7.673  0.1270  0.3066  0.3783
   80CHL1  H12A 8358   4.978   2.778   7.745 -0.1103 -1.0394  2.0202
   80CHL1  H12B 8359   5.055   2.650   7.637 -0.2497 -0.7411  0.6897
   80CHL1   C11 8360   4.902   2.763   7.543 -0.2554 -0.5568  0.1524
   80CHL1  H11A 8361   4.806   2.814   7.566  0.5231  1.1926 -0.3449
   80CHL1  H11B 8362   4.974   2.846   7.522 -0.3688 -0.5500 -0.1988
   80CHL1    C9 8363   4.876   2.651   7.433 -0.0901 -0.3290  0.2957
   80CHL1    H9 8364   4.977   2.612   7.409 -0.7772  0.1110 -3.5819
   80CHL1   C10 8365   4.806   2.697   7.294  0.0775  0.3745 -0.8540
   80CHL1   C19 8366   4.691   2.793   7.335  0.5111  0.1420  0.2229
   80CHL1  H19A 8367   4.735   2.879   7.390  1.4227 -0.4594  0.4481
   80CHL1  H19B 8368   4.647   2.832   7.241 -0.0775 -4.4994 -1.5546
   80CHL1  H19C 8369   4.616   2.732   7.390  0.1592  0.5471  0.1947
   80CHL1    C1 8370   4.915   2.772   7.212 -0.3960  0.0127 -0.0043
   80CHL1   H1A 8371   4.921   2.871   7.261 -0.5014  0.0098  0.0150
   80CHL1   H1B 8372   5.018   2.732   7.206 -0.4051  0.0016 -0.0841
   80CHL1    C2 8373   4.867   2.810   7.074 -0.2970  0.4214  0.0837
   80CHL1   H2A 8374   4.946   2.854   7.010  0.6587  1.9566  2.2660
   80CHL1   H2B 8375   4.787   2.885   7.089 -1.8513 -1.4837  1.6986
   80CHL1   C20 8376   4.954   2.549   7.981 -0.9643 -0.8059 -0.0387
   80CHL1   H20 8377   4.849   2.570   8.009 -0.3679  0.4791  1.3522
   80CHL1   C21 8378   5.021   2.683   8.006  0.1127  0.2489 -0.0429
   80CHL1  H21A 8379   5.054   2.701   8.110  0.6628  0.9684 -0.3382
   80CHL1  H21B 8380   4.949   2.764   7.983 -0.3412  0.4641  2.0857
   80CHL1  H21C 8381   5.120   2.682   7.955  0.1831  1.7761  0.0488
   80CHL1   C22 8382   4.998   2.445   8.078  0.3813 -0.9182 -0.2081
   80CHL1  H22A 8383   4.990   2.495   8.177 -1.5171 -0.1056 -0.7591
   80CHL1  H22B 8384   4.932   2.356   8.081  0.4586 -1.0360 -1.7390
   80CHL1   C23 8385   5.138   2.396   8.054 -0.3801 -0.0437  0.2348
   80CHL1  H23A 8386   5.149   2.371   7.947 -0.6503 -2.3555  0.7152
   80CHL1  H23B 8387   5.206   2.482   8.074 -0.1261  0.1616 -1.4578
   80CHL1   C24 8388   5.181   2.291   8.149  0.3690 -0.1938 -0.2452
   80CHL1  H24A 8389   5.123   2.198   8.126  1.4734 -1.4187  1.8298
   80CHL1  H24B 8390   5.287   2.263   8.131 -0.9056 -4.3267 -2.1175
   80CHL1   C25 8391   5.172   2.329   8.299 -0.3518 -0.6523 -0.1082
   80CHL1   H25 8392   5.066   2.356   8.318 -0.1648  0.6891 -0.8821
   80CHL1   C26 8393   5.208   2.205   8.383  0.5527 -0.4337  0.0822
   80CHL1  H26A 8394   5.183   2.212   8.491  1.7899 -1.6599  0.4551
   80CHL1  H26B 8395   5.158   2.116   8.339  2.2785 -1.4017  0.0386
   80CHL1  H26C 8396   5.316   2.180   8.377  0.7072 -0.3751  2.3772
   80CHL1   C27 8397   5.254   2.449   8.348 -0.1214  0.2088 -0.0511
   80CHL1  H27A 8398   5.232   2.477   8.453  0.4461 -0.8864  0.3620
   80CHL1  H27B 8399   5.361   2.427   8.329  0.0418 -0.9799  2.1790
   80CHL1  H27C 8400   5.214   2.527   8.279  0.0717 -1.3061 -1.9154
   81CHL1    C3 8401   2.866   3.982   6.904  0.5182  0.0250 -0.7868
   81CHL1    H3 8402   2.968   3.983   6.948  0.1111  3.9949  0.2996
   81CHL1    O3 8403   2.864   3.971   6.756 -0.1721 -0.2088  0.0488
   81CHL1   H3' 8404   2.928   4.030   6.716  0.2885 -1.8667 -1.7457
   81CHL1    C4 8405   2.777   3.861   6.962 -0.1031  0.3265  0.5742
   81CHL1   H4A 8406   2.678   3.862   6.911 -0.2878 -0.9507  0.8788
   81CHL1   H4B 8407   2.821   3.767   6.923 -1.4841  0.5357 -1.5550
   81CHL1    C5 8408   2.759   3.869   7.109  0.0909  0.2611  0.0104
   81CHL1    C6 8409   2.779   3.757   7.181 -0.4561 -0.1336  0.1150
   81CHL1    H6 8410   2.803   3.663   7.129  0.3767 -1.1645  2.3126
   81CHL1    C7 8411   2.771   3.755   7.333  0.0212 -0.3713  0.1067
   81CHL1   H7A 8412   2.699   3.673   7.357  0.5857 -1.1121 -0.7183
   81CHL1   H7B 8413   2.874   3.752   7.375 -0.0129  2.8527  0.5999
   81CHL1    C8 8414   2.716   3.888   7.393 -0.4229  0.1974  0.1731
   81CHL1    H8 8415   2.608   3.873   7.374 -0.1548 -1.6204 -0.0300
   81CHL1   C14 8416   2.752   3.898   7.540 -0.2344 -0.4637 -0.0510
   81CHL1   H14 8417   2.863   3.897   7.546 -0.2597 -1.5649  0.2216
   81CHL1   C15 8418   2.715   3.783   7.632 -0.1431  0.5971 -0.7557
   81CHL1  H15A 8419   2.609   3.774   7.599 -0.5604 -0.2599  0.7459
   81CHL1  H15B 8420   2.782   3.695   7.623 -0.3532  0.0389  2.5436
   81CHL1   C16 8421   2.711   3.843   7.777  0.5135  0.8855 -0.1008
   81CHL1  H16A 8422   2.619   3.823   7.836 -0.1291  2.0571 -0.6976
   81CHL1  H16B 8423   2.798   3.806   7.836 -0.7370  1.4728  2.1568
   81CHL1   C17 8424   2.726   3.996   7.757  0.0032 -0.3617  0.1696
   81CHL1   H17 8425   2.832   4.025   7.774 -0.2545  1.3885 -1.0761
   81CHL1   C13 8426   2.696   4.023   7.611  1.1968 -0.3584 -0.1455
   81CHL1   C18 8427   2.541   4.038   7.597 -0.1341  0.4841 -0.4337
   81CHL1  H18A 8428   2.509   4.128   7.653 -0.0102  0.5846 -0.5250
   81CHL1  H18B 8429   2.510   4.044   7.491 -0.8033  1.4899 -0.1866
   81CHL1  H18C 8430   2.503   3.953   7.658  3.6717  0.3248  1.8797
   81CHL1   C12 8431   2.769   4.137   7.543 -0.8300 -0.1840  0.1597
   81CHL1  H12A 8432   2.729   4.231   7.588 -0.7234  0.2353 -0.6145
   81CHL1  H12B 8433   2.875   4.110   7.562  0.4062  4.0993 -0.1036
   81CHL1   C11 8434   2.746   4.145   7.388 -0.5262  0.2438  0.0410
   81CHL1  H11A 8435   2.645   4.184   7.362 -0.9729 -0.9810 -0.0957
   81CHL1  H11B 8436   2.811   4.228   7.355  0.2530  0.4477  2.0243
   81CHL1    C9 8437   2.770   4.007   7.317  0.2457 -0.4754  0.2261
   81CHL1    H9 8438   2.880   3.992   7.313  0.3727  0.6644 -1.1237
   81CHL1   C10 8439   2.727   4.005   7.169  0.1829 -0.2996 -0.1315
   81CHL1   C19 8440   2.571   4.020   7.145 -0.3649 -0.1326 -0.6771
   81CHL1  H19A 8441   2.516   3.930   7.181 -2.2445  0.7937 -1.1787
   81CHL1  H19B 8442   2.527   4.099   7.209  0.6401  1.7188 -2.2266
   81CHL1  H19C 8443   2.553   4.052   7.040 -1.0337  1.5593 -0.0679
   81CHL1    C1 8444   2.789   4.132   7.096  0.0034  0.1334 -0.3194
   81CHL1   H1A 8445   2.734   4.220   7.138  2.1886  1.6814 -0.6076
   81CHL1   H1B 8446   2.895   4.134   7.127  0.1254  0.8303 -0.7677
   81CHL1    C2 8447   2.803   4.118   6.944  0.1777  0.5471  0.9561
   81CHL1   H2A 8448   2.868   4.198   6.905 -3.9203  2.8462 -1.5168
   81CHL1   H2B 8449   2.703   4.138   6.898  0.2474  0.8109  0.9207
   81CHL1   C20 8450   2.661   4.079   7.878  0.1163 -0.3936 -0.0667
   81CHL1   H20 8451   2.552   4.054   7.876 -0.1883  0.6175  2.2699
   81CHL1   C21 8452   2.680   4.233   7.857 -0.5023 -0.6663 -0.0882
   81CHL1  H21A 8453   2.787   4.262   7.841 -0.5114 -2.0895 -3.1519
   81CHL1  H21B 8454   2.631   4.292   7.937 -1.9958 -3.3542  1.0357
   81CHL1  H21C 8455   2.629   4.264   7.763  0.5486 -0.1368 -0.4952
   81CHL1   C22 8456   2.722   4.034   8.011  0.6011 -0.4420 -0.0906
   81CHL1  H22A 8457   2.740   3.925   8.006 -0.7276 -0.6286 -1.2813
   81CHL1  H22B 8458   2.820   4.084   8.021  0.9790 -0.9035 -1.3047
   81CHL1   C23 8459   2.634   4.070   8.136 -0.0468  0.6381  0.0027
   81CHL1  H23A 8460   2.625   4.180   8.140  0.8963  0.6587  2.4904
   81CHL1  H23B 8461   2.532   4.032   8.113 -0.6423 -0.6122  4.3642
   81CHL1   C24 8462   2.698   4.024   8.265 -0.8925 -0.4345  0.0016
   81CHL1  H24A 8463   2.682   3.915   8.281 -0.4272 -0.1435  2.6516
   81CHL1  H24B 8464   2.806   4.046   8.254 -0.2815 -3.1615  0.2342
   81CHL1   C25 8465   2.632   4.081   8.389  0.4417 -0.2346 -0.0322
   81CHL1   H25 8466   2.523   4.071   8.373  0.7014 -2.1892 -0.6996
   81CHL1   C26 8467   2.674   4.000   8.513  0.0004  0.7906 -0.0933
   81CHL1  H26A 8468   2.782   3.994   8.541  0.4583  0.3905 -1.8950
   81CHL1  H26B 8469   2.629   4.056   8.598 -2.2314 -0.2736 -0.5334
   81CHL1  H26C 8470   2.628   3.899   8.516 -0.4912  1.0424  1.4533
   81CHL1   C27 8471   2.668   4.229   8.409 -0.4378  0.0026  0.6174
   81CHL1  H27A 8472   2.764   4.221   8.464 -0.0125  1.5358  0.1324
   81CHL1  H27B 8473   2.678   4.282   8.311  1.9588 -0.8207  0.3760
   81CHL1  H27C 8474   2.581   4.277   8.458  0.9813  2.2448  1.0186
   82CHL1    C3 8475   3.572   4.369   7.090 -0.4679 -0.0866  0.3362
   82CHL1    H3 8476   3.464   4.347   7.103 -0.5828 -0.0630 -0.5581
   82CHL1    O3 8477   3.587   4.400   6.949  0.6175 -0.2185  0.7045
   82CHL1   H3' 8478   3.641   4.328   6.917 -0.4149  0.0435 -1.7213
   82CHL1    C4 8479   3.598   4.490   7.181 -0.7114 -0.1724  0.3448
   82CHL1   H4A 8480   3.698   4.536   7.166 -0.7317 -0.2448 -0.0208
   82CHL1   H4B 8481   3.531   4.574   7.152  0.2615  0.9983  1.4065
   82CHL1    C5 8482   3.577   4.455   7.328 -0.5891 -0.0821 -0.1965
   82CHL1    C6 8483   3.493   4.527   7.407 -0.5989  0.7252  0.0196
   82CHL1    H6 8484   3.434   4.609   7.364 -1.3334 -0.5597 -1.4730
   82CHL1    C7 8485   3.479   4.484   7.552  0.1432 -0.1796 -0.5161
   82CHL1   H7A 8486   3.473   4.574   7.617 -1.2663  1.0367 -2.2921
   82CHL1   H7B 8487   3.377   4.441   7.560 -0.8474  1.1765 -4.5647
   82CHL1    C8 8488   3.588   4.395   7.613  0.8488  0.0359  0.6030
   82CHL1    H8 8489   3.674   4.463   7.626  2.3868 -1.8387  0.5039
   82CHL1   C14 8490   3.558   4.333   7.750 -0.4381  0.0147  0.1658
   82CHL1   H14 8491   3.464   4.275   7.742  1.0070 -2.4171  0.3533
   82CHL1   C15 8492   3.528   4.438   7.866  0.3217 -0.9015 -0.2296
   82CHL1  H15A 8493   3.607   4.516   7.873  0.4613 -1.1684  1.5119
   82CHL1  H15B 8494   3.432   4.493   7.855  0.5973 -0.7593 -1.9777
   82CHL1   C16 8495   3.533   4.351   8.000 -0.2420  1.1966  0.2445
   82CHL1  H16A 8496   3.604   4.392   8.076  1.9087 -2.0235  0.0496
   82CHL1  H16B 8497   3.433   4.356   8.049 -0.2900 -1.8549  0.5081
   82CHL1   C17 8498   3.587   4.213   7.951  0.4679 -0.2546  0.5063
   82CHL1   H17 8499   3.509   4.140   7.921 -1.2093  1.7454 -0.0221
   82CHL1   C13 8500   3.658   4.239   7.809  0.5778  0.3519 -0.5827
   82CHL1   C18 8501   3.794   4.307   7.826 -0.2359  0.1806  0.2018
   82CHL1  H18A 8502   3.785   4.406   7.875 -0.7554 -0.2231  0.9378
   82CHL1  H18B 8503   3.855   4.258   7.905 -1.3318  1.3517  1.8079
   82CHL1  H18C 8504   3.857   4.321   7.735  1.1464 -0.6265  1.0244
   82CHL1   C12 8505   3.661   4.119   7.716 -0.5464  0.1207 -0.1631
   82CHL1  H12A 8506   3.728   4.037   7.748  0.0111  0.9348  0.7920
   82CHL1  H12B 8507   3.556   4.083   7.720 -0.2960 -0.4762  1.1192
   82CHL1   C11 8508   3.709   4.162   7.574 -0.0847 -0.0712  0.4717
   82CHL1  H11A 8509   3.813   4.201   7.575 -0.3815  0.7223  0.3650
   82CHL1  H11B 8510   3.708   4.071   7.511 -1.7091  1.6627 -2.0948
   82CHL1    C9 8511   3.613   4.276   7.519 -0.4196  0.1668  0.1123
   82CHL1    H9 8512   3.516   4.223   7.502 -0.4690  0.4808 -0.5904
   82CHL1   C10 8513   3.648   4.322   7.373  0.4051  0.1750  0.7234
   82CHL1   C19 8514   3.797   4.357   7.365  0.4391  1.0573 -0.4144
   82CHL1  H19A 8515   3.828   4.414   7.275 -0.0805  3.8414  1.0936
   82CHL1  H19B 8516   3.825   4.413   7.457 -0.9840  2.1703 -0.6436
   82CHL1  H19C 8517   3.861   4.267   7.375  0.4622  1.3278  2.4509
   82CHL1    C1 8518   3.608   4.211   7.275  0.2337 -0.0520  0.2874
   82CHL1   H1A 8519   3.655   4.113   7.296 -0.6404 -1.1946 -2.8167
   82CHL1   H1B 8520   3.498   4.201   7.286  0.1248  2.1296  1.4792
   82CHL1    C2 8521   3.650   4.250   7.132 -0.3953 -0.4529  0.4497
   82CHL1   H2A 8522   3.629   4.175   7.052 -0.2130 -0.8540  0.7793
   82CHL1   H2B 8523   3.758   4.270   7.119 -0.4427  0.6892  1.7196
   82CHL1   C20 8524   3.669   4.153   8.068 -0.0468 -0.6938  0.0971
   82CHL1   H20 8525   3.745   4.228   8.097 -0.6697  0.7488 -1.9324
   82CHL1   C21 8526   3.735   4.022   8.032 -0.1237 -0.2466 -0.1747
   82CHL1  H21A 8527   3.830   4.032   7.974  1.8089  1.4830  3.1332
   82CHL1  H21B 8528   3.670   3.959   7.967  0.8231 -3.2769  1.7063
   82CHL1  H21C 8529   3.756   3.959   8.122 -1.8729 -0.7792 -0.1249
   82CHL1   C22 8530   3.579   4.119   8.196  0.2733 -0.2863 -0.1715
   82CHL1  H22A 8531   3.493   4.186   8.219  0.3504 -0.7524  1.5501
   82CHL1  H22B 8532   3.535   4.018   8.190 -2.0689  0.7530 -1.3868
   82CHL1   C23 8533   3.664   4.118   8.319  0.0909 -0.0783  0.8985
   82CHL1  H23A 8534   3.759   4.065   8.295 -0.0548  0.2414 -0.3906
   82CHL1  H23B 8535   3.687   4.224   8.340  0.5286  0.9172 -4.1090
   82CHL1   C24 8536   3.608   4.059   8.447 -0.0529 -0.4365 -0.3073
   82CHL1  H24A 8537   3.523   4.128   8.467  1.4610  1.1993  0.5376
   82CHL1  H24B 8538   3.578   3.955   8.418 -0.1908  0.0410 -1.9330
   82CHL1   C25 8539   3.693   4.067   8.572 -0.3991 -0.1943  1.0406
   82CHL1   H25 8540   3.801   4.063   8.546 -0.6514  2.5874 -0.6421
   82CHL1   C26 8541   3.677   4.207   8.642  0.3734  0.1584 -0.0304
   82CHL1  H26A 8542   3.735   4.196   8.736  0.5974 -3.8156 -0.5481
   82CHL1  H26B 8543   3.716   4.283   8.571 -0.8863  0.6145 -0.2586
   82CHL1  H26C 8544   3.572   4.236   8.668  0.3561 -0.2994  0.4162
   82CHL1   C27 8545   3.661   3.959   8.675 -0.2665  0.2859  0.0551
   82CHL1  H27A 8546   3.666   3.861   8.624 -1.7974  0.0563  0.3230
   82CHL1  H27B 8547   3.732   3.954   8.761  0.4801  1.1070 -0.5054
   82CHL1  H27C 8548   3.558   3.973   8.714 -0.1395 -0.9837  0.9035
   83CHL1    C3 8549   6.482   5.425   6.903  0.3590  0.2657 -0.4044
   83CHL1    H3 8550   6.579   5.477   6.917  0.3845  0.4351 -1.2154
   83CHL1    O3 8551   6.460   5.414   6.766  0.0990  0.3066 -0.4648
   83CHL1   H3' 8552   6.461   5.505   6.734  0.1385  0.4054 -0.1828
   83CHL1    C4 8553   6.482   5.289   6.970 -0.0227 -0.3252  0.5501
   83CHL1   H4A 8554   6.389   5.239   6.934  0.4522 -1.6887  1.1770
   83CHL1   H4B 8555   6.565   5.229   6.926 -0.1029 -1.3979  1.8346
   83CHL1    C5 8556   6.491   5.286   7.124 -0.4384 -0.4628  0.0417
   83CHL1    C6 8557   6.585   5.213   7.194  0.5459  0.3909  0.6862
   83CHL1    H6 8558   6.641   5.142   7.131 -0.8752  0.5567 -0.7910
   83CHL1    C7 8559   6.591   5.194   7.340  0.0777 -0.0233  0.8690
   83CHL1   H7A 8560   6.592   5.087   7.371  0.4428 -0.3419 -0.2371
   83CHL1   H7B 8561   6.686   5.238   7.378  0.3175  1.1039 -1.0038
   83CHL1    C8 8562   6.471   5.269   7.410  0.1531  0.2271  0.3038
   83CHL1    H8 8563   6.386   5.199   7.403  0.7430 -0.4533 -0.1728
   83CHL1   C14 8564   6.513   5.302   7.556  0.3181  0.4403  0.1448
   83CHL1   H14 8565   6.590   5.381   7.548  2.0566 -1.3935 -1.6373
   83CHL1   C15 8566   6.577   5.187   7.649  0.1929  0.2332  0.2413
   83CHL1  H15A 8567   6.523   5.091   7.643 -0.2500  0.5061 -0.1491
   83CHL1  H15B 8568   6.682   5.167   7.619 -0.0320 -1.4732  0.5762
   83CHL1   C16 8569   6.580   5.262   7.787 -0.3476  0.0665 -0.1108
   83CHL1  H16A 8570   6.557   5.191   7.869  0.6535 -0.7389 -0.5270
   83CHL1  H16B 8571   6.683   5.292   7.813 -1.1066  1.1225  1.8200
   83CHL1   C17 8572   6.478   5.379   7.776  0.1521 -0.3874  0.1652
   83CHL1   H17 8573   6.539   5.472   7.774  0.4429 -0.5671  0.5273
   83CHL1   C13 8574   6.403   5.365   7.640 -0.6815  0.2953  0.1188
   83CHL1   C18 8575   6.289   5.272   7.661 -0.5294  0.0285  0.1348
   83CHL1  H18A 8576   6.215   5.343   7.705  0.3848  0.2580  1.3271
   83CHL1  H18B 8577   6.253   5.242   7.561 -0.7741 -1.5805  0.7015
   83CHL1  H18C 8578   6.318   5.184   7.721 -3.0039 -0.5098  0.5833
   83CHL1   C12 8579   6.366   5.499   7.571  0.1471 -0.7017 -0.7722
   83CHL1  H12A 8580   6.282   5.546   7.627  1.7800  2.4393 -0.8436
   83CHL1  H12B 8581   6.454   5.567   7.571 -0.8566  0.6053 -1.4488
   83CHL1   C11 8582   6.331   5.472   7.425 -0.1841 -0.0329 -0.2080
   83CHL1  H11A 8583   6.230   5.426   7.436 -0.6444  0.6933 -1.2831
   83CHL1  H11B 8584   6.311   5.572   7.380 -0.5538  0.9053  1.9542
   83CHL1    C9 8585   6.437   5.394   7.343  0.8868 -0.3406 -0.0424
   83CHL1    H9 8586   6.531   5.454   7.347 -0.3553  1.5155  3.1613
   83CHL1   C10 8587   6.391   5.376   7.191  0.0104  0.8941  0.0488
   83CHL1   C19 8588   6.251   5.318   7.181  0.1827  0.5871  0.1666
   83CHL1  H19A 8589   6.174   5.394   7.208 -1.7644 -1.0585 -0.7289
   83CHL1  H19B 8590   6.214   5.295   7.079  0.6154 -1.9011  0.5547
   83CHL1  H19C 8591   6.231   5.222   7.233  0.4923 -0.5274 -1.7299
   83CHL1    C1 8592   6.393   5.511   7.115  0.1611  0.6359  0.0833
   83CHL1   H1A 8593   6.322   5.580   7.167 -0.0767  0.0960  0.4830
   83CHL1   H1B 8594   6.487   5.567   7.131 -0.3350  2.0920 -1.8935
   83CHL1    C2 8595   6.371   5.508   6.959 -0.3586 -0.1188 -0.2395
   83CHL1   H2A 8596   6.376   5.608   6.911  2.4262 -0.8431 -1.5710
   83CHL1   H2B 8597   6.276   5.453   6.943 -1.3049  1.7748 -1.1959
   83CHL1   C20 8598   6.409   5.400   7.913  0.7513 -0.2205 -0.0044
   83CHL1   H20 8599   6.351   5.307   7.927  0.0566  0.2754  0.4239
   83CHL1   C21 8600   6.311   5.517   7.914  0.5629 -0.6573 -0.7031
   83CHL1  H21A 8601   6.274   5.524   8.019  0.9470 -1.5782 -0.5074
   83CHL1  H21B 8602   6.227   5.497   7.844 -0.2312  1.5467 -0.4270
   83CHL1  H21C 8603   6.356   5.610   7.874  1.4251 -0.4159  0.7767
   83CHL1   C22 8604   6.517   5.418   8.025 -0.0022 -0.2388  0.3129
   83CHL1  H22A 8605   6.590   5.334   8.017 -0.7397 -0.7192 -1.8118
   83CHL1  H22B 8606   6.567   5.516   8.012  0.7897 -0.8094 -1.0820
   83CHL1   C23 8607   6.457   5.413   8.171  0.1533 -0.2172 -0.3572
   83CHL1  H23A 8608   6.447   5.518   8.205  0.6002  0.1576 -1.3751
   83CHL1  H23B 8609   6.362   5.355   8.170 -0.0114 -0.0529  1.9660
   83CHL1   C24 8610   6.555   5.343   8.269 -0.1147  0.7941  0.0064
   83CHL1  H24A 8611   6.550   5.235   8.240 -1.5198  0.8183  0.1159
   83CHL1  H24B 8612   6.658   5.369   8.236  0.4887 -2.5613 -0.9966
   83CHL1   C25 8613   6.527   5.356   8.417 -0.1010  0.2630  0.5547
   83CHL1   H25 8614   6.497   5.462   8.431 -3.5080 -0.6109  0.3951
   83CHL1   C26 8615   6.413   5.263   8.464  0.1897 -0.2511 -0.0427
   83CHL1  H26A 8616   6.441   5.158   8.488  1.3548 -0.1161 -0.7996
   83CHL1  H26B 8617   6.363   5.305   8.555  1.4449  1.9289 -0.3125
   83CHL1  H26C 8618   6.330   5.251   8.392 -1.2078  1.8040  1.1432
   83CHL1   C27 8619   6.646   5.330   8.509 -0.5430  0.3032 -0.1670
   83CHL1  H27A 8620   6.626   5.360   8.614  3.0086 -0.5243  0.8075
   83CHL1  H27B 8621   6.652   5.220   8.499  0.3630  0.2083  1.3520
   83CHL1  H27C 8622   6.745   5.363   8.473 -0.6190  1.6821  0.8740
   84CHL1    C3 8623   2.047   1.449   6.981  0.6674  0.0690 -0.2871
   84CHL1    H3 8624   2.127   1.383   7.018  0.5848  0.2707  0.2630
   84CHL1    O3 8625   2.045   1.454   6.838 -0.3684 -0.5741 -0.1711
   84CHL1   H3' 8626   1.957   1.486   6.817 -0.0347 -0.1798 -1.0026
   84CHL1    C4 8627   1.912   1.399   7.042 -0.1822  0.2986 -0.0417
   84CHL1   H4A 8628   1.834   1.473   7.013  0.4542  0.8477 -0.3626
   84CHL1   H4B 8629   1.882   1.297   7.009  0.5782  0.3348 -0.8484
   84CHL1    C5 8630   1.916   1.402   7.195  0.0196  0.9970  0.8332
   84CHL1    C6 8631   1.896   1.291   7.267 -0.0099  0.1602 -0.1137
   84CHL1    H6 8632   1.884   1.195   7.215 -0.4300  1.1179 -1.8066
   84CHL1    C7 8633   1.894   1.292   7.413  0.3415 -0.1737  0.2856
   84CHL1   H7A 8634   1.812   1.231   7.455 -0.2441  0.5921  0.2472
   84CHL1   H7B 8635   1.991   1.252   7.449 -0.1793 -2.2179 -0.4956
   84CHL1    C8 8636   1.877   1.438   7.471 -0.5647  0.0823 -0.6514
   84CHL1    H8 8637   1.774   1.473   7.453 -1.1054  0.4020  2.7706
   84CHL1   C14 8638   1.907   1.438   7.620 -1.1353  0.3313  0.2085
   84CHL1   H14 8639   2.012   1.405   7.628 -1.1913 -0.1117 -0.8055
   84CHL1   C15 8640   1.833   1.334   7.710 -0.4071 -0.1982  0.5272
   84CHL1  H15A 8641   1.727   1.333   7.680 -0.4447  1.9269  0.5406
   84CHL1  H15B 8642   1.861   1.227   7.698 -2.8755 -0.4917 -3.2882
   84CHL1   C16 8643   1.850   1.391   7.852 -0.3745 -0.2739  0.9507
   84CHL1  H16A 8644   1.752   1.393   7.905  0.0134 -0.4905  1.6935
   84CHL1  H16B 8645   1.929   1.339   7.909  1.6613  1.5913 -0.1233
   84CHL1   C17 8646   1.915   1.531   7.833  0.5306 -0.7901 -0.4840
   84CHL1   H17 8647   2.024   1.508   7.839  1.0812  1.4413 -1.3520
   84CHL1   C13 8648   1.895   1.574   7.689 -0.3021 -0.2226  0.0609
   84CHL1   C18 8649   1.747   1.629   7.671 -1.0391  0.7218  0.2662
   84CHL1  H18A 8650   1.726   1.641   7.562 -3.7604  4.3907  1.0958
   84CHL1  H18B 8651   1.684   1.543   7.703  1.4926 -0.2779  2.7199
   84CHL1  H18C 8652   1.730   1.724   7.726  0.3050  1.3441 -0.3668
   84CHL1   C12 8653   2.003   1.668   7.626 -0.2004  0.5462 -0.4656
   84CHL1  H12A 8654   1.991   1.773   7.660 -0.0567  0.0203  1.2350
   84CHL1  H12B 8655   2.102   1.623   7.647 -0.4872 -0.4690 -1.2326
   84CHL1   C11 8656   1.991   1.675   7.470 -0.4237 -0.5397 -0.5097
   84CHL1  H11A 8657   1.909   1.748   7.453  1.0145  1.0603 -0.7044
   84CHL1  H11B 8658   2.082   1.724   7.428 -2.4281  3.2386 -0.6462
   84CHL1    C9 8659   1.978   1.534   7.404 -0.3263 -0.1479  0.1105
   84CHL1    H9 8660   2.079   1.489   7.416  1.1675  2.0604 -3.2315
   84CHL1   C10 8661   1.952   1.541   7.254  0.7623  0.2572  0.7199
   84CHL1   C19 8662   1.825   1.634   7.222  0.4025 -0.4145  0.4140
   84CHL1  H19A 8663   1.841   1.737   7.259  3.3074 -0.2364 -1.1346
   84CHL1  H19B 8664   1.822   1.642   7.111  2.8343 -1.2354  0.2607
   84CHL1  H19C 8665   1.733   1.589   7.266 -0.1619  0.8547  0.5430
   84CHL1    C1 8666   2.076   1.598   7.182  0.1660  0.8208 -0.4281
   84CHL1   H1A 8667   2.101   1.702   7.212 -0.8627  0.9103  0.1378
   84CHL1   H1B 8668   2.172   1.545   7.201  0.3096  0.1583 -2.7858
   84CHL1    C2 8669   2.077   1.594   7.029 -0.1133  0.0891 -0.3533
   84CHL1   H2A 8670   2.176   1.633   6.998 -0.4131 -0.4099 -1.9856
   84CHL1   H2B 8671   2.000   1.658   6.982 -1.0862 -2.0910 -1.8105
   84CHL1   C20 8672   1.862   1.628   7.940  0.6817  0.3874 -0.2080
   84CHL1   H20 8673   1.753   1.641   7.922  0.7689 -1.0122 -1.9225
   84CHL1   C21 8674   1.921   1.766   7.936  0.6744 -0.8363  0.3506
   84CHL1  H21A 8675   1.917   1.820   8.034 -0.8388  1.4040 -0.8998
   84CHL1  H21B 8676   1.874   1.824   7.854  1.9326  1.7416  1.4001
   84CHL1  H21C 8677   2.025   1.774   7.898  0.4734  1.0915  0.1299
   84CHL1   C22 8678   1.870   1.578   8.084  0.2286 -0.1508  0.0522
   84CHL1  H22A 8679   1.824   1.657   8.147  0.7314 -0.6063  0.9901
   84CHL1  H22B 8680   1.800   1.492   8.093  1.0163 -0.7167  0.7328
   84CHL1   C23 8681   2.019   1.563   8.136  0.4454 -0.4288  1.0742
   84CHL1  H23A 8682   2.054   1.465   8.097 -0.4584 -1.1887  2.1150
   84CHL1  H23B 8683   2.089   1.638   8.095 -1.9239 -0.5959 -3.5908
   84CHL1   C24 8684   2.031   1.549   8.294 -0.9594 -0.1813 -0.1634
   84CHL1  H24A 8685   1.983   1.637   8.342 -0.1336 -0.1862  0.6942
   84CHL1  H24B 8686   1.974   1.459   8.326 -2.8329  1.3079  0.7938
   84CHL1   C25 8687   2.175   1.526   8.348  0.3853 -0.1298 -0.1331
   84CHL1   H25 8688   2.239   1.605   8.304 -1.7597  2.8276  1.8781
   84CHL1   C26 8689   2.175   1.543   8.501  0.7202 -0.0003  0.2702
   84CHL1  H26A 8690   2.138   1.643   8.530 -1.2729  0.0001 -2.1043
   84CHL1  H26B 8691   2.107   1.468   8.548  0.5441 -1.8061 -2.7438
   84CHL1  H26C 8692   2.280   1.530   8.535  1.0888  0.0616 -0.8332
   84CHL1   C27 8693   2.223   1.391   8.309  0.1456  0.9745 -0.9566
   84CHL1  H27A 8694   2.319   1.359   8.355  1.2963  0.4959 -3.5558
   84CHL1  H27B 8695   2.158   1.305   8.335  0.8368  0.3904 -1.1154
   84CHL1  H27C 8696   2.235   1.386   8.198  0.3483  0.5224 -0.9199
   85CHL1    C3 8697   1.562   5.620   6.876  0.3059 -0.1455 -0.8720
   85CHL1    H3 8698   1.598   5.724   6.885  1.5323 -0.5347 -1.2629
   85CHL1    O3 8699   1.558   5.570   6.745 -0.0652 -0.1054  0.1549
   85CHL1   H3' 8700   1.536   5.477   6.756 -1.1736  0.2384  0.8583
   85CHL1    C4 8701   1.643   5.530   6.974 -0.2553 -0.1287 -1.1074
   85CHL1   H4A 8702   1.602   5.428   6.958  2.4050 -1.3748 -0.1036
   85CHL1   H4B 8703   1.748   5.522   6.939  0.3106 -0.2858  0.6309
   85CHL1    C5 8704   1.622   5.563   7.120 -0.5280 -0.0793 -1.2644
   85CHL1    C6 8705   1.726   5.600   7.197  0.3122  0.3499  0.3868
   85CHL1    H6 8706   1.828   5.611   7.157  0.1316  0.4996 -0.0449
   85CHL1    C7 8707   1.713   5.637   7.342 -0.3125 -0.0434 -0.0936
   85CHL1   H7A 8708   1.799   5.600   7.402 -0.0009 -1.2982 -1.2917
   85CHL1   H7B 8709   1.718   5.748   7.354 -3.3309  0.2132 -0.8655
   85CHL1    C8 8710   1.583   5.593   7.409  0.1482 -0.0440 -0.0225
   85CHL1    H8 8711   1.592   5.482   7.416 -1.5659 -0.1113  1.4512
   85CHL1   C14 8712   1.564   5.643   7.549 -0.0763  0.1806 -0.1334
   85CHL1   H14 8713   1.549   5.751   7.527  0.0520 -0.4765 -3.6600
   85CHL1   C15 8714   1.679   5.624   7.648  0.5615 -0.5577  0.1164
   85CHL1  H15A 8715   1.728   5.525   7.652  0.3753 -0.6408  0.3752
   85CHL1  H15B 8716   1.749   5.704   7.614  2.2386 -1.6417  0.9741
   85CHL1   C16 8717   1.602   5.664   7.777 -0.3777 -0.4423 -0.6576
   85CHL1  H16A 8718   1.625   5.589   7.855 -1.5447 -0.2033 -0.0724
   85CHL1  H16B 8719   1.644   5.758   7.819  0.8254 -1.9376  1.5626
   85CHL1   C17 8720   1.451   5.678   7.751  0.5379 -0.0466  0.0299
   85CHL1   H17 8721   1.428   5.785   7.732  0.8191  0.0418  0.1861
   85CHL1   C13 8722   1.432   5.604   7.614  0.8308 -0.1195  0.9781
   85CHL1   C18 8723   1.427   5.450   7.634 -0.4155  0.6821  0.5047
   85CHL1  H18A 8724   1.348   5.421   7.706  0.0039  1.1729  1.1645
   85CHL1  H18B 8725   1.430   5.391   7.539  1.8892  0.7889  0.4780
   85CHL1  H18C 8726   1.525   5.414   7.671 -0.2384  1.0606  0.3970
   85CHL1   C12 8727   1.313   5.660   7.532 -0.6073  0.2235  0.2632
   85CHL1  H12A 8728   1.216   5.615   7.561  0.0596 -0.5571  1.3198
   85CHL1  H12B 8729   1.306   5.770   7.546 -0.3108  0.6734 -2.8888
   85CHL1   C11 8730   1.331   5.628   7.386 -0.9260  0.1706  1.1084
   85CHL1  H11A 8731   1.298   5.521   7.391 -1.1416  0.1874  0.2740
   85CHL1  H11B 8732   1.250   5.673   7.324 -2.3072 -3.4451  0.0999
   85CHL1    C9 8733   1.470   5.631   7.318  0.3051  0.3831 -0.2779
   85CHL1    H9 8734   1.489   5.738   7.293  0.1439  0.3085 -0.7257
   85CHL1   C10 8735   1.474   5.560   7.176  0.1379  0.3026  0.2918
   85CHL1   C19 8736   1.434   5.413   7.187  0.8518  0.4228 -0.3094
   85CHL1  H19A 8737   1.491   5.356   7.264 -3.2342 -2.1135  0.9888
   85CHL1  H19B 8738   1.328   5.406   7.220  1.5382  1.8830  2.3813
   85CHL1  H19C 8739   1.438   5.351   7.095 -0.3505 -0.3932  0.1640
   85CHL1    C1 8740   1.389   5.643   7.077 -0.2417 -0.7008  0.4239
   85CHL1   H1A 8741   1.280   5.649   7.101 -0.6511 -1.6050 -1.0957
   85CHL1   H1B 8742   1.437   5.742   7.085 -0.7786 -0.3746 -0.2459
   85CHL1    C2 8743   1.414   5.600   6.928 -0.3075 -0.2865 -0.4545
   85CHL1   H2A 8744   1.350   5.663   6.863  0.6437  1.2090  0.0319
   85CHL1   H2B 8745   1.381   5.494   6.922  0.4658 -0.8404  3.5032
   85CHL1   C20 8746   1.354   5.647   7.872 -0.6927 -0.2776 -0.0165
   85CHL1   H20 8747   1.357   5.537   7.889 -0.9869 -0.3126 -0.1761
   85CHL1   C21 8748   1.211   5.673   7.834 -0.3042  0.0833 -0.2790
   85CHL1  H21A 8749   1.146   5.651   7.921 -2.3587 -1.9372 -2.2600
   85CHL1  H21B 8750   1.168   5.605   7.757  0.7146  0.0145 -0.7993
   85CHL1  H21C 8751   1.202   5.772   7.784 -0.7433 -1.1304 -2.6896
   85CHL1   C22 8752   1.405   5.707   8.007 -0.0499 -0.3429 -0.2806
   85CHL1  H22A 8753   1.511   5.678   8.021 -0.0366 -0.6196 -0.9229
   85CHL1  H22B 8754   1.412   5.817   7.998  1.0504 -0.5045 -1.5213
   85CHL1   C23 8755   1.324   5.675   8.131  0.1867  0.0775 -0.0006
   85CHL1  H23A 8756   1.223   5.718   8.116 -0.3009 -2.0346 -3.2311
   85CHL1  H23B 8757   1.317   5.564   8.134  0.6473 -0.1293 -3.8765
   85CHL1   C24 8758   1.392   5.727   8.259 -0.5011 -0.1444 -0.2401
   85CHL1  H24A 8759   1.498   5.701   8.277 -0.5483 -0.6865 -0.7221
   85CHL1  H24B 8760   1.400   5.838   8.257  1.6010 -0.2891 -1.7794
   85CHL1   C25 8761   1.341   5.671   8.398  0.1023  0.0955 -0.2414
   85CHL1   H25 8762   1.232   5.684   8.387 -0.1094 -1.3988 -0.0259
   85CHL1   C26 8763   1.373   5.521   8.412  0.3314 -0.3043 -0.7843
   85CHL1  H26A 8764   1.484   5.516   8.408  0.5980  3.6696 -0.6171
   85CHL1  H26B 8765   1.352   5.476   8.511  0.1250  1.7069  0.1163
   85CHL1  H26C 8766   1.333   5.467   8.324 -0.7520  0.1931 -0.5991
   85CHL1   C27 8767   1.404   5.754   8.521  0.4186  0.4193  0.1853
   85CHL1  H27A 8768   1.361   5.857   8.518 -0.2617  0.1263 -0.3684
   85CHL1  H27B 8769   1.387   5.702   8.618 -1.2115  1.0950  0.2799
   85CHL1  H27C 8770   1.514   5.768   8.516  0.4779 -0.2807 -0.5155
   86CHL1    C3 8771   3.724   3.325   7.033  0.1233 -0.0104  0.6495
   86CHL1    H3 8772   3.739   3.435   7.030  2.7372 -0.3602 -0.3913
   86CHL1    O3 8773   3.748   3.276   6.905 -0.1706 -0.2543 -0.2977
   86CHL1   H3' 8774   3.719   3.186   6.922 -4.1257  1.0250 -0.0010
   86CHL1    C4 8775   3.826   3.246   7.116 -0.1156  0.5841 -0.5488
   86CHL1   H4A 8776   3.812   3.137   7.101 -2.0232  0.5869  0.9600
   86CHL1   H4B 8777   3.925   3.281   7.080 -0.0373  2.1062  1.0460
   86CHL1    C5 8778   3.797   3.267   7.265 -0.7967  0.3557  0.1175
   86CHL1    C6 8779   3.888   3.305   7.356  0.6407  0.1618  0.1360
   86CHL1    H6 8780   3.987   3.335   7.320  0.9131  0.8977  1.4566
   86CHL1    C7 8781   3.863   3.311   7.504 -0.8944  0.7341  0.0167
   86CHL1   H7A 8782   3.952   3.285   7.565 -1.4907 -1.6333 -0.0574
   86CHL1   H7B 8783   3.849   3.420   7.517 -1.8367  0.6820 -0.4579
   86CHL1    C8 8784   3.735   3.225   7.548 -0.2923  0.6475  0.3341
   86CHL1    H8 8785   3.758   3.118   7.530  0.1562  0.2896  2.8356
   86CHL1   C14 8786   3.696   3.269   7.687 -0.4454  0.1370 -0.0509
   86CHL1   H14 8787   3.663   3.375   7.679 -0.7733  0.0594  0.2672
   86CHL1   C15 8788   3.805   3.268   7.798  0.6652  0.3454  0.1762
   86CHL1  H15A 8789   3.872   3.181   7.778  2.3497  0.7819  3.6243
   86CHL1  H15B 8790   3.862   3.363   7.804 -1.8024  1.9737 -1.3275
   86CHL1   C16 8791   3.729   3.235   7.928 -0.7364 -0.6027  0.3634
   86CHL1  H16A 8792   3.759   3.135   7.966  1.1229  0.0051  0.5179
   86CHL1  H16B 8793   3.737   3.318   8.002 -2.2766 -0.3477  0.2563
   86CHL1   C17 8794   3.577   3.224   7.893  0.2125 -0.1941 -0.0410
   86CHL1   H17 8795   3.544   3.330   7.895  2.5640  0.6329 -1.9577
   86CHL1   C13 8796   3.582   3.184   7.745 -0.0700  1.0523  0.2029
   86CHL1   C18 8797   3.622   3.036   7.739  0.7150  0.1465 -0.6134
   86CHL1  H18A 8798   3.542   2.970   7.779  0.8949  0.5178  0.3755
   86CHL1  H18B 8799   3.643   2.991   7.640 -0.3389  0.7823 -1.1345
   86CHL1  H18C 8800   3.710   3.010   7.802  0.6638  1.3057 -0.0465
   86CHL1   C12 8801   3.458   3.216   7.660  0.7053  0.1099 -0.4497
   86CHL1  H12A 8802   3.365   3.162   7.690  0.8036 -0.7998 -1.6957
   86CHL1  H12B 8803   3.444   3.325   7.670  2.8643  0.4126 -0.5795
   86CHL1   C11 8804   3.485   3.195   7.513 -0.5804  0.1263  0.4093
   86CHL1  H11A 8805   3.495   3.086   7.495  0.7134  0.1787  0.7470
   86CHL1  H11B 8806   3.396   3.236   7.461 -1.0414  0.8267  1.7302
   86CHL1    C9 8807   3.620   3.256   7.460  0.3760  0.4314 -0.3884
   86CHL1    H9 8808   3.604   3.365   7.472  1.4116  0.3567  2.0924
   86CHL1   C10 8809   3.652   3.224   7.313 -0.1307 -0.8676  0.3266
   86CHL1   C19 8810   3.628   3.069   7.286 -0.3265  0.1506  0.0162
   86CHL1  H19A 8811   3.524   3.041   7.315 -0.7153  0.7889 -0.7417
   86CHL1  H19B 8812   3.653   3.034   7.183  1.1767  0.7416  0.1641
   86CHL1  H19C 8813   3.689   3.015   7.361 -0.1598 -0.1674 -0.3454
   86CHL1    C1 8814   3.550   3.291   7.219  0.5112  0.4988 -0.6106
   86CHL1   H1A 8815   3.449   3.249   7.242  1.6188 -0.9265  1.8755
   86CHL1   H1B 8816   3.547   3.396   7.255  0.9652  0.9020 -1.7363
   86CHL1    C2 8817   3.580   3.285   7.064 -0.2951 -0.8193  0.0647
   86CHL1   H2A 8818   3.503   3.344   7.009 -0.2009  1.8046  2.6340
   86CHL1   H2B 8819   3.565   3.178   7.039  3.3089 -1.5319  0.7245
   86CHL1   C20 8820   3.505   3.139   8.008  0.7040 -0.4378 -0.4543
   86CHL1   H20 8821   3.547   3.036   8.003  0.4447 -0.7768  3.1537
   86CHL1   C21 8822   3.355   3.126   7.991 -0.1771 -0.3561 -0.4480
   86CHL1  H21A 8823   3.314   3.064   8.074  3.4120 -0.6661  1.2027
   86CHL1  H21B 8824   3.333   3.084   7.890  4.3468  0.7167 -1.9880
   86CHL1  H21C 8825   3.300   3.222   7.992 -1.2846 -0.9737  0.7227
   86CHL1   C22 8826   3.527   3.197   8.144 -0.3834 -0.1432 -0.3874
   86CHL1  H22A 8827   3.455   3.153   8.215 -0.9467 -2.1511 -2.1568
   86CHL1  H22B 8828   3.633   3.175   8.171  0.3834  2.8746 -0.7302
   86CHL1   C23 8829   3.504   3.344   8.159 -0.2297  0.1134 -0.1498
   86CHL1  H23A 8830   3.572   3.405   8.096 -0.5024 -0.7727 -1.3385
   86CHL1  H23B 8831   3.405   3.370   8.115 -0.0539  1.0261 -0.0095
   86CHL1   C24 8832   3.518   3.382   8.310  0.2779  0.5157 -0.3425
   86CHL1  H24A 8833   3.432   3.327   8.353  0.7139  1.9910  2.5155
   86CHL1  H24B 8834   3.619   3.357   8.349  1.5648  0.7203 -3.3713
   86CHL1   C25 8835   3.485   3.522   8.347  0.0286 -0.2297 -0.2572
   86CHL1   H25 8836   3.391   3.543   8.292  0.4750  0.9128 -0.6053
   86CHL1   C26 8837   3.459   3.548   8.503  0.2755  0.4851 -0.0047
   86CHL1  H26A 8838   3.443   3.655   8.527 -1.5345  0.6056 -1.6296
   86CHL1  H26B 8839   3.363   3.507   8.542  1.1272 -0.9418  0.6380
   86CHL1  H26C 8840   3.548   3.513   8.560  0.6646  0.5095 -0.5925
   86CHL1   C27 8841   3.570   3.633   8.289 -0.0554  0.2438 -0.0636
   86CHL1  H27A 8842   3.669   3.646   8.338  1.0829 -1.2323 -1.8840
   86CHL1  H27B 8843   3.576   3.618   8.179 -3.2912  0.9044 -0.3639
   86CHL1  H27C 8844   3.510   3.723   8.313 -2.7011 -1.2603 -0.9166
   87CHL1    C3 8845   3.821   1.763   7.075 -0.0526  0.5350 -0.2002
   87CHL1    H3 8846   3.923   1.805   7.071  1.6562 -3.4380 -1.0645
   87CHL1    O3 8847   3.780   1.758   6.939 -1.3232 -0.0670  0.4034
   87CHL1   H3' 8848   3.734   1.841   6.924 -1.1298 -0.3850 -2.2010
   87CHL1    C4 8849   3.831   1.620   7.130  0.4519  0.6149  0.1951
   87CHL1   H4A 8850   3.734   1.574   7.105  0.9239 -0.7272  0.7787
   87CHL1   H4B 8851   3.906   1.572   7.064  0.5254  0.2572  0.5313
   87CHL1    C5 8852   3.857   1.621   7.282  0.5004  0.8401 -0.3924
   87CHL1    C6 8853   3.965   1.560   7.332  0.4717  0.0104 -0.2205
   87CHL1    H6 8854   4.046   1.522   7.268  2.4642 -0.8032  2.6567
   87CHL1    C7 8855   3.991   1.543   7.482 -0.7390  0.2975  0.0945
   87CHL1   H7A 8856   4.031   1.441   7.503 -0.1393 -0.0848 -2.6140
   87CHL1   H7B 8857   4.071   1.612   7.515 -1.7749  1.8873 -0.6412
   87CHL1    C8 8858   3.859   1.563   7.558 -0.7278 -0.4261 -0.8933
   87CHL1    H8 8859   3.788   1.478   7.547 -0.9179 -0.3516 -0.2477
   87CHL1   C14 8860   3.884   1.578   7.710  0.1684  0.1181  0.6153
   87CHL1   H14 8861   3.944   1.669   7.727 -1.9416  2.0659 -1.9554
   87CHL1   C15 8862   3.957   1.459   7.780 -0.1115 -0.2252  0.1139
   87CHL1  H15A 8863   3.923   1.361   7.739 -3.1074 -0.0515  2.0298
   87CHL1  H15B 8864   4.068   1.460   7.767 -0.2744  0.9208 -1.3622
   87CHL1   C16 8865   3.910   1.462   7.927  0.1481 -0.0016  0.3141
   87CHL1  H16A 8866   3.865   1.366   7.959 -0.8358 -0.0489 -1.1755
   87CHL1  H16B 8867   4.008   1.481   7.977  0.3337  0.4301 -0.2036
   87CHL1   C17 8868   3.814   1.591   7.937  0.3478  0.0294  0.1030
   87CHL1   H17 8869   3.882   1.678   7.949  0.3208 -0.0082  0.5358
   87CHL1   C13 8870   3.756   1.607   7.797 -0.2311 -0.1658  0.2143
   87CHL1   C18 8871   3.651   1.490   7.779 -0.0207 -0.1431  0.0461
   87CHL1  H18A 8872   3.614   1.494   7.674  0.9462  1.3222 -0.2526
   87CHL1  H18B 8873   3.689   1.389   7.803  2.3434  0.7728  0.3423
   87CHL1  H18C 8874   3.565   1.522   7.841 -1.0315  0.1249 -1.4496
   87CHL1   C12 8875   3.708   1.743   7.754 -0.1624 -0.1520  0.0925
   87CHL1  H12A 8876   3.626   1.788   7.813  0.5552 -0.8025  1.6392
   87CHL1  H12B 8877   3.796   1.810   7.763 -0.4548  0.1835  0.4790
   87CHL1   C11 8878   3.680   1.737   7.604 -0.4856 -0.3931  0.2882
   87CHL1  H11A 8879   3.591   1.673   7.583  0.3085 -1.3777 -0.0880
   87CHL1  H11B 8880   3.657   1.843   7.578  1.5022 -0.8174 -3.4886
   87CHL1    C9 8881   3.795   1.690   7.510  0.2903 -0.0671  0.2915
   87CHL1    H9 8882   3.876   1.766   7.506  1.9829 -1.8930 -2.8786
   87CHL1   C10 8883   3.742   1.687   7.365 -0.6909  0.3288  0.4167
   87CHL1   C19 8884   3.610   1.600   7.352 -0.7450  0.4698  0.4895
   87CHL1  H19A 8885   3.526   1.654   7.400  1.4565  3.4317  1.1949
   87CHL1  H19B 8886   3.582   1.579   7.247  1.2467  0.3586 -0.0348
   87CHL1  H19C 8887   3.621   1.501   7.401 -0.3893 -0.5010 -1.5292
   87CHL1    C1 8888   3.737   1.833   7.308  0.1459 -0.8341  0.6297
   87CHL1   H1A 8889   3.648   1.878   7.358  1.6127  3.6596 -0.6366
   87CHL1   H1B 8890   3.822   1.902   7.325 -0.1677 -0.3084  0.0745
   87CHL1    C2 8891   3.715   1.836   7.152 -0.2906 -0.7588 -0.0869
   87CHL1   H2A 8892   3.699   1.940   7.118 -2.1907 -1.2997 -0.9604
   87CHL1   H2B 8893   3.622   1.784   7.121 -1.3505  1.9854 -1.7004
   87CHL1   C20 8894   3.732   1.603   8.064 -0.6124  0.5447  0.4757
   87CHL1   H20 8895   3.647   1.532   8.057 -0.7625  0.9428 -2.2541
   87CHL1   C21 8896   3.685   1.744   8.095  0.0697 -0.1236 -0.3958
   87CHL1  H21A 8897   3.616   1.789   8.022 -1.1306 -0.4575  0.5226
   87CHL1  H21B 8898   3.772   1.812   8.105 -0.3827  0.7594 -2.4094
   87CHL1  H21C 8899   3.620   1.744   8.185 -1.0603  0.6085 -1.2012
   87CHL1   C22 8900   3.814   1.553   8.187 -0.6390  0.0797 -0.5797
   87CHL1  H22A 8901   3.747   1.549   8.275 -1.8596 -1.7894 -1.5635
   87CHL1  H22B 8902   3.840   1.447   8.169  0.9833  0.4378 -0.3870
   87CHL1   C23 8903   3.948   1.624   8.231  0.1160 -0.2216 -0.8593
   87CHL1  H23A 8904   4.025   1.620   8.151  1.2842 -1.2500  0.2882
   87CHL1  H23B 8905   3.925   1.727   8.265  0.2248 -1.3743  2.9372
   87CHL1   C24 8906   4.028   1.565   8.356  0.7504 -0.6191 -0.3936
   87CHL1  H24A 8907   4.121   1.619   8.381  1.1604 -0.6274 -1.8282
   87CHL1  H24B 8908   3.960   1.578   8.443  0.5373  1.7583 -0.8957
   87CHL1   C25 8909   4.070   1.420   8.333  0.4455  0.6305  0.3407
   87CHL1   H25 8910   3.981   1.357   8.313  1.4223 -1.4090  2.1851
   87CHL1   C26 8911   4.177   1.413   8.220  0.0461 -0.2585 -0.0449
   87CHL1  H26A 8912   4.200   1.309   8.189 -1.0366 -0.1266 -1.3570
   87CHL1  H26B 8913   4.135   1.453   8.126  1.1167 -2.1905 -1.3958
   87CHL1  H26C 8914   4.265   1.477   8.237 -1.2203  1.9511 -1.6695
   87CHL1   C27 8915   4.147   1.361   8.458 -0.4252 -0.3995  0.1579
   87CHL1  H27A 8916   4.238   1.421   8.482 -1.4402  1.5601 -0.7356
   87CHL1  H27B 8917   4.089   1.368   8.552 -1.6151 -2.0986 -0.4215
   87CHL1  H27C 8918   4.173   1.255   8.440  0.4817 -0.0491 -0.6703
   88CHL1    C3 8919   1.498   0.158   7.075  0.1658  0.7535 -0.6979
   88CHL1    H3 8920   1.481   0.050   7.098 -1.4589  1.0770 -0.2858
   88CHL1    O3 8921   1.500   0.176   6.937  0.3537 -1.0413 -0.1057
   88CHL1   H3' 8922   1.438   0.108   6.912 -0.4581 -0.1492 -0.5439
   88CHL1    C4 8923   1.396   0.246   7.139  0.3219 -0.3380  0.1735
   88CHL1   H4A 8924   1.401   0.355   7.119  1.4240 -0.3290  0.4494
   88CHL1   H4B 8925   1.300   0.213   7.095 -0.6411  1.1616  1.1282
   88CHL1    C5 8926   1.398   0.221   7.292 -0.1519  0.3303 -0.7796
   88CHL1    C6 8927   1.289   0.178   7.354  0.3139  1.1234 -0.3901
   88CHL1    H6 8928   1.200   0.155   7.294  1.3619 -2.0517 -0.8451
   88CHL1    C7 8929   1.284   0.157   7.501  0.2082  0.4111 -0.2610
   88CHL1   H7A 8930   1.184   0.182   7.543 -0.6060 -0.2950 -1.7461
   88CHL1   H7B 8931   1.300   0.049   7.524 -0.1943  0.8458  2.1999
   88CHL1    C8 8932   1.398   0.234   7.578  0.0392 -0.8851 -0.0505
   88CHL1    H8 8933   1.381   0.343   7.566  1.8144 -0.7782 -1.8658
   88CHL1   C14 8934   1.397   0.184   7.721 -0.3576  0.1691 -0.5299
   88CHL1   H14 8935   1.443   0.083   7.717 -1.5598 -0.4506  0.7106
   88CHL1   C15 8936   1.270   0.178   7.800  0.2677 -0.0724  0.9230
   88CHL1  H15A 8937   1.209   0.271   7.795 -0.0778 -0.4168 -1.7449
   88CHL1  H15B 8938   1.212   0.093   7.758 -0.1825  0.6936 -0.0166
   88CHL1   C16 8939   1.320   0.151   7.941  0.0647 -0.4357  0.2991
   88CHL1  H16A 8940   1.270   0.223   8.009  0.7163  0.6061 -0.3158
   88CHL1  H16B 8941   1.288   0.051   7.978  3.1098 -0.3816  3.2957
   88CHL1   C17 8942   1.478   0.170   7.943 -0.2624  0.6795 -0.0151
   88CHL1   H17 8943   1.528   0.071   7.930  1.6086  1.3557  1.7354
   88CHL1   C13 8944   1.505   0.244   7.811  0.4822  0.2928  0.1982
   88CHL1   C18 8945   1.469   0.393   7.834 -0.0160 -0.3480 -0.5122
   88CHL1  H18A 8946   1.554   0.434   7.893 -1.2231  1.7047 -0.1696
   88CHL1  H18B 8947   1.457   0.451   7.741  1.7057  1.4624  0.3483
   88CHL1  H18C 8948   1.385   0.414   7.904 -0.3617 -2.8437 -0.1232
   88CHL1   C12 8949   1.652   0.224   7.750 -0.3779 -0.1056 -0.1272
   88CHL1  H12A 8950   1.723   0.273   7.819  0.2893 -1.7023  0.3606
   88CHL1  H12B 8951   1.674   0.115   7.749  0.7639  0.1258 -1.7960
   88CHL1   C11 8952   1.651   0.275   7.601  0.5692  0.4464  0.3780
   88CHL1  H11A 8953   1.624   0.383   7.592 -0.7334  0.1356  0.3535
   88CHL1  H11B 8954   1.750   0.268   7.552  2.0598  2.8012  2.8803
   88CHL1    C9 8955   1.532   0.205   7.521  0.3832  0.4109 -0.3230
   88CHL1    H9 8956   1.546   0.095   7.528 -0.0437  0.4901  2.0523
   88CHL1   C10 8957   1.529   0.248   7.371  0.4672  0.3101 -0.4286
   88CHL1   C19 8958   1.551   0.398   7.346 -0.2332  0.1583  0.2856
   88CHL1  H19A 8959   1.650   0.427   7.388  0.1898  1.6786 -1.6741
   88CHL1  H19B 8960   1.568   0.415   7.237 -1.5727  0.4925  0.1144
   88CHL1  H19C 8961   1.468   0.466   7.374  0.0273  1.7644 -2.5601
   88CHL1    C1 8962   1.645   0.187   7.285 -1.0528  0.0953 -0.1803
   88CHL1   H1A 8963   1.745   0.228   7.306 -0.6655 -1.4110  1.0058
   88CHL1   H1B 8964   1.638   0.080   7.316 -0.0421  0.0541 -0.1030
   88CHL1    C2 8965   1.635   0.199   7.130  0.0094  0.1067  0.4834
   88CHL1   H2A 8966   1.709   0.138   7.075  1.7497  2.5642  0.0287
   88CHL1   H2B 8967   1.659   0.304   7.104 -0.9295 -0.2465 -1.8740
   88CHL1   C20 8968   1.538   0.227   8.073  0.5980 -0.4476 -0.2487
   88CHL1   H20 8969   1.521   0.337   8.070  2.9442 -0.0229  1.1973
   88CHL1   C21 8970   1.692   0.213   8.067 -0.4117 -0.4985  0.1014
   88CHL1  H21A 8971   1.728   0.126   8.009  0.9674  1.2595 -1.7527
   88CHL1  H21B 8972   1.744   0.197   8.163  2.9343  0.1623 -1.5258
   88CHL1  H21C 8973   1.727   0.305   8.014 -1.3312 -0.8716 -1.1941
   88CHL1   C22 8974   1.470   0.172   8.197 -0.7919 -0.0958  0.2587
   88CHL1  H22A 8975   1.360   0.184   8.197 -0.6282  1.9356 -2.3656
   88CHL1  H22B 8976   1.487   0.064   8.213  1.6900 -0.1232 -2.1833
   88CHL1   C23 8977   1.516   0.253   8.322 -0.4835  0.1579 -0.5243
   88CHL1  H23A 8978   1.626   0.242   8.336 -0.4099  0.3505 -0.9406
   88CHL1  H23B 8979   1.495   0.357   8.288  0.7892  0.9403  1.0205
   88CHL1   C24 8980   1.447   0.235   8.456  0.0323 -0.4900  0.4082
   88CHL1  H24A 8981   1.339   0.234   8.430  0.1471 -1.7414 -0.0570
   88CHL1  H24B 8982   1.464   0.135   8.502  1.0933 -0.6476 -0.3089
   88CHL1   C25 8983   1.461   0.356   8.550  0.1131 -0.0106  0.0701
   88CHL1   H25 8984   1.487   0.444   8.488  0.3409  0.5453  0.9489
   88CHL1   C26 8985   1.327   0.374   8.618 -0.1777 -0.3752 -0.3733
   88CHL1  H26A 8986   1.341   0.472   8.669 -0.2950  1.0126 -2.9555
   88CHL1  H26B 8987   1.242   0.392   8.550 -0.4916 -1.8814 -0.3987
   88CHL1  H26C 8988   1.305   0.289   8.686 -0.3358 -0.3716 -0.4210
   88CHL1   C27 8989   1.570   0.336   8.649 -0.2380 -0.0500 -0.3405
   88CHL1  H27A 8990   1.542   0.267   8.732 -1.4294 -1.2350 -1.6969
   88CHL1  H27B 8991   1.661   0.302   8.595 -0.1604 -0.3058 -0.0499
   88CHL1  H27C 8992   1.591   0.434   8.697 -0.1875 -1.3296  2.3145
   89CHL1    C3 8993   4.273   2.982   6.901  0.9798 -0.0299 -0.2925
   89CHL1    H3 8994   4.268   2.885   6.847  0.4649 -0.5283  0.6331
   89CHL1    O3 8995   4.308   3.076   6.800 -0.4370 -0.2674 -0.4324
   89CHL1   H3' 8996   4.394   3.055   6.764 -1.6685 -1.6975 -2.6110
   89CHL1    C4 8997   4.138   3.026   6.955 -0.2304 -0.4736 -0.3103
   89CHL1   H4A 8998   4.140   3.137   6.965 -2.3465 -0.2247 -2.3172
   89CHL1   H4B 8999   4.068   3.025   6.869 -1.2844 -1.1184  0.5473
   89CHL1    C5 9000   4.104   2.956   7.081 -0.4998 -0.4647  0.2052
   89CHL1    C6 9001   4.001   2.882   7.096  0.2463 -0.2824  0.2977
   89CHL1    H6 9002   3.952   2.842   7.006 -1.4425 -2.8116  2.2641
   89CHL1    C7 9003   3.966   2.808   7.216 -0.5674 -0.3652  0.0718
   89CHL1   H7A 9004   3.857   2.808   7.236 -0.5918 -0.5359 -0.0622
   89CHL1   H7B 9005   3.999   2.703   7.204  2.2229  0.4709  0.1056
   89CHL1    C8 9006   4.024   2.875   7.342 -0.0355 -0.1013 -0.3041
   89CHL1    H8 9007   3.969   2.971   7.351 -2.3594 -1.3005 -1.0470
   89CHL1   C14 9008   3.992   2.781   7.466  0.0109  0.1948  0.0343
   89CHL1   H14 9009   4.033   2.680   7.442 -1.0512 -0.4406  0.9000
   89CHL1   C15 9010   3.842   2.755   7.496  0.4373 -0.5355  0.0239
   89CHL1  H15A 9011   3.789   2.851   7.475  0.3301 -1.2554 -3.2895
   89CHL1  H15B 9012   3.785   2.686   7.430  1.3650 -0.3355 -0.9900
   89CHL1   C16 9013   3.849   2.704   7.640 -0.3286  1.1440 -0.4814
   89CHL1  H16A 9014   3.769   2.761   7.690 -0.0738  1.5344 -0.5160
   89CHL1  H16B 9015   3.824   2.596   7.652  3.0859  0.4421  1.1685
   89CHL1   C17 9016   4.000   2.719   7.686  0.0875 -0.8496 -0.5380
   89CHL1   H17 9017   4.058   2.629   7.655 -0.0304 -1.3870  0.7826
   89CHL1   C13 9018   4.060   2.827   7.595  0.1185  0.2535 -0.4017
   89CHL1   C18 9019   4.005   2.972   7.623  0.7461 -0.8453 -0.4174
   89CHL1  H18A 9020   3.899   2.975   7.654  0.3028 -1.5833 -1.8323
   89CHL1  H18B 9021   4.063   3.023   7.703 -1.6204  0.0657  0.7325
   89CHL1  H18C 9022   4.018   3.040   7.536 -0.2499  0.4802  0.4501
   89CHL1   C12 9023   4.211   2.823   7.577 -0.1723  0.2173 -0.0493
   89CHL1  H12A 9024   4.243   2.864   7.675  0.4059 -1.2820  0.4024
   89CHL1  H12B 9025   4.244   2.718   7.559 -0.1096  0.4497 -1.3786
   89CHL1   C11 9026   4.248   2.918   7.460 -1.0617 -0.4803 -1.0630
   89CHL1  H11A 9027   4.213   3.017   7.497 -1.5233 -1.5587  1.5316
   89CHL1  H11B 9028   4.358   2.923   7.445 -0.8207  0.3414  0.8388
   89CHL1    C9 9029   4.177   2.880   7.326 -0.9680 -0.8597  0.1043
   89CHL1    H9 9030   4.208   2.774   7.322  0.7599 -0.5540  3.2284
   89CHL1   C10 9031   4.209   2.964   7.199 -0.9123 -0.4132  0.2046
   89CHL1   C19 9032   4.230   3.120   7.236 -0.3983  0.2007  0.1675
   89CHL1  H19A 9033   4.280   3.178   7.155  0.5617  1.1005  1.3929
   89CHL1  H19B 9034   4.131   3.171   7.249 -0.0052  0.9968  0.0861
   89CHL1  H19C 9035   4.313   3.125   7.309 -0.0469  1.2707 -0.2903
   89CHL1    C1 9036   4.345   2.913   7.143 -0.1107  0.2763 -0.3302
   89CHL1   H1A 9037   4.432   2.911   7.212 -1.3079  0.6292  1.2149
   89CHL1   H1B 9038   4.328   2.805   7.123 -0.3231 -0.2993  2.6719
   89CHL1    C2 9039   4.387   2.969   7.007  0.5413  0.2751  0.6844
   89CHL1   H2A 9040   4.465   2.900   6.970  1.5689  0.4631  2.4429
   89CHL1   H2B 9041   4.437   3.067   7.022  2.1486 -0.5997  1.1787
   89CHL1   C20 9042   4.020   2.734   7.841 -0.1943 -0.0968 -0.2140
   89CHL1   H20 9043   4.122   2.757   7.878 -0.7915  0.1302  1.3182
   89CHL1   C21 9044   3.989   2.591   7.888  0.3373 -0.2895  0.6051
   89CHL1  H21A 9045   4.023   2.581   7.994 -0.4172 -0.6337  0.8199
   89CHL1  H21B 9046   4.054   2.511   7.846 -0.4462 -0.1220 -0.9533
   89CHL1  H21C 9047   3.882   2.564   7.875  0.5702 -1.3966  0.9241
   89CHL1   C22 9048   3.927   2.828   7.914  0.6619 -0.1631 -0.0319
   89CHL1  H22A 9049   3.933   2.922   7.855 -1.6981  1.3739  2.0478
   89CHL1  H22B 9050   3.819   2.804   7.922  0.7295 -1.0308 -1.5220
   89CHL1   C23 9051   3.961   2.866   8.059  0.2087 -0.0868 -0.5843
   89CHL1  H23A 9052   4.070   2.855   8.074  0.3765  1.8221 -0.2589
   89CHL1  H23B 9053   3.958   2.975   8.078  1.0637 -0.3252  0.9729
   89CHL1   C24 9054   3.892   2.789   8.165 -0.0636  0.4517  0.0899
   89CHL1  H24A 9055   3.785   2.803   8.139  0.3351 -0.0680 -1.8853
   89CHL1  H24B 9056   3.918   2.682   8.154 -1.2407  0.3049 -1.4668
   89CHL1   C25 9057   3.921   2.844   8.307 -0.2651  0.5668  0.7889
   89CHL1   H25 9058   4.029   2.845   8.334 -0.3523  0.1848  1.1591
   89CHL1   C26 9059   3.872   2.991   8.329 -0.4744  0.1853  0.2557
   89CHL1  H26A 9060   3.947   3.047   8.270 -0.1101  0.2723  0.8010
   89CHL1  H26B 9061   3.770   3.021   8.295 -0.0508  2.5108  0.9526
   89CHL1  H26C 9062   3.892   3.015   8.436 -1.1754 -3.0869  1.1775
   89CHL1   C27 9063   3.859   2.751   8.414  0.1686  0.4201 -0.2348
   89CHL1  H27A 9064   3.881   2.644   8.393 -2.1940  0.0824 -1.0987
   89CHL1  H27B 9065   3.896   2.770   8.518 -1.9422 -0.2385  0.6527
   89CHL1  H27C 9066   3.749   2.761   8.421  0.2740  0.6962  1.3201
   90CHL1    C3 9067   5.009   4.897   7.055 -0.3054 -0.7029  0.5915
   90CHL1    H3 9068   5.089   4.820   7.049 -0.3615 -0.7302  0.2233
   90CHL1    O3 9069   5.028   4.983   6.947  0.4958 -0.5736 -0.1652
   90CHL1   H3' 9070   5.123   4.997   6.946  0.4159  0.2612  1.6028
   90CHL1    C4 9071   4.883   4.815   7.033  0.3231  0.2813 -0.1064
   90CHL1   H4A 9072   4.803   4.878   6.989  0.8429  1.4779  0.6396
   90CHL1   H4B 9073   4.907   4.751   6.945 -2.2948  0.2937 -0.8706
   90CHL1    C5 9074   4.836   4.724   7.146 -0.1302 -0.3867 -0.1293
   90CHL1    C6 9075   4.830   4.593   7.123  0.1335 -0.5570  0.4397
   90CHL1    H6 9076   4.838   4.564   7.017  0.2071  0.8061  0.0660
   90CHL1    C7 9077   4.792   4.498   7.233  0.0251 -0.4789 -0.3737
   90CHL1   H7A 9078   4.713   4.432   7.191 -1.7378  2.5351 -1.9876
   90CHL1   H7B 9079   4.879   4.432   7.250 -0.1725 -1.2170 -2.1401
   90CHL1    C8 9080   4.744   4.564   7.363 -1.1044  0.0062  0.3227
   90CHL1    H8 9081   4.644   4.610   7.346 -0.7082  0.3019 -1.2882
   90CHL1   C14 9082   4.727   4.458   7.463 -0.9279 -0.2099 -0.5717
   90CHL1   H14 9083   4.826   4.412   7.481  0.2624  1.9413 -1.3833
   90CHL1   C15 9084   4.633   4.332   7.441 -0.3582  0.2163  0.4810
   90CHL1  H15A 9085   4.528   4.363   7.426 -1.0150 -1.2526  1.9437
   90CHL1  H15B 9086   4.666   4.269   7.356  1.9559  1.1221  0.6493
   90CHL1   C16 9087   4.635   4.259   7.576 -0.4159 -0.4236 -0.0024
   90CHL1  H16A 9088   4.536   4.225   7.613 -0.3125 -0.9151 -0.1700
   90CHL1  H16B 9089   4.709   4.176   7.579  3.3887  2.8774  2.2098
   90CHL1   C17 9090   4.698   4.363   7.681  0.1980 -0.4626 -0.1005
   90CHL1   H17 9091   4.807   4.343   7.678  0.2899 -0.0256  0.2981
   90CHL1   C13 9092   4.692   4.503   7.605 -0.4452  0.7156 -0.4390
   90CHL1   C18 9093   4.544   4.557   7.618 -0.4897 -0.5103  0.7561
   90CHL1  H18A 9094   4.520   4.605   7.715 -0.5114 -0.0266  0.5133
   90CHL1  H18B 9095   4.533   4.640   7.544 -0.1087 -0.2207  1.0229
   90CHL1  H18C 9096   4.462   4.482   7.605 -0.3975 -0.2004 -1.9640
   90CHL1   C12 9097   4.802   4.614   7.642 -0.1725 -0.5586 -0.1215
   90CHL1  H12A 9098   4.770   4.663   7.737  0.8740  2.4553 -1.2589
   90CHL1  H12B 9099   4.896   4.556   7.649  0.1396  0.0829  1.2879
   90CHL1   C11 9100   4.812   4.726   7.545 -0.0273 -0.1551  0.4380
   90CHL1  H11A 9101   4.714   4.779   7.547  0.4253  0.6852  0.2902
   90CHL1  H11B 9102   4.873   4.811   7.582  1.3827 -1.2581  0.6769
   90CHL1    C9 9103   4.841   4.675   7.399  0.0271 -0.0029 -0.1260
   90CHL1    H9 9104   4.942   4.629   7.396 -0.6665 -1.6844  1.2177
   90CHL1   C10 9105   4.836   4.784   7.291 -0.9910 -0.1247  0.2334
   90CHL1   C19 9106   4.710   4.875   7.300 -0.5755  0.6137 -0.0349
   90CHL1  H19A 9107   4.622   4.810   7.281  0.0326  0.2741 -1.7706
   90CHL1  H19B 9108   4.700   4.922   7.400 -0.0283  2.6685 -0.9101
   90CHL1  H19C 9109   4.715   4.953   7.221  1.3594  2.0451  1.4431
   90CHL1    C1 9110   4.959   4.878   7.305  0.2845  0.2981 -0.1817
   90CHL1   H1A 9111   4.938   4.940   7.394  2.2200 -0.1466  0.6032
   90CHL1   H1B 9112   5.052   4.819   7.320  0.0051 -0.2670 -0.6445
   90CHL1    C2 9113   5.003   4.972   7.189 -0.2818  0.0483  0.3012
   90CHL1   H2A 9114   5.099   5.026   7.202 -1.1626  1.7352 -0.0138
   90CHL1   H2B 9115   4.920   5.045   7.175 -0.9131 -0.5714  0.7557
   90CHL1   C20 9116   4.640   4.343   7.827  0.5351  0.5810 -0.0556
   90CHL1   H20 9117   4.535   4.379   7.838  0.8635  2.1635 -1.9572
   90CHL1   C21 9118   4.710   4.435   7.928 -0.0626 -0.4500 -0.7239
   90CHL1  H21A 9119   4.699   4.540   7.892 -2.4466 -1.2278 -2.3741
   90CHL1  H21B 9120   4.820   4.416   7.931 -0.4281 -2.2494  2.4908
   90CHL1  H21C 9121   4.663   4.423   8.027  0.2298  0.7939 -0.4203
   90CHL1   C22 9122   4.654   4.195   7.875 -0.6811  0.0302 -0.5062
   90CHL1  H22A 9123   4.604   4.119   7.813 -1.3149 -2.2421  2.6931
   90CHL1  H22B 9124   4.761   4.165   7.879 -0.3663  1.1793  0.2069
   90CHL1   C23 9125   4.601   4.166   8.020 -0.5389  0.6861 -0.0010
   90CHL1  H23A 9126   4.683   4.214   8.078 -0.1659 -0.9613  0.8403
   90CHL1  H23B 9127   4.507   4.219   8.043  0.0224  2.0779 -0.8313
   90CHL1   C24 9128   4.578   4.018   8.047 -0.0539  0.5170 -0.3497
   90CHL1  H24A 9129   4.511   3.980   7.966 -0.3421  0.8514 -0.2658
   90CHL1  H24B 9130   4.673   3.960   8.035 -0.3029 -0.2759  1.4343
   90CHL1   C25 9131   4.517   3.983   8.184  0.5042  0.1510  0.3872
   90CHL1   H25 9132   4.409   4.008   8.183  0.0959 -1.3939  2.9067
   90CHL1   C26 9133   4.516   3.829   8.193  0.1838 -0.0836 -0.0480
   90CHL1  H26A 9134   4.466   3.781   8.106  1.6324  0.7925 -1.3776
   90CHL1  H26B 9135   4.622   3.796   8.187  0.2821  0.0823  0.7328
   90CHL1  H26C 9136   4.469   3.803   8.291  2.5771 -2.3233  0.5716
   90CHL1   C27 9137   4.611   4.038   8.297  0.0368 -0.0457  0.4916
   90CHL1  H27A 9138   4.710   3.991   8.276 -0.6986 -0.2514 -2.7031
   90CHL1  H27B 9139   4.621   4.149   8.299  1.2023 -0.1208 -0.2831
   90CHL1  H27C 9140   4.564   4.010   8.394 -3.0425  2.0731 -0.3420
   91CHL1    C3 9141   5.699   6.114   7.288  0.4514 -0.1497  0.4616
   91CHL1    H3 9142   5.712   6.004   7.283  0.9109 -0.0469 -0.5358
   91CHL1    O3 9143   5.747   6.166   7.162  0.5167  0.0361  0.2944
   91CHL1   H3' 9144   5.677   6.147   7.099  2.7305  0.6997 -2.5005
   91CHL1    C4 9145   5.549   6.146   7.312 -0.6252 -0.1217 -0.5500
   91CHL1   H4A 9146   5.523   6.254   7.307 -1.4235 -0.2413  0.6827
   91CHL1   H4B 9147   5.502   6.104   7.221 -1.5755 -0.8949  0.2905
   91CHL1    C5 9148   5.502   6.087   7.444  0.5111 -1.3106 -0.6161
   91CHL1    C6 9149   5.391   6.014   7.451  0.2827 -0.1263  0.3178
   91CHL1    H6 9150   5.336   6.001   7.356  2.3516  1.6847 -1.1822
   91CHL1    C7 9151   5.327   5.960   7.575 -0.0719  0.0172  0.1689
   91CHL1   H7A 9152   5.218   5.979   7.582 -0.0826  0.8114 -1.8305
   91CHL1   H7B 9153   5.331   5.849   7.580 -0.3728 -0.0209 -0.4941
   91CHL1    C8 9154   5.392   6.024   7.702  0.4998 -0.0107 -0.4325
   91CHL1    H8 9155   5.343   6.123   7.700 -1.1430 -0.8178 -1.2411
   91CHL1   C14 9156   5.350   5.955   7.832 -0.3985  0.3601 -0.4527
   91CHL1   H14 9157   5.394   5.853   7.835  0.3096  0.6492 -0.8466
   91CHL1   C15 9158   5.207   5.932   7.854  0.3523 -0.2410 -0.1179
   91CHL1  H15A 9159   5.156   6.029   7.839 -2.1896 -1.5794 -0.4926
   91CHL1  H15B 9160   5.170   5.851   7.787  1.0970 -0.3366 -0.4205
   91CHL1   C16 9161   5.183   5.901   7.998 -0.7961  0.0201 -0.2886
   91CHL1  H16A 9162   5.119   5.977   8.047 -2.0688 -0.1235 -1.7037
   91CHL1  H16B 9163   5.166   5.797   8.031 -2.2318  0.6241  0.9166
   91CHL1   C17 9164   5.330   5.932   8.058 -0.1382 -0.0114  0.3093
   91CHL1   H17 9165   5.384   5.835   8.052  2.7526  1.7161 -4.1774
   91CHL1   C13 9166   5.406   6.026   7.960  0.3314 -0.0260 -0.3231
   91CHL1   C18 9167   5.369   6.175   7.970 -0.0813  0.9777  0.2211
   91CHL1  H18A 9168   5.261   6.171   7.994  0.1384 -0.3461  1.0721
   91CHL1  H18B 9169   5.420   6.222   8.057  2.1960  1.2356 -1.2001
   91CHL1  H18C 9170   5.392   6.238   7.882  0.2523  1.3571  0.5776
   91CHL1   C12 9171   5.559   6.009   7.953  0.9776  0.6154 -0.0307
   91CHL1  H12A 9172   5.593   6.077   8.035  2.6484  2.1431 -1.9452
   91CHL1  H12B 9173   5.579   5.904   7.982  1.9672  0.7014 -0.3860
   91CHL1   C11 9174   5.623   6.069   7.826  0.5672  0.0159 -0.1938
   91CHL1  H11A 9175   5.621   6.179   7.846 -0.8387  0.0528 -0.4643
   91CHL1  H11B 9176   5.729   6.039   7.816 -0.0686 -3.0512  1.5432
   91CHL1    C9 9177   5.546   6.035   7.690 -0.8644 -0.0915 -0.3590
   91CHL1    H9 9178   5.579   5.930   7.671  0.4408  0.3202 -0.3865
   91CHL1   C10 9179   5.591   6.119   7.568 -0.3878 -0.9398  0.1124
   91CHL1   C19 9180   5.560   6.268   7.603  0.1090 -0.5630 -0.2350
   91CHL1  H19A 9181   5.576   6.337   7.518  0.3311  0.6735  0.7840
   91CHL1  H19B 9182   5.457   6.279   7.644  0.3828 -2.1463  0.9587
   91CHL1  H19C 9183   5.635   6.302   7.678  0.0990  1.3372 -1.0486
   91CHL1    C1 9184   5.743   6.105   7.542 -0.2434  0.6455  0.0678
   91CHL1   H1A 9185   5.810   6.152   7.617  0.4517 -3.0189  1.8261
   91CHL1   H1B 9186   5.755   5.995   7.537  3.7793  0.9664  0.9398
   91CHL1    C2 9187   5.782   6.164   7.401  0.3858  0.5434 -0.2842
   91CHL1   H2A 9188   5.889   6.146   7.376  1.4061  2.6965  2.2099
   91CHL1   H2B 9189   5.778   6.275   7.397  2.0063  0.5494 -2.9473
   91CHL1   C20 9190   5.335   5.963   8.209  0.1142 -0.8454 -0.7418
   91CHL1   H20 9191   5.299   6.067   8.224 -1.4884 -1.9881  4.3844
   91CHL1   C21 9192   5.482   5.947   8.265  0.1125  0.0276  0.6719
   91CHL1  H21A 9193   5.484   5.973   8.373 -0.8335 -0.2248  0.7553
   91CHL1  H21B 9194   5.566   6.004   8.220 -1.2972  1.2230 -0.4785
   91CHL1  H21C 9195   5.511   5.840   8.267 -2.0652 -0.6093  0.1014
   91CHL1   C22 9196   5.240   5.867   8.288 -0.7357 -0.7371 -0.0495
   91CHL1  H22A 9197   5.136   5.861   8.247 -0.6352 -1.0274 -0.2602
   91CHL1  H22B 9198   5.285   5.767   8.275  0.4365  0.2920 -5.0640
   91CHL1   C23 9199   5.234   5.893   8.435 -0.0326  0.1295 -0.1351
   91CHL1  H23A 9200   5.324   5.869   8.497 -0.8083  0.2397  1.0556
   91CHL1  H23B 9201   5.207   5.996   8.465 -1.1459  0.2703 -1.5861
   91CHL1   C24 9202   5.139   5.789   8.495 -0.1314 -0.6630 -0.2956
   91CHL1  H24A 9203   5.048   5.785   8.430 -0.6158  1.5896  0.2075
   91CHL1  H24B 9204   5.182   5.687   8.484 -0.5203 -0.9152  0.5071
   91CHL1   C25 9205   5.089   5.813   8.641 -0.5030 -0.2931  0.1088
   91CHL1   H25 9206   5.180   5.799   8.704 -0.0216 -2.3542 -0.9790
   91CHL1   C26 9207   5.019   5.950   8.661  0.2434 -0.0887  0.4010
   91CHL1  H26A 9208   4.940   5.956   8.582  1.8255  0.6776 -1.1627
   91CHL1  H26B 9209   4.969   5.964   8.759 -1.3264  0.7482 -0.5005
   91CHL1  H26C 9210   5.092   6.033   8.653 -0.0501  0.0664 -0.7644
   91CHL1   C27 9211   4.986   5.694   8.684  0.4718  0.0759  0.1795
   91CHL1  H27A 9212   5.036   5.594   8.687 -1.2201 -0.8220 -1.1428
   91CHL1  H27B 9213   4.942   5.713   8.784 -1.8980  1.4608 -1.0927
   91CHL1  H27C 9214   4.910   5.698   8.603  1.7888  2.1822 -1.0103
   92CHL1    C3 9215   1.805   0.879   6.859  0.2235  0.5190 -0.0795
   92CHL1    H3 9216   1.914   0.866   6.877 -0.1196  1.5269  2.9217
   92CHL1    O3 9217   1.793   0.879   6.718  0.4956  0.2312 -0.6412
   92CHL1   H3' 9218   1.717   0.937   6.705 -1.6551 -2.3454  0.0873
   92CHL1    C4 9219   1.744   0.754   6.918 -0.4771 -0.0584  0.2141
   92CHL1   H4A 9220   1.637   0.765   6.890 -0.3612  0.0520 -0.1949
   92CHL1   H4B 9221   1.786   0.664   6.867  0.8343  2.6224 -3.6787
   92CHL1    C5 9222   1.750   0.763   7.071 -1.2018  0.0182 -0.3738
   92CHL1    C6 9223   1.822   0.670   7.143  0.5015  0.2073 -0.4413
   92CHL1    H6 9224   1.871   0.583   7.097  0.9978 -0.1662  0.7620
   92CHL1    C7 9225   1.824   0.669   7.290  0.4052  0.3677 -0.4236
   92CHL1   H7A 9226   1.830   0.564   7.324  2.0937  0.9568  1.2124
   92CHL1   H7B 9227   1.919   0.721   7.315 -0.0152  1.3139 -0.7354
   92CHL1    C8 9228   1.718   0.759   7.352  0.0226 -0.0268  0.3738
   92CHL1    H8 9229   1.617   0.716   7.331 -0.0700 -0.5823  1.9043
   92CHL1   C14 9230   1.729   0.781   7.506  0.3425  0.9276  0.1349
   92CHL1   H14 9231   1.830   0.823   7.524  1.1481 -0.8954 -0.0040
   92CHL1   C15 9232   1.725   0.657   7.594  0.2993 -0.2564 -0.4096
   92CHL1  H15A 9233   1.633   0.597   7.575  1.3491 -2.1844  0.5151
   92CHL1  H15B 9234   1.816   0.595   7.581 -0.5141 -1.5941  0.1174
   92CHL1   C16 9235   1.707   0.701   7.740 -0.3604  0.7666  0.0957
   92CHL1  H16A 9236   1.624   0.640   7.781  0.7814 -0.6001  0.4126
   92CHL1  H16B 9237   1.802   0.688   7.797  0.0120  2.9195  0.0230
   92CHL1   C17 9238   1.665   0.854   7.727 -0.2070  0.2243 -0.5409
   92CHL1   H17 9239   1.754   0.918   7.737 -0.9426  0.9420  1.8742
   92CHL1   C13 9240   1.630   0.873   7.570  0.3608 -0.5518  0.0946
   92CHL1   C18 9241   1.485   0.833   7.545  0.3935 -0.6219 -0.3516
   92CHL1  H18A 9242   1.415   0.914   7.572  1.2011  0.2066 -0.7199
   92CHL1  H18B 9243   1.470   0.806   7.438  1.6705 -0.4048 -0.5973
   92CHL1  H18C 9244   1.449   0.740   7.594  1.5188 -0.6260  0.4992
   92CHL1   C12 9245   1.649   1.010   7.520 -0.0818  0.7228 -0.1284
   92CHL1  H12A 9246   1.575   1.079   7.566  1.0777  1.5033  0.5709
   92CHL1  H12B 9247   1.746   1.053   7.550  1.0862 -0.9984 -1.3262
   92CHL1   C11 9248   1.645   1.010   7.366 -0.2191  0.6608 -0.3550
   92CHL1  H11A 9249   1.539   0.994   7.341 -0.4192  1.5467 -0.0816
   92CHL1  H11B 9250   1.673   1.109   7.325  0.6129  1.2312  1.4870
   92CHL1    C9 9251   1.726   0.898   7.293 -0.2520 -0.3845 -0.2250
   92CHL1    H9 9252   1.834   0.925   7.301 -0.0115 -0.7287 -2.1056
   92CHL1   C10 9253   1.699   0.892   7.141 -0.4236  0.1158  0.0069
   92CHL1   C19 9254   1.548   0.891   7.110 -0.0573 -0.2950 -0.6897
   92CHL1  H19A 9255   1.500   0.982   7.151 -2.4054 -2.3893  1.3632
   92CHL1  H19B 9256   1.524   0.886   7.001  2.3702  2.5195 -1.4244
   92CHL1  H19C 9257   1.484   0.823   7.169 -0.6871  1.8077  1.1104
   92CHL1    C1 9258   1.760   1.016   7.074  0.3924  0.0344  0.4698
   92CHL1   H1A 9259   1.706   1.108   7.104  2.2354  1.1523  0.4636
   92CHL1   H1B 9260   1.869   1.030   7.093  0.9569 -1.9160 -1.1175
   92CHL1    C2 9261   1.749   1.012   6.920  0.9687  0.7494  0.1377
   92CHL1   H2A 9262   1.804   1.102   6.884 -0.5699  0.3401 -3.4672
   92CHL1   H2B 9263   1.641   1.017   6.895  0.4861 -1.0548  1.7666
   92CHL1   C20 9264   1.557   0.885   7.836 -0.2752  0.3788  0.4517
   92CHL1   H20 9265   1.476   0.812   7.812  1.1317 -1.6418  1.6315
   92CHL1   C21 9266   1.496   1.024   7.820 -0.3430 -0.3391  0.5756
   92CHL1  H21A 9267   1.420   1.023   7.739  1.6427  3.3318 -1.4587
   92CHL1  H21B 9268   1.581   1.083   7.779  0.6673 -1.1321  1.4975
   92CHL1  H21C 9269   1.448   1.074   7.907  1.9512  1.5641  0.7745
   92CHL1   C22 9270   1.606   0.863   7.980 -0.4212 -0.0097  0.0663
   92CHL1  H22A 9271   1.516   0.889   8.040  0.2682  2.2416  0.1897
   92CHL1  H22B 9272   1.635   0.759   8.006  1.9398  0.6398  0.1946
   92CHL1   C23 9273   1.717   0.956   8.029  0.7818 -0.2486  0.0088
   92CHL1  H23A 9274   1.813   0.917   7.989  1.0929 -1.2380  1.6283
   92CHL1  H23B 9275   1.708   1.055   7.980  0.5583  0.0244  0.5932
   92CHL1   C24 9276   1.723   0.946   8.186 -0.1202  0.4735  0.5746
   92CHL1  H24A 9277   1.636   0.973   8.249 -0.9655 -3.7183  1.3837
   92CHL1  H24B 9278   1.744   0.839   8.208 -0.0863  0.2990 -0.2568
   92CHL1   C25 9279   1.844   1.030   8.238  0.6989  0.3884 -0.1557
   92CHL1   H25 9280   1.934   1.003   8.178  2.6394  1.8490  2.0240
   92CHL1   C26 9281   1.829   1.178   8.225  0.3407 -0.4075  0.5353
   92CHL1  H26A 9282   1.820   1.203   8.117  1.2726 -0.3307  0.4741
   92CHL1  H26B 9283   1.733   1.199   8.277 -0.8555  0.5922 -1.9792
   92CHL1  H26C 9284   1.911   1.240   8.267  2.4137 -1.5159 -1.7309
   92CHL1   C27 9285   1.878   1.008   8.381  0.7597 -0.2861 -0.0139
   92CHL1  H27A 9286   1.968   1.066   8.410  0.2863  0.4926 -0.0854
   92CHL1  H27B 9287   1.794   1.043   8.445 -0.7146  0.5765 -2.3531
   92CHL1  H27C 9288   1.874   0.901   8.410 -1.5211 -0.5872 -1.2689
   93CHL1    C3 9289   0.299   5.267   7.041 -0.0087 -0.4084 -0.5609
   93CHL1    H3 9290   0.301   5.378   7.046 -1.5390 -0.4386  0.9814
   93CHL1    O3 9291   0.292   5.246   6.900 -0.6373  0.3144 -0.6155
   93CHL1   H3' 9292   0.381   5.254   6.865 -0.5348  1.1591 -0.1872
   93CHL1    C4 9293   0.438   5.221   7.095  0.3882 -0.5258 -0.3938
   93CHL1   H4A 9294   0.445   5.113   7.069 -1.9081 -0.5848 -0.9084
   93CHL1   H4B 9295   0.513   5.276   7.035 -0.3470 -1.8016 -2.5648
   93CHL1    C5 9296   0.450   5.236   7.243 -0.0010 -0.1467  0.3777
   93CHL1    C6 9297   0.564   5.288   7.293 -0.3409  0.2948  0.3310
   93CHL1    H6 9298   0.649   5.310   7.227  0.7843 -0.9235  1.3210
   93CHL1    C7 9299   0.593   5.319   7.439  0.9786 -0.1961 -0.3607
   93CHL1   H7A 9300   0.691   5.275   7.470  1.5919  0.7985 -0.8868
   93CHL1   H7B 9301   0.583   5.429   7.451 -1.1622 -0.2922 -0.9977
   93CHL1    C8 9302   0.478   5.246   7.523 -0.0309 -0.0932  0.1247
   93CHL1    H8 9303   0.500   5.137   7.526  2.0872  0.3233  0.4863
   93CHL1   C14 9304   0.480   5.306   7.658 -0.7056 -0.1952  0.1085
   93CHL1   H14 9305   0.464   5.415   7.644 -0.4938 -0.3424 -1.3299
   93CHL1   C15 9306   0.612   5.304   7.730 -0.5340  0.3052  0.5002
   93CHL1  H15A 9307   0.660   5.205   7.718  0.6572  0.7057  1.8297
   93CHL1  H15B 9308   0.684   5.384   7.701  0.2150 -0.6815 -0.3859
   93CHL1   C16 9309   0.578   5.331   7.877  0.0042 -0.0940  0.1347
   93CHL1  H16A 9310   0.611   5.251   7.947  1.0365  0.1509 -0.0578
   93CHL1  H16B 9311   0.630   5.422   7.916 -0.5573  1.2085 -2.0905
   93CHL1   C17 9312   0.419   5.341   7.882 -0.9614  0.1281 -0.4301
   93CHL1   H17 9313   0.397   5.448   7.867 -1.7228 -0.2155 -1.8358
   93CHL1   C13 9314   0.373   5.265   7.752  0.1937 -0.1324 -0.4435
   93CHL1   C18 9315   0.377   5.114   7.784 -0.3897 -0.7874 -0.1375
   93CHL1  H18A 9316   0.311   5.100   7.873 -0.0866  0.7532  0.3417
   93CHL1  H18B 9317   0.333   5.054   7.701 -1.3932  0.4357 -0.4948
   93CHL1  H18C 9318   0.473   5.079   7.827 -1.0550 -1.6233  0.7052
   93CHL1   C12 9319   0.236   5.300   7.693  0.7353 -0.6018  0.2385
   93CHL1  H12A 9320   0.150   5.272   7.758 -0.0828  0.6940 -0.2653
   93CHL1  H12B 9321   0.224   5.408   7.670 -0.7266 -1.2305 -2.1531
   93CHL1   C11 9322   0.223   5.233   7.555 -0.0919  0.0269  0.1383
   93CHL1  H11A 9323   0.218   5.123   7.567 -0.4739 -0.2000 -1.9481
   93CHL1  H11B 9324   0.122   5.265   7.521  0.1987  1.3028  0.4433
   93CHL1    C9 9325   0.339   5.270   7.459 -0.1877  0.4964 -0.1301
   93CHL1    H9 9326   0.328   5.379   7.444  4.3728  1.1452  0.4040
   93CHL1   C10 9327   0.321   5.198   7.325  0.0767 -0.3821  0.4410
   93CHL1   C19 9328   0.326   5.046   7.331 -0.3156  0.1996 -0.6894
   93CHL1  H19A 9329   0.423   5.010   7.373  0.7121  2.5714 -0.9757
   93CHL1  H19B 9330   0.241   5.005   7.389 -0.0873  0.0375 -0.4728
   93CHL1  H19C 9331   0.317   4.998   7.231  2.7415  0.1832 -1.0131
   93CHL1    C1 9332   0.192   5.252   7.254 -0.4311 -0.1915 -0.3588
   93CHL1   H1A 9333   0.099   5.225   7.309  0.4552 -1.4868  0.5461
   93CHL1   H1B 9334   0.184   5.362   7.250  0.4981  0.0346  2.7672
   93CHL1    C2 9335   0.187   5.205   7.112  0.4407 -0.3123 -0.2270
   93CHL1   H2A 9336   0.089   5.237   7.072  0.4898 -0.9777 -0.9162
   93CHL1   H2B 9337   0.195   5.095   7.097 -2.2915 -0.6258  0.4350
   93CHL1   C20 9338   0.366   5.306   8.018 -0.1586  0.2730 -0.1623
   93CHL1   H20 9339   0.377   5.200   8.052 -3.5618 -0.6856 -1.8932
   93CHL1   C21 9340   0.212   5.322   8.021  0.6704 -0.8741  0.5995
   93CHL1  H21A 9341   0.183   5.418   7.972 -1.9189 -1.6821  0.4787
   93CHL1  H21B 9342   0.169   5.329   8.123 -0.3243 -2.3720  0.2894
   93CHL1  H21C 9343   0.168   5.236   7.965 -0.6225  0.9092 -1.2012
   93CHL1   C22 9344   0.424   5.392   8.132 -0.1253  0.0639  0.0451
   93CHL1  H22A 9345   0.535   5.392   8.134 -0.1280  1.4282  0.4629
   93CHL1  H22B 9346   0.387   5.495   8.115  1.0113  0.4300 -0.2176
   93CHL1   C23 9347   0.382   5.358   8.275  0.0387 -0.0249  0.1829
   93CHL1  H23A 9348   0.272   5.372   8.281 -0.0949 -0.9135 -0.1113
   93CHL1  H23B 9349   0.404   5.253   8.306  0.2661  0.3103  1.1697
   93CHL1   C24 9350   0.466   5.449   8.369  0.7044 -0.4958  0.2418
   93CHL1  H24A 9351   0.570   5.450   8.331  0.2948 -1.0766 -0.9334
   93CHL1  H24B 9352   0.423   5.550   8.352 -0.0293 -1.2141 -2.4666
   93CHL1   C25 9353   0.450   5.447   8.519 -0.0851 -0.5314 -0.0561
   93CHL1   H25 9354   0.346   5.451   8.559 -0.4246  0.1066 -0.9810
   93CHL1   C26 9355   0.490   5.309   8.573 -0.8380 -0.5560  0.2466
   93CHL1  H26A 9356   0.424   5.225   8.543 -0.6537  0.1078 -2.0688
   93CHL1  H26B 9357   0.594   5.284   8.541 -0.5792 -0.9424  1.3510
   93CHL1  H26C 9358   0.510   5.314   8.683  0.3696 -2.5468  0.1436
   93CHL1   C27 9359   0.531   5.560   8.580 -0.3009 -0.2624  0.0380
   93CHL1  H27A 9360   0.489   5.658   8.550 -2.1665 -0.9926  0.2128
   93CHL1  H27B 9361   0.539   5.556   8.690 -1.2461 -1.3554  0.0771
   93CHL1  H27C 9362   0.633   5.563   8.535 -0.0478 -1.5365  0.4885
   94CHL1    C3 9363   2.909   1.782   6.732 -0.2799  0.3931 -0.7500
   94CHL1    H3 9364   3.011   1.773   6.775  0.7978  0.0736 -3.2470
   94CHL1    O3 9365   2.928   1.754   6.594 -0.1409  0.2322 -0.1416
   94CHL1   H3' 9366   2.942   1.839   6.552  1.9209  0.6166  1.2417
   94CHL1    C4 9367   2.810   1.673   6.791 -0.1358  0.7525 -0.1225
   94CHL1   H4A 9368   2.706   1.687   6.756  0.4074  3.1160 -0.8985
   94CHL1   H4B 9369   2.851   1.578   6.752 -2.5351  0.5079 -2.1851
   94CHL1    C5 9370   2.816   1.688   6.943 -0.4320 -0.4032 -0.0058
   94CHL1    C6 9371   2.865   1.595   7.021  0.4356  0.0147 -0.4911
   94CHL1    H6 9372   2.899   1.501   6.976 -0.3615 -0.4603 -0.1115
   94CHL1    C7 9373   2.879   1.615   7.169  0.1001  0.4746  0.0828
   94CHL1   H7A 9374   2.871   1.522   7.230  3.6946  1.8539  2.8644
   94CHL1   H7B 9375   2.983   1.642   7.196  0.2088  1.0999 -0.9664
   94CHL1    C8 9376   2.780   1.718   7.227 -0.8234  1.2736 -0.7696
   94CHL1    H8 9377   2.683   1.666   7.215  0.6369 -1.7966  0.3529
   94CHL1   C14 9378   2.817   1.745   7.371  0.3932  0.7761 -0.1162
   94CHL1   H14 9379   2.918   1.790   7.362  0.4582  0.8043  0.7090
   94CHL1   C15 9380   2.838   1.637   7.478 -0.5223  0.0922 -0.6407
   94CHL1  H15A 9381   2.744   1.578   7.492 -0.1786 -0.2541  0.2944
   94CHL1  H15B 9382   2.915   1.558   7.461 -2.4730 -2.0988  0.2952
   94CHL1   C16 9383   2.837   1.716   7.616 -0.2619 -0.7035  0.2976
   94CHL1  H16A 9384   2.754   1.672   7.676  1.4740 -2.2085  1.6380
   94CHL1  H16B 9385   2.937   1.715   7.664 -0.1794 -4.4593  0.2406
   94CHL1   C17 9386   2.785   1.859   7.580 -1.3848  0.9272 -0.3682
   94CHL1   H17 9387   2.876   1.922   7.577  0.1729 -1.2083  0.6339
   94CHL1   C13 9388   2.727   1.853   7.433  0.5419 -0.4636  0.2011
   94CHL1   C18 9389   2.580   1.799   7.439  0.0713  0.1696 -0.7569
   94CHL1  H18A 9390   2.550   1.760   7.340  1.2944 -0.2338 -0.9826
   94CHL1  H18B 9391   2.563   1.715   7.510  1.8347 -1.5545 -2.3312
   94CHL1  H18C 9392   2.518   1.884   7.475  2.1904  1.0157  1.0608
   94CHL1   C12 9393   2.734   1.982   7.349 -0.2129 -0.0606 -0.0578
   94CHL1  H12A 9394   2.672   2.068   7.381 -1.4592 -1.3923  1.1798
   94CHL1  H12B 9395   2.837   2.019   7.363 -0.5124  0.6077  0.3750
   94CHL1   C11 9396   2.702   1.961   7.208  0.4406  0.3401  0.5110
   94CHL1  H11A 9397   2.598   1.923   7.211 -0.0644  1.6455 -0.2823
   94CHL1  H11B 9398   2.705   2.055   7.149 -2.9008 -1.3851 -2.6138
   94CHL1    C9 9399   2.788   1.849   7.142 -0.6544  0.3790 -0.0492
   94CHL1    H9 9400   2.892   1.888   7.151 -0.7283  0.8320 -1.0708
   94CHL1   C10 9401   2.764   1.825   6.988  0.2004 -0.2138 -0.6562
   94CHL1   C19 9402   2.613   1.837   6.960  0.5129 -0.1363  0.3637
   94CHL1  H19A 9403   2.559   1.927   6.998 -3.1603 -1.2424 -2.0425
   94CHL1  H19B 9404   2.582   1.824   6.855 -3.0971  0.1594  1.3003
   94CHL1  H19C 9405   2.563   1.760   7.023 -1.5056 -0.0324 -1.0730
   94CHL1    C1 9406   2.848   1.941   6.912 -0.2193 -0.0884  0.1420
   94CHL1   H1A 9407   2.788   2.033   6.925 -0.3734 -0.3490  1.4092
   94CHL1   H1B 9408   2.945   1.942   6.965  0.2024  1.8357 -0.6474
   94CHL1    C2 9409   2.859   1.921   6.764 -0.6424 -0.4360 -0.4893
   94CHL1   H2A 9410   2.917   2.007   6.724 -1.2941 -0.9161 -2.5161
   94CHL1   H2B 9411   2.753   1.928   6.735 -0.1260  0.5412 -2.1787
   94CHL1   C20 9412   2.692   1.932   7.684  0.1186  0.1761 -0.6133
   94CHL1   H20 9413   2.591   1.886   7.693 -0.1249  0.3319 -2.4747
   94CHL1   C21 9414   2.673   2.078   7.646 -0.3304  0.6500 -0.2838
   94CHL1  H21A 9415   2.627   2.141   7.725  2.1750  2.2153  0.0088
   94CHL1  H21B 9416   2.592   2.086   7.571  1.3808  0.5206 -2.2056
   94CHL1  H21C 9417   2.762   2.137   7.613  0.1395  1.8937  2.9834
   94CHL1   C22 9418   2.744   1.932   7.831  0.0927  0.1728 -0.5495
   94CHL1  H22A 9419   2.768   1.826   7.856  0.8361  0.4766  0.0449
   94CHL1  H22B 9420   2.840   1.989   7.836 -0.3432  0.9571 -1.0741
   94CHL1   C23 9421   2.649   1.983   7.943 -0.8093 -0.2461  0.2155
   94CHL1  H23A 9422   2.695   1.974   8.044 -2.4333 -4.9619  0.6881
   94CHL1  H23B 9423   2.628   2.088   7.916  0.0480 -0.2083 -0.3192
   94CHL1   C24 9424   2.511   1.916   7.953 -0.4598 -0.5269 -0.3506
   94CHL1  H24A 9425   2.458   1.927   7.856  1.8557  1.2135 -1.4779
   94CHL1  H24B 9426   2.517   1.805   7.964  1.6295 -0.6307 -1.9790
   94CHL1   C25 9427   2.428   1.980   8.071 -1.0481 -0.7625  0.2699
   94CHL1   H25 9428   2.506   2.004   8.147 -0.0302  2.9374 -1.8125
   94CHL1   C26 9429   2.363   2.114   8.018  0.4700  0.0104 -0.0460
   94CHL1  H26A 9430   2.317   2.177   8.098 -0.9217 -1.0864  0.0330
   94CHL1  H26B 9431   2.439   2.183   7.976  0.1291  0.2546 -0.2626
   94CHL1  H26C 9432   2.290   2.089   7.938 -1.4996 -4.1781  2.8523
   94CHL1   C27 9433   2.321   1.886   8.113  0.0165 -0.1384  0.2202
   94CHL1  H27A 9434   2.260   1.919   8.200 -1.1966 -1.5287 -0.0927
   94CHL1  H27B 9435   2.252   1.863   8.029  0.7006  0.9100 -0.6488
   94CHL1  H27C 9436   2.387   1.806   8.152  0.0414  0.8639  2.2877
   95CHL1    C3 9437   2.392   0.999   6.831 -0.1462  0.3831 -0.1647
   95CHL1    H3 9438   2.461   1.082   6.857  0.9582 -0.0856 -1.5643
   95CHL1    O3 9439   2.390   0.986   6.690  0.2123 -0.2578  0.1934
   95CHL1   H3' 9440   2.298   0.974   6.666  0.3139  1.0691 -0.9411
   95CHL1    C4 9441   2.427   0.855   6.885  0.2498 -0.6808  0.1560
   95CHL1   H4A 9442   2.367   0.780   6.829  0.0882 -1.1422  0.9261
   95CHL1   H4B 9443   2.530   0.837   6.848  0.5335  0.5815  0.2893
   95CHL1    C5 9444   2.406   0.853   7.034  0.6260 -0.4526  0.2269
   95CHL1    C6 9445   2.507   0.819   7.113 -0.6519 -0.2918  0.6999
   95CHL1    H6 9446   2.604   0.788   7.069 -0.6118 -1.2840  1.4685
   95CHL1    C7 9447   2.504   0.828   7.261  0.4193  0.2177 -0.3825
   95CHL1   H7A 9448   2.556   0.735   7.292  1.4313  1.2297  1.0199
   95CHL1   H7B 9449   2.556   0.916   7.304  1.1347  0.2686 -1.3510
   95CHL1    C8 9450   2.357   0.832   7.319 -0.6489 -0.7822 -0.1204
   95CHL1    H8 9451   2.309   0.733   7.302 -1.8085 -0.3199  0.4756
   95CHL1   C14 9452   2.360   0.870   7.468 -1.0945 -0.1475 -0.2539
   95CHL1   H14 9453   2.402   0.973   7.471 -1.2087  0.0254 -2.9213
   95CHL1   C15 9454   2.452   0.787   7.568 -0.1065  0.1084 -0.0828
   95CHL1  H15A 9455   2.435   0.679   7.552  0.0731  0.0775 -0.0713
   95CHL1  H15B 9456   2.558   0.813   7.546 -0.5804  1.0010 -1.3255
   95CHL1   C16 9457   2.398   0.826   7.709  0.0190 -0.6772 -0.9061
   95CHL1  H16A 9458   2.399   0.737   7.775  0.8210  1.6951  2.3937
   95CHL1  H16B 9459   2.468   0.899   7.756 -1.5705  1.2937 -1.5289
   95CHL1   C17 9460   2.257   0.902   7.683 -0.5876  0.5131  0.3218
   95CHL1   H17 9461   2.283   1.010   7.692  0.8413  0.0700  1.7475
   95CHL1   C13 9462   2.225   0.872   7.538 -0.1785  0.4286 -0.0671
   95CHL1   C18 9463   2.147   0.735   7.528 -0.0976 -0.1214 -0.2964
   95CHL1  H18A 9464   2.151   0.708   7.421  0.6896 -0.1202 -0.2727
   95CHL1  H18B 9465   2.201   0.662   7.592  0.2738  0.2310 -0.1990
   95CHL1  H18C 9466   2.042   0.745   7.560 -0.1196  1.9226 -0.9297
   95CHL1   C12 9467   2.147   0.980   7.463 -0.5232  0.2952  0.4830
   95CHL1  H12A 9468   2.041   0.980   7.497 -0.6355  0.4383  0.1275
   95CHL1  H12B 9469   2.194   1.074   7.499 -2.3805  1.5933 -0.3962
   95CHL1   C11 9470   2.141   0.968   7.313  0.0945 -0.5850 -0.6460
   95CHL1  H11A 9471   2.087   0.874   7.289 -0.0805 -0.5382 -0.4419
   95CHL1  H11B 9472   2.094   1.054   7.259  0.3659 -0.0538 -0.0424
   95CHL1    C9 9473   2.275   0.935   7.238 -0.0086 -0.1211  0.6705
   95CHL1    H9 9474   2.327   1.033   7.250 -0.1067  0.3377 -2.3057
   95CHL1   C10 9475   2.270   0.915   7.086 -0.0653  0.3889  0.1901
   95CHL1   C19 9476   2.170   0.792   7.053 -0.2390  0.3319 -0.1500
   95CHL1  H19A 9477   2.219   0.697   7.085  1.5127  0.5072 -2.2127
   95CHL1  H19B 9478   2.073   0.801   7.106 -1.0412  1.1003 -1.7427
   95CHL1  H19C 9479   2.154   0.785   6.944  1.2241  2.3423 -0.5184
   95CHL1    C1 9480   2.231   1.056   7.010  0.3022 -0.5067  0.1691
   95CHL1   H1A 9481   2.123   1.079   7.023  0.1635 -0.6009 -0.7725
   95CHL1   H1B 9482   2.291   1.132   7.065 -1.0519  0.6327  0.0895
   95CHL1    C2 9483   2.252   1.042   6.861 -0.1859 -0.7886  0.2739
   95CHL1   H2A 9484   2.231   1.145   6.825 -0.7650 -1.2032 -0.5858
   95CHL1   H2B 9485   2.175   0.968   6.829 -0.3913 -1.0529  1.3688
   95CHL1   C20 9486   2.150   0.864   7.783 -0.1762  0.7648 -0.3203
   95CHL1   H20 9487   2.112   0.759   7.773  0.3167  0.7008 -1.5649
   95CHL1   C21 9488   2.031   0.955   7.766  0.8955 -0.4633 -0.3458
   95CHL1  H21A 9489   1.979   0.958   7.864  1.4069  2.8331 -0.1259
   95CHL1  H21B 9490   1.962   0.929   7.683  0.7779  0.6476 -0.6021
   95CHL1  H21C 9491   2.056   1.061   7.746  1.0667 -0.2947  0.7337
   95CHL1   C22 9492   2.203   0.878   7.932  0.0730 -0.3709 -0.1669
   95CHL1  H22A 9493   2.123   0.857   8.006 -1.0236 -2.7986 -1.9619
   95CHL1  H22B 9494   2.276   0.795   7.936 -1.7803 -2.0530 -0.1294
   95CHL1   C23 9495   2.272   1.020   7.959  0.3082 -0.1173  0.3344
   95CHL1  H23A 9496   2.353   1.033   7.884 -0.6039 -0.6853 -0.7806
   95CHL1  H23B 9497   2.186   1.087   7.935  1.1950  0.4265 -1.4300
   95CHL1   C24 9498   2.319   1.051   8.100 -0.4425  0.7260 -0.2742
   95CHL1  H24A 9499   2.354   1.156   8.115 -2.9441  1.5685 -0.1832
   95CHL1  H24B 9500   2.231   1.043   8.166  0.1340  0.9754  0.5344
   95CHL1   C25 9501   2.414   0.944   8.164 -0.5224  0.1936  0.5326
   95CHL1   H25 9502   2.364   0.846   8.148  0.1400 -0.0775  0.1182
   95CHL1   C26 9503   2.558   0.962   8.110  0.0728  0.1856 -0.3262
   95CHL1  H26A 9504   2.608   0.868   8.141 -1.2830 -0.4918 -0.1655
   95CHL1  H26B 9505   2.532   0.957   8.002  0.6882  1.9679 -0.5854
   95CHL1  H26C 9506   2.593   1.064   8.136  1.9105 -0.7638  1.0641
   95CHL1   C27 9507   2.427   0.967   8.319 -0.4012 -0.0148  0.4409
   95CHL1  H27A 9508   2.468   1.068   8.343 -1.2200  0.5094 -0.3107
   95CHL1  H27B 9509   2.329   0.969   8.370 -0.1755 -0.5156  0.8872
   95CHL1  H27C 9510   2.478   0.883   8.369 -0.1677  0.2162  0.5914
   96CHL1    C3 9511   1.864   6.423   6.687  0.4618 -0.7100 -0.0972
   96CHL1    H3 9512   1.908   6.518   6.649  1.4760 -0.7918  0.8576
   96CHL1    O3 9513   1.814   6.353   6.577 -0.7674  0.5768  0.5252
   96CHL1   H3' 9514   1.889   6.297   6.557 -1.6244  0.2095 -1.7939
   96CHL1    C4 9515   1.958   6.330   6.766  0.0783 -0.5125 -0.4020
   96CHL1   H4A 9516   1.908   6.233   6.788 -2.8200  0.5470 -1.9635
   96CHL1   H4B 9517   2.044   6.313   6.699  0.1020 -1.3724 -0.1576
   96CHL1    C5 9518   2.006   6.403   6.886 -0.5688 -0.5985  0.5082
   96CHL1    C6 9519   2.138   6.415   6.908 -0.0689 -0.0913 -1.0920
   96CHL1    H6 9520   2.211   6.378   6.835  0.3695  2.0886 -1.8107
   96CHL1    C7 9521   2.195   6.466   7.037  0.4259  0.2166  0.3848
   96CHL1   H7A 9522   2.282   6.407   7.072 -0.9001 -1.3477  1.0796
   96CHL1   H7B 9523   2.243   6.563   7.011  0.1882  0.3424  0.4212
   96CHL1    C8 9524   2.093   6.484   7.153 -0.0753 -0.1739 -0.5741
   96CHL1    H8 9525   2.070   6.383   7.194 -1.0038  0.4022  0.3561
   96CHL1   C14 9526   2.149   6.574   7.270 -0.2180 -0.3666  0.1151
   96CHL1   H14 9527   2.183   6.665   7.216  0.1389  0.0268  0.9835
   96CHL1   C15 9528   2.272   6.529   7.351 -0.0234  0.7939  0.5471
   96CHL1  H15A 9529   2.256   6.422   7.377  0.6988  0.8968  1.4154
   96CHL1  H15B 9530   2.372   6.531   7.303  0.3890 -2.3720  1.1317
   96CHL1   C16 9531   2.269   6.613   7.478 -0.2315  0.4596  0.1542
   96CHL1  H16A 9532   2.273   6.545   7.566 -2.4706  0.8761  0.6132
   96CHL1  H16B 9533   2.351   6.684   7.500 -0.0610 -0.0230  1.0962
   96CHL1   C17 9534   2.138   6.694   7.479  0.5273  0.3452  0.1710
   96CHL1   H17 9535   2.151   6.794   7.431 -1.7465  0.4617 -0.2299
   96CHL1   C13 9536   2.045   6.615   7.376 -0.4701 -0.0298  0.4159
   96CHL1   C18 9537   1.993   6.491   7.450  0.1808  0.1786 -0.3297
   96CHL1  H18A 9538   1.896   6.508   7.502  1.3573  0.4271  1.8276
   96CHL1  H18B 9539   1.980   6.407   7.377 -0.1086  1.1095 -1.3609
   96CHL1  H18C 9540   2.062   6.460   7.531 -0.0479  1.6342  0.4311
   96CHL1   C12 9541   1.925   6.682   7.309  0.0460  0.1620 -0.4254
   96CHL1  H12A 9542   1.855   6.718   7.387  0.9547  1.1466 -0.0501
   96CHL1  H12B 9543   1.965   6.761   7.242 -0.4250  0.8882  0.1382
   96CHL1   C11 9544   1.854   6.580   7.211  0.0253  0.3619 -0.2856
   96CHL1  H11A 9545   1.815   6.488   7.258  1.2936  0.2558  0.5641
   96CHL1  H11B 9546   1.772   6.629   7.154 -2.3930 -1.8187  1.2410
   96CHL1    C9 9547   1.959   6.542   7.098 -0.6166  1.1343  0.1160
   96CHL1    H9 9548   1.989   6.635   7.045  2.1221  0.7188  0.8142
   96CHL1   C10 9549   1.901   6.450   6.987 -0.3914  0.8199 -0.3791
   96CHL1   C19 9550   1.826   6.332   7.055 -0.1725  0.3069 -0.1518
   96CHL1  H19A 9551   1.730   6.366   7.100 -1.3443 -0.6886 -1.8421
   96CHL1  H19B 9552   1.796   6.258   6.978 -1.6823  0.4734  0.2661
   96CHL1  H19C 9553   1.882   6.281   7.136 -0.1725  0.1458 -0.2533
   96CHL1    C1 9554   1.799   6.530   6.902 -0.0539 -0.0031  0.4170
   96CHL1   H1A 9555   1.713   6.548   6.970 -0.9931 -0.9571 -0.5033
   96CHL1   H1B 9556   1.848   6.624   6.868  4.2678 -2.1635  0.2962
   96CHL1    C2 9557   1.746   6.460   6.785 -0.1522 -0.1991  0.1279
   96CHL1   H2A 9558   1.679   6.519   6.719 -1.1694 -1.5169 -0.0456
   96CHL1   H2B 9559   1.682   6.378   6.824  0.5743 -2.3412 -3.0386
   96CHL1   C20 9560   2.089   6.715   7.625  0.6392 -0.2257  0.0437
   96CHL1   H20 9561   2.059   6.619   7.671  1.1427 -0.0058  0.8472
   96CHL1   C21 9562   1.969   6.810   7.621  0.0508  0.6363 -0.8670
   96CHL1  H21A 9563   1.875   6.752   7.613 -0.1632  0.4969  1.9739
   96CHL1  H21B 9564   1.976   6.894   7.549  1.0607 -0.0409 -1.5808
   96CHL1  H21C 9565   1.956   6.865   7.717 -2.5812  0.6936 -1.2427
   96CHL1   C22 9566   2.205   6.787   7.707  0.4638  0.2822 -0.4768
   96CHL1  H22A 9567   2.287   6.712   7.721  1.4117  1.3540 -0.2089
   96CHL1  H22B 9568   2.261   6.863   7.649 -2.3733  1.6346 -1.5146
   96CHL1   C23 9569   2.168   6.846   7.852  0.2253 -0.2477  0.3272
   96CHL1  H23A 9570   2.254   6.894   7.904  1.1672 -0.2527 -1.1747
   96CHL1  H23B 9571   2.098   6.932   7.846  0.1036 -0.2498  1.5905
   96CHL1   C24 9572   2.089   6.743   7.934  0.1874 -0.4815 -0.2577
   96CHL1  H24A 9573   2.000   6.706   7.879 -0.5773  1.8225 -0.6213
   96CHL1  H24B 9574   2.153   6.658   7.966 -1.8602 -2.0543 -0.2276
   96CHL1   C25 9575   2.032   6.806   8.063 -0.0127 -0.3422  0.5346
   96CHL1   H25 9576   1.979   6.900   8.036  0.2330 -0.7456 -1.4468
   96CHL1   C26 9577   1.928   6.711   8.127  0.1372  0.0755  0.4277
   96CHL1  H26A 9578   1.841   6.764   8.171  0.5592  1.1666 -0.0508
   96CHL1  H26B 9579   1.893   6.630   8.058 -2.8682 -0.1299  2.1097
   96CHL1  H26C 9580   1.973   6.661   8.215 -3.3905 -1.1450  1.6450
   96CHL1   C27 9581   2.137   6.844   8.169  1.1713  0.7026 -0.0606
   96CHL1  H27A 9582   2.112   6.889   8.267  0.8043 -0.2173  0.2759
   96CHL1  H27B 9583   2.213   6.764   8.186 -0.1564 -0.4760  0.4432
   96CHL1  H27C 9584   2.209   6.917   8.128  2.3962 -0.0298  0.7374
   97OSM      N 9585   6.659   0.623  11.328 -0.5703 -0.4029  0.3734
   97OSM    C15 9586   6.633   0.627  11.471 -0.5081 -0.1103  0.5065
   97OSM   H15A 9587   6.727   0.654  11.519 -0.0346  2.5465 -1.8002
   97OSM   H15B 9588   6.611   0.528  11.508 -0.6329 -0.2954 -0.0753
   97OSM   H15C 9589   6.555   0.692  11.507 -1.7509 -1.5087  0.3571
   97OSM    C14 9590   6.541   0.560  11.265 -0.1802 -0.1282 -0.3389
   97OSM   H14A 9591   6.449   0.612  11.287 -0.6203 -0.3825 -1.4871
   97OSM   H14B 9592   6.525   0.457  11.293 -2.0351  0.2581  0.0919
   97OSM   H14C 9593   6.549   0.581  11.159 -0.1873  2.2531  0.1067
   97OSM    C13 9594   6.655   0.772  11.281  0.6766 -0.1159 -0.0974
   97OSM   H13A 9595   6.655   0.773  11.173  2.3353 -0.6474 -0.1289
   97OSM   H13B 9596   6.744   0.823  11.316  1.7285 -0.5656 -2.0115
   97OSM   H13C 9597   6.576   0.828  11.327 -0.9965 -1.3432 -1.4089
   97OSM    C12 9598   6.782   0.549  11.285 -0.0403  0.1172  0.3906
   97OSM   H12A 9599   6.784   0.457  11.342  0.0223  0.1736  0.4817
   97OSM   H12B 9600   6.864   0.611  11.317 -0.4030  1.3484 -1.0489
   97OSM    C11 9601   6.803   0.523  11.133  0.2274 -0.4062 -0.0928
   97OSM   H11A 9602   6.725   0.450  11.102  0.3202  0.2384 -1.9766
   97OSM   H11B 9603   6.899   0.473  11.112 -0.7824 -2.0523 -0.8927
   97OSM      P 9604   6.875   0.731  10.990  0.3652  0.2156 -0.2102
   97OSM    O13 9605   6.796   0.846  10.942  0.4339  0.0649 -0.2006
   97OSM    O14 9606   6.993   0.738  11.076 -0.4880 -1.0095 -0.0586
   97OSM    O11 9607   6.926   0.649  10.866  0.4712  0.2176  0.5143
   97OSM    O12 9608   6.771   0.633  11.052 -0.0944  0.1065  0.6168
   97OSM    C1S 9609   6.834   0.596  10.770 -0.1883  0.5765 -0.3868
   97OSM    H1S 9610   6.734   0.643  10.786 -0.3831  0.3832 -1.0364
   97OSM    H1T 9611   6.834   0.485  10.778 -2.0058  0.6988  2.0932
   97OSM     NF 9612   6.772   0.608  10.541 -0.2158 -0.2306  0.8480
   97OSM    HNF 9613   6.766   0.518  10.499  1.0707 -0.5466  1.3100
   97OSM    C2S 9614   6.884   0.633  10.630 -0.0595  0.3521 -0.2692
   97OSM    H2S 9615   6.914   0.739  10.620 -0.3973  0.3440 -1.4737
   97OSM    C3S 9616   7.006   0.552  10.600  0.5196 -0.4821  0.8848
   97OSM    H3S 9617   6.988   0.446  10.626  0.6063 -0.7541 -0.1155
   97OSM     O3 9618   7.127   0.583  10.677  0.1492  0.5574  1.0552
   97OSM    HO3 9619   7.119   0.659  10.737  0.8830 -1.1302  3.3701
   97OSM    C4S 9620   7.041   0.569  10.454  0.6484 -0.0025  0.6379
   97OSM    H4S 9621   7.118   0.643  10.426  1.5508 -1.2966 -0.3377
   97OSM    C5S 9622   6.986   0.491  10.360 -0.3114  0.3708  1.5102
   97OSM    H5S 9623   6.902   0.424  10.385 -0.0982 -0.3486  0.3276
   97OSM    C6S 9624   7.021   0.514  10.215  0.0132 -0.1569 -0.5399
   97OSM    H6S 9625   7.126   0.547  10.199  0.3945 -1.3066 -0.5193
   97OSM    H6T 9626   6.953   0.585  10.164 -1.7779 -1.9556 -0.7605
   97OSM    C7S 9627   7.015   0.380  10.134  0.3093  0.5921  0.0683
   97OSM    H7S 9628   6.909   0.348  10.126 -0.1756  1.9963  0.6050
   97OSM    H7T 9629   7.070   0.298  10.184  0.1116  0.8696  0.7497
   97OSM    C8S 9630   7.079   0.400   9.997 -0.1740  0.2412 -0.1952
   97OSM    H8S 9631   7.093   0.298   9.955 -2.1004 -0.8359  1.6725
   97OSM    H8T 9632   7.182   0.433  10.025  0.4151  0.0483 -2.0643
   97OSM    C9S 9633   7.002   0.490   9.903  0.5423  0.2125  0.0436
   97OSM    H9S 9634   7.062   0.475   9.810 -0.4748  0.0025 -0.6003
   97OSM    H9T 9635   6.999   0.601   9.912  0.2609  0.2421 -0.3904
   97OSM   C10S 9636   6.863   0.443   9.875 -0.7832 -0.0299  0.7232
   97OSM   H10S 9637   6.798   0.480   9.957 -2.0450 -0.7688  0.0623
   97OSM   H10T 9638   6.879   0.334   9.868  1.6776  0.3601 -0.2309
   97OSM   C11S 9639   6.822   0.503   9.740 -0.2988 -0.0154 -0.2473
   97OSM   H11S 9640   6.899   0.464   9.671  0.0974 -2.2056  1.3801
   97OSM   H11T 9641   6.827   0.614   9.754 -2.3715 -0.0230  0.6774
   97OSM   C12S 9642   6.682   0.464   9.688 -0.2107 -0.3261 -0.0799
   97OSM   H12S 9643   6.684   0.354   9.671 -1.3294 -0.2559 -0.7230
   97OSM   H12T 9644   6.657   0.510   9.590  0.4816  0.7820  0.2513
   97OSM   C13S 9645   6.577   0.492   9.793 -0.1248  0.2475  0.5327
   97OSM   H13S 9646   6.587   0.593   9.839 -0.7737  0.3428  0.4630
   97OSM   H13T 9647   6.609   0.416   9.867 -0.1437  0.2657  0.5582
   97OSM   C14S 9648   6.444   0.461   9.737  0.6746  0.3374 -0.0802
   97OSM   H14S 9649   6.433   0.408   9.640 -0.4701 -0.1678  0.3128
   97OSM   H14T 9650   6.386   0.555   9.727 -1.3654 -0.7883  0.8105
   97OSM   C15S 9651   6.353   0.396   9.841 -0.6887  0.3654 -0.1783
   97OSM   H15S 9652   6.380   0.422   9.946  0.1126  3.8860 -1.2145
   97OSM   H15T 9653   6.378   0.288   9.837 -2.7228 -0.1965  1.1566
   97OSM   C16S 9654   6.199   0.423   9.824  0.0266 -0.2480 -0.3762
   97OSM   H16S 9655   6.176   0.529   9.801  1.6769  0.1323 -0.3734
   97OSM   H16T 9656   6.160   0.399   9.925 -2.1355 -0.1203 -1.1563
   97OSM   C17S 9657   6.130   0.325   9.735  0.3314  0.0668 -0.2476
   97OSM   H17S 9658   6.022   0.339   9.757 -0.0436 -1.0751 -1.3300
   97OSM   H17T 9659   6.163   0.223   9.766  1.4683  0.9862  1.6833
   97OSM   C18S 9660   6.156   0.338   9.584 -0.4998 -0.5132  0.3124
   97OSM   H18S 9661   6.265   0.317   9.588 -0.0242  2.0264  1.9416
   97OSM   H18T 9662   6.150   0.444   9.551  1.9084 -0.0800  1.1843
   97OSM   H18U 9663   6.101   0.264   9.522 -0.4590  0.9752 -1.5570
   97OSM    C1F 9664   6.675   0.696  10.509  0.2682 -0.1023  0.2288
   97OSM     OF 9665   6.673   0.803  10.561  0.0139 -0.0469 -0.3473
   97OSM    C2F 9666   6.573   0.646  10.408  0.5977 -0.1925  1.0607
   97OSM    H2F 9667   6.475   0.662  10.457  0.5142 -0.9447  1.1350
   97OSM    H2G 9668   6.587   0.539  10.382 -1.0964  0.1397 -1.4926
   97OSM    C3F 9669   6.574   0.740  10.276 -0.4330 -0.0555 -0.3973
   97OSM    H3F 9670   6.558   0.843  10.312 -1.6047 -0.1758 -0.5509
   97OSM    H3G 9671   6.485   0.721  10.213 -1.1715  1.0446  0.3011
   97OSM    C4F 9672   6.694   0.721  10.180 -0.4430  0.7239  0.1430
   97OSM    H4F 9673   6.688   0.618  10.139  0.7254  0.8896 -0.4678
   97OSM    H4G 9674   6.788   0.746  10.234 -0.1075  1.7159 -0.8996
   97OSM    C5F 9675   6.667   0.813  10.067  0.1858 -0.2279 -0.5635
   97OSM    H5F 9676   6.629   0.901  10.124  2.1693 -1.3272  2.5660
   97OSM    H5G 9677   6.584   0.773  10.006 -1.4460 -1.0591  2.1382
   97OSM    C6F 9678   6.786   0.840   9.972  0.4558 -0.6068  0.3832
   97OSM    H6F 9679   6.845   0.749   9.947  1.7891  0.5184 -0.6253
   97OSM    H6G 9680   6.855   0.911  10.022  3.4020 -2.6786 -0.6290
   97OSM    C7F 9681   6.744   0.903   9.837 -0.5899 -0.2317 -0.8193
   97OSM    H7F 9682   6.678   0.827   9.790 -1.7472 -0.3297  0.9368
   97OSM    H7G 9683   6.833   0.925   9.774  1.8314 -0.1682  2.4318
   97OSM    C8F 9684   6.671   1.040   9.850 -0.3805  0.1697 -0.0157
   97OSM    H8F 9685   6.592   1.010   9.922 -1.0340  1.3984 -0.2077
   97OSM    H8G 9686   6.620   1.065   9.754 -0.7937  3.5980  1.0137
   97OSM    C9F 9687   6.764   1.148   9.908 -0.2625  0.0476 -0.5365
   97OSM    H9F 9688   6.773   1.137  10.017  3.1774  1.6473 -0.6052
   97OSM   C10F 9689   6.844   1.241   9.844 -0.1008 -0.0861 -0.5029
   97OSM   H10F 9690   6.911   1.308   9.901 -1.0475  0.6123 -0.1985
   97OSM   C11F 9691   6.842   1.269   9.699  0.0421 -0.2386  0.0182
   97OSM   H11F 9692   6.832   1.379   9.689  0.2485  0.0131  2.4366
   97OSM   H11G 9693   6.758   1.221   9.644 -1.9434  0.6709  2.2089
   97OSM   C12F 9694   6.963   1.233   9.614 -0.6953 -0.4701  0.3540
   97OSM   H12F 9695   6.983   1.123   9.612  0.4554 -0.2581 -2.3041
   97OSM   H12G 9696   7.058   1.277   9.650  0.1043 -1.1225 -0.9407
   97OSM   C13F 9697   6.940   1.269   9.469  0.4548 -1.1654  0.5050
   97OSM   H13F 9698   6.938   1.380   9.461  0.1353 -1.0677  1.8471
   97OSM   H13G 9699   6.841   1.226   9.443 -0.0032  1.2700 -1.9608
   97OSM   C14F 9700   7.046   1.196   9.384  0.6977  0.2864 -0.1610
   97OSM   H14F 9701   7.049   1.091   9.422  0.6929  0.3391 -0.0127
   97OSM   H14G 9702   7.151   1.229   9.402  0.8610  1.0917 -2.4645
   97OSM   C15F 9703   7.003   1.199   9.235 -0.9318  0.5597  0.3809
   97OSM   H15F 9704   6.962   1.301   9.219 -2.9540 -0.1598  0.8352
   97OSM   H15G 9705   6.925   1.127   9.201 -0.6226 -0.2637  1.3995
   97OSM   C16F 9706   7.121   1.181   9.137 -0.5138  0.0070  0.0872
   97OSM   H16F 9707   7.148   1.073   9.134  1.5921  0.4971  1.0087
   97OSM   H16G 9708   7.208   1.237   9.176 -0.4857  1.3684 -1.8659
   97OSM   C17F 9709   7.063   1.218   8.998  0.2071 -0.5685 -0.2671
   97OSM   H17F 9710   7.031   1.324   8.996  0.7481 -0.4238 -1.9626
   97OSM   H17G 9711   6.968   1.161   8.988 -1.1937  1.5905  0.5133
   97OSM   C18F 9712   7.155   1.184   8.876  0.5634 -0.0201  0.5095
   97OSM   H18F 9713   7.184   1.077   8.865 -1.0934 -0.3496 -0.7858
   97OSM   H18G 9714   7.246   1.248   8.875  1.0580 -0.6137  3.1619
   97OSM   H18H 9715   7.096   1.216   8.787  0.4263  0.0845  0.6389
   98OSM      N 9716   6.068   0.414  11.297  0.1936 -0.1373 -0.1398
   98OSM    C15 9717   5.930   0.356  11.294  0.1064 -0.3055 -0.2402
   98OSM   H15A 9718   5.897   0.330  11.393  1.2972 -2.3342 -0.3628
   98OSM   H15B 9719   5.935   0.262  11.241  2.6753 -1.8156  2.5986
   98OSM   H15C 9720   5.850   0.422  11.262  0.1838  0.5070  1.2037
   98OSM    C14 9721   6.092   0.520  11.399  0.4467 -0.8643 -0.0560
   98OSM   H14A 9722   6.101   0.483  11.500  1.5576  2.8390  1.2574
   98OSM   H14B 9723   6.004   0.582  11.406  2.1556  1.9873 -2.3727
   98OSM   H14C 9724   6.177   0.577  11.363 -1.5862 -0.3812 -4.3413
   98OSM    C13 9725   6.158   0.298  11.332 -0.2754 -0.0601  0.1406
   98OSM   H13A 9726   6.144   0.216  11.262  0.1192 -1.7210  1.9581
   98OSM   H13B 9727   6.144   0.275  11.437  0.3314 -0.3184  0.1662
   98OSM   H13C 9728   6.258   0.337  11.320 -1.1279  2.1612  0.0903
   98OSM    C12 9729   6.094   0.471  11.158  0.4153 -0.1927 -0.3840
   98OSM   H12A 9730   6.192   0.516  11.166  0.3190 -0.4597  2.9844
   98OSM   H12B 9731   6.018   0.547  11.155 -1.2256 -1.8357 -2.4640
   98OSM    C11 9732   6.073   0.379  11.034 -0.0690  0.1091  0.5958
   98OSM   H11A 9733   6.103   0.432  10.941 -1.3552  0.4524  0.3691
   98OSM   H11B 9734   5.968   0.348  11.016 -0.4403  2.6480 -2.0407
   98OSM      P 9735   6.314   0.289  10.997 -0.1115 -0.1625  0.1030
   98OSM    O13 9736   6.353   0.433  11.004 -0.5435  0.2691  0.0143
   98OSM    O14 9737   6.393   0.202  11.085  0.1779  0.8645 -0.1501
   98OSM    O11 9738   6.330   0.234  10.849 -0.3439 -0.6907 -0.3808
   98OSM    O12 9739   6.164   0.265  11.032  0.2612 -0.2329 -0.1670
   98OSM    C1S 9740   6.237   0.287  10.753  0.0293 -0.2239 -0.2195
   98OSM    H1S 9741   6.261   0.395  10.746  0.8520 -0.5259 -2.6647
   98OSM    H1T 9742   6.130   0.266  10.777 -0.3336  0.5873 -1.1160
   98OSM     NF 9743   6.178   0.301  10.503 -0.7545 -0.7103 -0.0294
   98OSM    HNF 9744   6.086   0.266  10.486 -1.2581 -0.8654  2.6839
   98OSM    C2S 9745   6.243   0.212  10.607 -0.1447  0.3081  0.4175
   98OSM    H2S 9746   6.351   0.196  10.583 -0.8256 -2.6987 -0.7769
   98OSM    C3S 9747   6.183   0.066  10.630 -0.3327  0.1448  0.1397
   98OSM    H3S 9748   6.077   0.078  10.661 -1.3191 -2.6033 -2.0299
   98OSM     O3 9749   6.243   0.008  10.746 -0.2951  0.2393  0.1936
   98OSM    HO3 9750   6.282   0.080  10.796 -1.4398  1.1439 -0.2049
   98OSM    C4S 9751   6.193  -0.026  10.515  0.0240  0.1172 -0.1838
   98OSM    H4S 9752   6.102  -0.086  10.499  0.4682 -0.7297  0.4657
   98OSM    C5S 9753   6.308  -0.063  10.457 -0.4398  0.0749 -0.9661
   98OSM    H5S 9754   6.401  -0.035  10.508 -0.5570 -1.9643  0.4320
   98OSM    C6S 9755   6.340  -0.157  10.346  0.6167 -0.2483 -0.0353
   98OSM    H6S 9756   6.367  -0.251  10.399  2.7463 -0.5621 -1.5938
   98OSM    H6T 9757   6.433  -0.126  10.293  0.2267 -0.7067 -1.0167
   98OSM    C7S 9758   6.222  -0.181  10.247  0.7425 -0.1662 -0.2650
   98OSM    H7S 9759   6.121  -0.207  10.286  1.3766 -2.2372  0.0418
   98OSM    H7T 9760   6.243  -0.267  10.180 -0.9339  0.3520 -1.4931
   98OSM    C8S 9761   6.189  -0.069  10.144 -0.1290  0.3459  0.1161
   98OSM    H8S 9762   6.281  -0.056  10.083  0.2637 -2.2246  0.1042
   98OSM    H8T 9763   6.168   0.028  10.193 -1.4732 -0.0711  0.3834
   98OSM    C9S 9764   6.086  -0.117  10.043 -0.1190 -0.1904 -0.6454
   98OSM    H9S 9765   5.987  -0.116  10.095 -1.1833  1.8647 -2.6400
   98OSM    H9T 9766   6.099  -0.225  10.019 -2.8986 -0.2667 -2.0244
   98OSM   C10S 9767   6.070  -0.034   9.915 -0.2527 -0.5540 -0.3864
   98OSM   H10S 9768   6.166   0.003   9.874 -0.1965 -2.7445 -2.3236
   98OSM   H10T 9769   6.009   0.055   9.943 -2.0224 -1.0503 -2.4567
   98OSM   C11S 9770   5.992  -0.099   9.805 -0.4135 -0.0101  0.3099
   98OSM   H11S 9771   5.895  -0.128   9.849  1.2062 -2.0431  2.6497
   98OSM   H11T 9772   6.047  -0.189   9.769  0.9581  0.9191  0.0602
   98OSM   C12S 9773   5.966   0.002   9.688  0.9100 -0.0586 -0.5044
   98OSM   H12S 9774   6.065   0.039   9.654  1.0540  0.3053  0.2948
   98OSM   H12T 9775   5.893   0.079   9.722  1.6188  0.4788 -0.1775
   98OSM   C13S 9776   5.907  -0.076   9.565  0.1707 -0.0181 -0.7851
   98OSM   H13S 9777   5.820  -0.141   9.590 -1.0823  0.9832 -2.4384
   98OSM   H13T 9778   6.003  -0.124   9.537  0.8906 -0.1537  1.7428
   98OSM   C14S 9779   5.869   0.024   9.454  0.0701 -0.5532  0.0535
   98OSM   H14S 9780   5.955   0.067   9.399  0.2975 -2.1550 -0.8794
   98OSM   H14T 9781   5.816   0.108   9.504  3.0278  0.3002  1.9437
   98OSM   C15S 9782   5.776  -0.038   9.352  1.0846  0.7561  0.4816
   98OSM   H15S 9783   5.697  -0.093   9.406 -0.1166  1.8914 -0.0963
   98OSM   H15T 9784   5.837  -0.112   9.297  1.1449  1.8768 -0.9847
   98OSM   C16S 9785   5.710   0.063   9.254 -0.6006  0.9469 -0.4894
   98OSM   H16S 9786   5.789   0.069   9.177  0.1617 -2.1145 -0.0033
   98OSM   H16T 9787   5.686   0.161   9.302 -0.6774  0.5403  0.3223
   98OSM   C17S 9788   5.585   0.011   9.188 -0.5981  0.7249  0.3013
   98OSM   H17S 9789   5.494   0.043   9.244 -1.1095 -1.2929  0.6632
   98OSM   H17T 9790   5.592  -0.100   9.185 -2.7338  0.5330  1.1913
   98OSM   C18S 9791   5.566   0.068   9.052 -0.2388  0.0181 -0.7338
   98OSM   H18S 9792   5.529   0.173   9.059  2.0512  0.9613 -2.0605
   98OSM   H18T 9793   5.492   0.016   8.989 -1.2085 -0.2896  0.6309
   98OSM   H18U 9794   5.656   0.059   8.988  1.3788 -2.8672  1.7885
   98OSM    C1F 9795   6.217   0.421  10.463  0.7438  0.0716  0.4390
   98OSM     OF 9796   6.308   0.480  10.523  0.0622 -0.4581 -0.1048
   98OSM    C2F 9797   6.134   0.490  10.351 -0.5488  0.0787 -0.0143
   98OSM    H2F 9798   6.063   0.559  10.401 -0.8972 -0.2109 -0.1067
   98OSM    H2G 9799   6.068   0.416  10.301  0.4617  0.3880 -1.8385
   98OSM    C3F 9800   6.203   0.585  10.243  0.6713  0.1648  0.4375
   98OSM    H3F 9801   6.245   0.523  10.162 -1.0822  0.7291 -0.9274
   98OSM    H3G 9802   6.287   0.641  10.291 -0.6814 -0.2147  3.3985
   98OSM    C4F 9803   6.100   0.685  10.179 -0.5285 -0.1246  0.4685
   98OSM    H4F 9804   6.044   0.732  10.262 -1.7818 -0.5527 -0.1208
   98OSM    H4G 9805   6.024   0.632  10.117  0.1401  1.4247 -1.7596
   98OSM    C5F 9806   6.173   0.796  10.098 -0.2305 -0.1360  0.3698
   98OSM    H5F 9807   6.275   0.805  10.141 -0.4776  1.0727  0.7041
   98OSM    H5G 9808   6.122   0.895  10.098  1.3341  0.6874 -0.8329
   98OSM    C6F 9809   6.196   0.761   9.947 -0.2966  0.6563 -0.1958
   98OSM    H6F 9810   6.098   0.771   9.896  0.8235 -1.2966 -2.8220
   98OSM    H6G 9811   6.231   0.656   9.936 -0.4371  0.8101 -2.2945
   98OSM    C7F 9812   6.292   0.852   9.868 -0.3171  0.1608  0.1357
   98OSM    H7F 9813   6.339   0.792   9.787 -1.5811  0.9763 -1.2056
   98OSM    H7G 9814   6.382   0.883   9.926  1.1478  0.0317 -2.0106
   98OSM    C8F 9815   6.227   0.979   9.814  0.0157 -0.6030  0.8528
   98OSM    H8F 9816   6.187   1.034   9.901  0.0443  1.8303 -0.6250
   98OSM    H8G 9817   6.143   0.947   9.749 -0.7530 -1.5783  2.3057
   98OSM    C9F 9818   6.321   1.067   9.727  0.2140  1.7333 -0.8292
   98OSM    H9F 9819   6.350   1.164   9.770 -0.9424  2.2171 -1.1063
   98OSM   C10F 9820   6.353   1.032   9.602 -0.3643 -0.1074  0.3454
   98OSM   H10F 9821   6.430   1.092   9.550 -0.3685 -1.0523 -0.7653
   98OSM   C11F 9822   6.301   0.911   9.519  0.2875  0.1058 -1.1479
   98OSM   H11F 9823   6.247   0.937   9.425 -1.3541  1.2320  0.0831
   98OSM   H11G 9824   6.232   0.857   9.586  1.8432  1.0347  1.2958
   98OSM   C12F 9825   6.412   0.818   9.480  0.7953  0.1596 -0.6007
   98OSM   H12F 9826   6.472   0.779   9.565  0.6080 -0.0778 -0.5779
   98OSM   H12G 9827   6.485   0.863   9.409  0.2519 -0.7183 -1.7451
   98OSM   C13F 9828   6.354   0.688   9.422 -0.1840 -0.0338  0.4789
   98OSM   H13F 9829   6.275   0.717   9.349  1.9308  1.2071 -1.4308
   98OSM   H13G 9830   6.306   0.635   9.506 -2.6288  1.4710  0.0767
   98OSM   C14F 9831   6.462   0.602   9.354  0.2237 -0.1758  1.3679
   98OSM   H14F 9832   6.539   0.596   9.435  3.0936  1.0013 -1.1844
   98OSM   H14G 9833   6.512   0.659   9.273 -0.5080 -0.8554  0.4331
   98OSM   C15F 9834   6.418   0.462   9.313  0.4708  0.4385  0.2536
   98OSM   H15F 9835   6.384   0.417   9.409  1.8040  1.5486  1.2743
   98OSM   H15G 9836   6.505   0.402   9.276 -1.1731 -0.8097 -1.6962
   98OSM   C16F 9837   6.296   0.459   9.216  0.0834  0.0164 -0.6026
   98OSM   H16F 9838   6.219   0.523   9.264  1.6243 -0.5454  2.8027
   98OSM   H16G 9839   6.250   0.358   9.219 -1.5791  0.7962  1.2984
   98OSM   C17F 9840   6.340   0.480   9.066  0.6257  0.0202 -0.1771
   98OSM   H17F 9841   6.278   0.413   9.004 -0.5359  0.9753 -0.0652
   98OSM   H17G 9842   6.444   0.440   9.060  0.6963  0.2590 -0.5463
   98OSM   C18F 9843   6.328   0.622   9.021  0.0938 -0.5363  0.8597
   98OSM   H18F 9844   6.341   0.698   9.101 -0.1385  0.5016 -0.0874
   98OSM   H18G 9845   6.232   0.654   8.977  0.5360 -1.5572 -0.9198
   98OSM   H18H 9846   6.410   0.648   8.951  0.0564  1.6344  1.5811
   99OSM      N 9847   1.432   2.144  11.167 -0.6959  0.4081 -0.3639
   99OSM    C15 9848   1.474   2.006  11.213 -0.0455  0.3783  0.2963
   99OSM   H15A 9849   1.581   2.002  11.232  0.3056  2.3140 -1.1178
   99OSM   H15B 9850   1.464   1.933  11.134 -2.5852  1.7595 -0.6994
   99OSM   H15C 9851   1.427   1.978  11.306  1.1121  0.0155  0.7847
   99OSM    C14 9852   1.466   2.240  11.285 -0.3240 -0.3440 -0.2387
   99OSM   H14A 9853   1.444   2.185  11.375 -0.4010 -0.0234 -0.0592
   99OSM   H14B 9854   1.407   2.330  11.277 -0.1612 -0.2785 -0.7544
   99OSM   H14C 9855   1.571   2.266  11.279 -0.9167  1.9542 -1.4815
   99OSM    C13 9856   1.503   2.183  11.050  0.2027 -0.2879  0.1388
   99OSM   H13A 9857   1.484   2.283  11.014  2.8021  0.8025  1.6429
   99OSM   H13B 9858   1.473   2.113  10.973  0.4301 -1.7763  1.3776
   99OSM   H13C 9859   1.609   2.174  11.068 -0.2698 -1.1945  2.8373
   99OSM    C12 9860   1.284   2.134  11.136 -0.3530 -0.1082  0.6644
   99OSM   H12A 9861   1.246   2.229  11.100 -3.5593 -1.7246 -0.3549
   99OSM   H12B 9862   1.237   2.104  11.228 -0.6527  1.6339  1.0935
   99OSM    C11 9863   1.252   2.024  11.033  0.1494 -0.6470 -0.8506
   99OSM   H11A 9864   1.141   2.025  11.025  0.1790  1.0677 -1.2772
   99OSM   H11B 9865   1.265   1.925  11.081 -0.7464  0.1441  1.0612
   99OSM      P 9866   1.405   1.922  10.841 -0.3347  0.2823 -0.0875
   99OSM    O13 9867   1.544   1.957  10.868 -0.0735  1.0761  0.2202
   99OSM    O14 9868   1.351   1.789  10.883 -0.3635 -0.2319  0.1529
   99OSM    O11 9869   1.381   1.931  10.684 -0.1988  0.2919 -0.1246
   99OSM    O12 9870   1.310   2.037  10.903 -0.7197 -0.7708  0.5593
   99OSM    C1S 9871   1.405   2.056  10.615  0.3021  0.1742  0.3272
   99OSM    H1S 9872   1.508   2.095  10.626  0.1920  0.5774 -0.0539
   99OSM    H1T 9873   1.336   2.135  10.652  0.1073 -0.3109  1.0075
   99OSM     NF 9874   1.443   2.162  10.393 -0.7650  0.1885  0.4685
   99OSM    HNF 9875   1.385   2.218  10.335 -1.4443 -1.0432 -0.0802
   99OSM    C2S 9876   1.384   2.047  10.463  0.6607 -0.1378 -0.6013
   99OSM    H2S 9877   1.444   1.958  10.434  0.8010  0.0392 -0.8577
   99OSM    C3S 9878   1.234   2.018  10.431  0.6509 -0.1944 -0.2376
   99OSM    H3S 9879   1.184   2.114  10.456 -0.1123 -0.0987 -2.0321
   99OSM     O3 9880   1.176   1.917  10.508  0.4636  0.0496  0.1666
   99OSM    HO3 9881   1.245   1.904  10.573  0.8452  0.8046 -0.0851
   99OSM    C4S 9882   1.228   2.001  10.277  0.3095 -0.5097  0.1308
   99OSM    H4S 9883   1.266   2.084  10.216  0.6969  0.3190  1.5039
   99OSM    C5S 9884   1.202   1.889  10.206  0.6373  0.7146 -0.2385
   99OSM    H5S 9885   1.181   1.801  10.269  3.3841  0.3596  0.2494
   99OSM    C6S 9886   1.200   1.861  10.059 -1.3704  0.3498 -0.5625
   99OSM    H6S 9887   1.101   1.881  10.013 -1.0749  1.0722 -0.8974
   99OSM    H6T 9888   1.210   1.752  10.043 -1.1565  0.2243  0.4197
   99OSM    C7S 9889   1.301   1.943   9.981 -0.5560  0.2464  0.4393
   99OSM    H7S 9890   1.391   1.951  10.046 -2.4219  1.2265  3.0344
   99OSM    H7T 9891   1.257   2.042   9.954 -0.9047  0.1526  0.6520
   99OSM    C8S 9892   1.337   1.884   9.844 -0.0758 -0.4156 -0.8150
   99OSM    H8S 9893   1.409   1.800   9.851  1.9609  1.3573  0.1561
   99OSM    H8T 9894   1.398   1.963   9.796 -0.2029 -0.6726 -1.4038
   99OSM    C9S 9895   1.223   1.860   9.740  0.1288 -0.4294 -0.5464
   99OSM    H9S 9896   1.134   1.912   9.781  0.6213 -0.2956  0.3675
   99OSM    H9T 9897   1.191   1.754   9.747  1.2870 -0.8227 -1.0507
   99OSM   C10S 9898   1.259   1.898   9.593  0.2215 -0.4021 -0.2531
   99OSM   H10S 9899   1.313   1.994   9.591  0.3094 -0.3556  2.4271
   99OSM   H10T 9900   1.159   1.910   9.545 -0.8438  0.3689  2.0899
   99OSM   C11S 9901   1.345   1.789   9.523  0.1191 -0.7617  0.4095
   99OSM   H11S 9902   1.287   1.697   9.501 -3.1839  0.9947  1.4598
   99OSM   H11T 9903   1.427   1.754   9.589  0.8481 -1.0185 -0.6267
   99OSM   C12S 9904   1.402   1.836   9.389  0.0849  0.4190  0.3825
   99OSM   H12S 9905   1.331   1.890   9.323  0.1865  0.0492 -0.0350
   99OSM   H12T 9906   1.484   1.909   9.407 -1.4054  1.5892  2.6853
   99OSM   C13S 9907   1.465   1.720   9.307  0.0926 -0.4696  0.1109
   99OSM   H13S 9908   1.387   1.672   9.245  0.5263  1.2731 -1.8347
   99OSM   H13T 9909   1.517   1.645   9.370  0.5730 -0.4276 -0.2273
   99OSM   C14S 9910   1.576   1.780   9.218 -0.1160  0.5380 -0.6052
   99OSM   H14S 9911   1.635   1.843   9.287  0.5736  0.1438 -0.8346
   99OSM   H14T 9912   1.525   1.852   9.151  3.4087  3.2154 -0.4998
   99OSM   C15S 9913   1.653   1.676   9.129  0.3786  0.3302 -0.4002
   99OSM   H15S 9914   1.578   1.603   9.091  1.8701 -1.4707  0.0255
   99OSM   H15T 9915   1.721   1.614   9.192  0.7618 -0.4049 -1.5295
   99OSM   C16S 9916   1.749   1.741   9.028 -0.3870 -0.5155  0.3504
   99OSM   H16S 9917   1.829   1.798   9.080 -1.8262  2.8262 -1.0267
   99OSM   H16T 9918   1.689   1.800   8.956 -2.1527 -2.2747  0.3436
   99OSM   C17S 9919   1.833   1.643   8.950  0.3478 -0.5672  0.0981
   99OSM   H17S 9920   1.769   1.555   8.929  0.6508 -0.0795 -3.1648
   99OSM   H17T 9921   1.921   1.606   9.006 -0.7525 -3.2270  0.1378
   99OSM   C18S 9922   1.870   1.697   8.811 -0.2340  0.3789  0.5134
   99OSM   H18S 9923   1.774   1.727   8.764 -0.0238 -0.1214 -0.2569
   99OSM   H18T 9924   1.912   1.613   8.751  1.3804  0.9904  0.7455
   99OSM   H18U 9925   1.936   1.786   8.819 -0.6597  0.6710  0.7739
   99OSM    C1F 9926   1.572   2.194  10.408 -0.1295 -0.1558  0.4456
   99OSM     OF 9927   1.652   2.110  10.446  0.3315 -0.3634 -0.2235
   99OSM    C2F 9928   1.601   2.335  10.364 -0.4514  0.9110 -0.0493
   99OSM    H2F 9929   1.600   2.394  10.458  0.0046  0.6437  0.1229
   99OSM    H2G 9930   1.520   2.377  10.301 -0.2328 -0.8457 -1.5342
   99OSM    C3F 9931   1.731   2.363  10.280  0.4828  0.1340  0.0273
   99OSM    H3F 9932   1.755   2.469  10.304  2.0079  0.3135 -2.1126
   99OSM    H3G 9933   1.814   2.296  10.313 -1.2689 -2.5197 -0.8149
   99OSM    C4F 9934   1.721   2.375  10.126 -0.7779 -0.1947  0.8804
   99OSM    H4F 9935   1.808   2.434  10.091 -2.1785  3.0382  2.6336
   99OSM    H4G 9936   1.631   2.432  10.095 -0.3297  1.1324  1.9737
   99OSM    C5F 9937   1.718   2.245  10.040 -0.4179  0.4315  0.0770
   99OSM    H5F 9938   1.630   2.184  10.069  0.5643 -0.9674  0.1751
   99OSM    H5G 9939   1.804   2.181  10.072  1.4577  2.2210 -1.2835
   99OSM    C6F 9940   1.734   2.278   9.891  0.7757  0.8383 -0.4650
   99OSM    H6F 9941   1.811   2.346   9.850  0.1208  1.3519 -0.8624
   99OSM    H6G 9942   1.651   2.343   9.856 -0.6923 -0.6311  0.2101
   99OSM    C7F 9943   1.731   2.154   9.804  0.5467  0.6785  0.1324
   99OSM    H7F 9944   1.651   2.088   9.843  0.9324 -0.6039 -1.2286
   99OSM    H7G 9945   1.820   2.094   9.830  0.5310  0.8425  0.5809
   99OSM    C8F 9946   1.720   2.192   9.655  0.4026  0.2274 -0.2256
   99OSM    H8F 9947   1.618   2.236   9.647 -0.1895 -1.1502 -0.4303
   99OSM    H8G 9948   1.712   2.108   9.582 -2.1821 -0.8544  1.2494
   99OSM    C9F 9949   1.826   2.283   9.592  0.6359  0.3133 -0.1100
   99OSM    H9F 9950   1.832   2.384   9.635  2.8625  0.6471 -1.1514
   99OSM   C10F 9951   1.915   2.257   9.494 -0.2842  0.3592 -0.2043
   99OSM   H10F 9952   1.991   2.331   9.464  0.2388  0.3914  1.1533
   99OSM   C11F 9953   1.916   2.125   9.420 -0.3990 -0.4599  0.4274
   99OSM   H11F 9954   1.924   2.033   9.483 -0.0310 -0.5325  0.2767
   99OSM   H11G 9955   2.005   2.130   9.354 -0.2386  0.7248  0.7258
   99OSM   C12F 9956   1.813   2.101   9.310  0.5646  0.1885 -0.2767
   99OSM   H12F 9957   1.708   2.096   9.348  0.7122 -0.5631  0.0375
   99OSM   H12G 9958   1.819   2.000   9.265  0.1459  0.2340 -0.4359
   99OSM   C13F 9959   1.812   2.200   9.190  0.3988 -0.2015 -0.3147
   99OSM   H13F 9960   1.829   2.300   9.237 -0.3358 -0.0643 -0.3395
   99OSM   H13G 9961   1.709   2.213   9.151  0.6505  1.5276 -0.4594
   99OSM   C14F 9962   1.920   2.162   9.087 -0.6755 -0.3173 -0.8981
   99OSM   H14F 9963   1.898   2.068   9.032 -1.0642 -0.3318 -0.7184
   99OSM   H14G 9964   2.016   2.152   9.142 -1.5146  2.8272  1.2298
   99OSM   C15F 9965   1.932   2.260   8.973  0.6366 -0.2335 -0.2082
   99OSM   H15F 9966   1.972   2.344   9.035 -1.4499  0.0816  0.7441
   99OSM   H15G 9967   1.831   2.287   8.936  0.5303  1.2739  1.1133
   99OSM   C16F 9968   2.029   2.222   8.859 -0.5118  0.2145 -0.4222
   99OSM   H16F 9969   2.017   2.115   8.832  1.4016 -0.9322  2.9320
   99OSM   H16G 9970   2.132   2.209   8.899 -0.5458 -2.0307 -0.9588
   99OSM   C17F 9971   2.017   2.324   8.743  0.3632  0.2379 -0.2780
   99OSM   H17F 9972   2.093   2.300   8.665  0.5997 -1.3952  0.4445
   99OSM   H17G 9973   2.046   2.427   8.774  2.4857 -0.5682  0.5065
   99OSM   C18F 9974   1.877   2.322   8.670 -0.2698 -1.0264 -0.0200
   99OSM   H18F 9975   1.841   2.218   8.655  0.8291 -1.6347  1.3801
   99OSM   H18G 9976   1.884   2.385   8.579 -1.7350 -0.0161  0.5554
   99OSM   H18H 9977   1.799   2.381   8.723  2.8004  1.8515  1.4897
  100OSM      N 9978   2.979   2.199  10.937  0.2766 -0.2244  0.1790
  100OSM    C15 9979   2.943   2.054  10.939  0.2235 -0.5091 -0.1066
  100OSM   H15A 9980   3.026   1.988  10.962  0.0361 -0.8240 -0.3202
  100OSM   H15B 9981   2.925   2.021  10.837 -2.7564 -1.4918  0.6962
  100OSM   H15C 9982   2.863   2.032  11.007  0.6592  0.3686  0.7029
  100OSM    C14 9983   2.863   2.285  10.891  0.3185 -0.2905 -0.3700
  100OSM   H14A 9984   2.895   2.388  10.891 -0.3796 -0.0711  0.3503
  100OSM   H14B 9985   2.769   2.273  10.943  0.0308 -1.3221 -1.1030
  100OSM   H14C 9986   2.833   2.265  10.789  0.8741 -0.2021 -0.5471
  100OSM    C13 9987   3.001   2.246  11.074  0.2431  0.8116  0.0320
  100OSM   H13A 9988   3.006   2.354  11.072 -0.7479  0.8679  0.4666
  100OSM   H13B 9989   3.100   2.216  11.106  0.4696  1.1016 -0.3948
  100OSM   H13C 9990   2.928   2.209  11.145 -0.6013  0.8982 -0.7855
  100OSM    C12 9991   3.110   2.215  10.850  0.0183 -0.2264  0.0326
  100OSM   H12A 9992   3.197   2.167  10.893  0.1720  0.1782  0.1732
  100OSM   H12B 9993   3.133   2.320  10.838 -3.9849  0.8604  1.1631
  100OSM    C11 9994   3.094   2.159  10.699 -0.0657 -0.7155 -0.2559
  100OSM   H11A 9995   3.159   2.216  10.630  1.1263 -0.5904  0.9438
  100OSM   H11B 9996   2.987   2.175  10.675  0.1237  1.4038  0.1958
  100OSM      P 9997   3.274   1.968  10.715  0.0453  0.0852  0.1555
  100OSM    O13 9998   3.320   2.013  10.851 -0.0106  0.3666  0.4909
  100OSM    O14 9999   3.273   1.826  10.686 -0.1633  0.4327 -0.7315
  100OSM    O1110000   3.349   2.046  10.600  0.0978  0.1789  0.6002
  100OSM    O1210001   3.122   2.019  10.696 -0.2894 -0.4184 -0.9242
  100OSM    C1S10002   3.308   2.031  10.469  0.5173 -0.2431  0.5804
  100OSM    H1S10003   3.212   2.086  10.457  1.5684  0.9766 -2.6046
  100OSM    H1T10004   3.311   1.926  10.434  0.1579 -0.6761  1.7951
  100OSM     NF10005   3.371   2.068  10.233  0.4016 -0.1537 -0.0996
  100OSM    HNF10006   3.397   1.987  10.180  1.6164  0.7474 -0.9125
  100OSM    C2S10007   3.409   2.091  10.371  0.5266  0.4678  0.0862
  100OSM    H2S10008   3.404   2.200  10.392 -1.3459  0.5637 -0.7938
  100OSM    C3S10009   3.554   2.038  10.408  0.4070 -0.6752 -0.2031
  100OSM    H3S10010   3.555   1.929  10.386  1.1252 -0.9984  1.3814
  100OSM     O310011   3.596   2.056  10.538 -0.1376  0.3924 -0.3860
  100OSM    HO310012   3.512   2.086  10.573 -0.1674  0.4269 -0.4903
  100OSM    C4S10013   3.647   2.113  10.324  0.0879  0.2586  0.4673
  100OSM    H4S10014   3.658   2.217  10.360 -3.8813  0.6880  0.6648
  100OSM    C5S10015   3.725   2.064  10.230 -0.6098  0.2181 -0.2013
  100OSM    H5S10016   3.714   1.957  10.204 -0.0954  0.2049 -0.3753
  100OSM    C6S10017   3.830   2.140  10.149 -0.1884  0.0230 -0.2275
  100OSM    H6S10018   3.925   2.086  10.172 -0.7869 -1.0186 -0.1674
  100OSM    H6T10019   3.841   2.248  10.172  1.2389  0.1134 -1.2801
  100OSM    C7S10020   3.782   2.151  10.000  0.2736 -0.6619 -0.3443
  100OSM    H7S10021   3.747   2.054   9.960  0.7284 -0.5926 -0.9221
  100OSM    H7T10022   3.864   2.188   9.935  0.6146 -2.1490 -0.7691
  100OSM    C8S10023   3.662   2.245   9.991  0.2159  0.0484 -0.1230
  100OSM    H8S10024   3.657   2.329  10.063 -2.8702  1.0808 -1.4406
  100OSM    H8T10025   3.572   2.183  10.007  0.7816 -0.7693 -0.0968
  100OSM    C9S10026   3.650   2.308   9.854  0.0544  0.5573  0.5894
  100OSM    H9S10027   3.740   2.362   9.820  0.6945 -1.2028 -0.6097
  100OSM    H9T10028   3.559   2.368   9.873  0.3139  0.5862  1.8373
  100OSM   C10S10029   3.616   2.209   9.741  0.4534  0.1137  0.2112
  100OSM   H10S10030   3.541   2.134   9.775  0.6046 -0.1453 -0.0162
  100OSM   H10T10031   3.711   2.154   9.723  1.4851  2.2081 -0.9527
  100OSM   C11S10032   3.556   2.260   9.605  0.1213  0.0314  0.1358
  100OSM   H11S10033   3.616   2.347   9.571  1.1772 -1.9122 -3.3418
  100OSM   H11T10034   3.448   2.278   9.620 -0.0221 -0.0523 -0.7476
  100OSM   C12S10035   3.558   2.147   9.505 -0.1202  0.3778 -0.8264
  100OSM   H12S10036   3.481   2.076   9.543  1.8484 -1.4351 -0.0882
  100OSM   H12T10037   3.658   2.099   9.516 -1.4044 -1.6337  3.3662
  100OSM   C13S10038   3.524   2.179   9.359 -0.0250  0.2020 -0.0245
  100OSM   H13S10039   3.535   2.093   9.289  1.8951  0.8234 -0.5363
  100OSM   H13T10040   3.604   2.249   9.327  2.7143 -3.4929 -1.7554
  100OSM   C14S10041   3.393   2.243   9.329  0.1151  0.0840  0.9388
  100OSM   H14S10042   3.391   2.271   9.222 -0.4865 -1.3622  0.5619
  100OSM   H14T10043   3.389   2.327   9.402 -0.2917 -1.5623  2.8565
  100OSM   C15S10044   3.273   2.154   9.352 -1.0026 -0.0876  0.2873
  100OSM   H15S10045   3.253   2.148   9.462 -1.4838  3.7238  0.4871
  100OSM   H15T10046   3.299   2.058   9.303  0.7952  1.4786 -1.9243
  100OSM   C16S10047   3.151   2.211   9.282 -0.0716 -0.1480  0.2814
  100OSM   H16S10048   3.154   2.219   9.171 -0.5397 -0.3603  0.2477
  100OSM   H16T10049   3.128   2.309   9.328  0.6909  0.5474 -0.8045
  100OSM   C17S10050   3.036   2.104   9.298 -0.3313  0.3830  0.3436
  100OSM   H17S10051   3.031   2.064   9.401 -1.2465  0.8310  0.4738
  100OSM   H17T10052   3.059   2.011   9.241 -1.2160  0.3727  0.0026
  100OSM   C18S10053   2.903   2.160   9.260  0.3878 -0.0193  0.5741
  100OSM   H18S10054   2.836   2.177   9.347 -1.8550  1.4645 -1.3862
  100OSM   H18T10055   2.846   2.103   9.183 -0.1642 -1.5784  2.1097
  100OSM   H18U10056   2.917   2.260   9.215 -0.0795  0.6435  1.8812
  100OSM    C1F10057   3.269   2.150  10.187  0.0323  0.7815 -0.4220
  100OSM     OF10058   3.240   2.250  10.249  0.0129 -0.0898  0.1273
  100OSM    C2F10059   3.199   2.104  10.067  0.0174  0.1406  0.0862
  100OSM    H2F10060   3.093   2.081  10.091  0.0832 -1.1515 -0.8215
  100OSM    H2G10061   3.248   2.010  10.035 -0.0971  1.1520 -3.2146
  100OSM    C3F10062   3.182   2.211   9.963 -0.3076 -0.8038  0.2189
  100OSM    H3F10063   3.278   2.264   9.946 -0.0855 -1.8229 -1.8158
  100OSM    H3G10064   3.115   2.277  10.022  2.2719  1.3544  0.8604
  100OSM    C4F10065   3.110   2.174   9.842 -0.0354 -0.4330  0.5513
  100OSM    H4F10066   3.112   2.267   9.782  0.9133  0.3682  1.8103
  100OSM    H4G10067   3.006   2.160   9.877 -1.2398  0.9146 -2.2974
  100OSM    C5F10068   3.170   2.065   9.746  0.0266  0.3316  0.7906
  100OSM    H5F10069   3.231   1.992   9.804  0.4038  1.6724  2.0940
  100OSM    H5G10070   3.242   2.112   9.677  0.4404 -1.0708  0.2521
  100OSM    C6F10071   3.061   1.978   9.671  0.2276 -0.2438 -0.6356
  100OSM    H6F10072   3.111   1.940   9.579  1.8272 -1.7561  0.8209
  100OSM    H6G10073   2.981   2.049   9.640  0.9869  0.4796 -0.9479
  100OSM    C7F10074   2.985   1.868   9.749 -0.2494 -0.7105  0.6120
  100OSM    H7F10075   2.931   1.915   9.834 -2.0633 -0.2932 -0.7417
  100OSM    H7G10076   3.062   1.798   9.787 -0.0913 -0.0150  1.6000
  100OSM    C8F10077   2.868   1.803   9.683 -0.0006 -0.2698  0.2963
  100OSM    H8F10078   2.799   1.880   9.642 -0.3640 -1.2679 -0.9721
  100OSM    H8G10079   2.803   1.752   9.758 -0.1064 -0.5091  0.0406
  100OSM    C9F10080   2.913   1.702   9.586 -0.1584  0.4514  0.8656
  100OSM    H9F10081   2.981   1.626   9.626  0.1569  0.0354 -0.4483
  100OSM   C10F10082   2.892   1.711   9.454 -0.1262  0.0098  0.4308
  100OSM   H10F10083   2.942   1.636   9.390  0.8850  1.2286 -0.2371
  100OSM   C11F10084   2.817   1.819   9.380 -0.1069  0.3220  0.0874
  100OSM   H11F10085   2.846   1.816   9.273  2.0565  0.1082  0.6636
  100OSM   H11G10086   2.859   1.916   9.415 -1.0798  1.0787 -0.7970
  100OSM   C12F10087   2.665   1.808   9.387 -0.8085 -0.2776 -0.1519
  100OSM   H12F10088   2.614   1.887   9.328 -1.8322 -0.1691  0.8616
  100OSM   H12G10089   2.635   1.811   9.493  1.6792  0.2750  0.5849
  100OSM   C13F10090   2.619   1.667   9.335  0.1050 -0.3047 -0.1300
  100OSM   H13F10091   2.525   1.637   9.385 -0.1911 -1.3635 -1.2895
  100OSM   H13G10092   2.692   1.586   9.353 -0.1955 -0.3621  0.8612
  100OSM   C14F10093   2.583   1.660   9.185 -0.1793 -0.3819 -0.3625
  100OSM   H14F10094   2.672   1.619   9.133 -0.1102 -0.4413 -0.1991
  100OSM   H14G10095   2.558   1.757   9.138 -0.1743 -1.3133 -2.3185
  100OSM   C15F10096   2.455   1.573   9.159 -0.3986  0.3776 -0.1895
  100OSM   H15F10097   2.370   1.627   9.205  0.1740  0.3361  0.9448
  100OSM   H15G10098   2.468   1.482   9.222 -1.3310  1.4717  1.6338
  100OSM   C16F10099   2.415   1.533   9.012  0.0802 -0.0288 -0.5081
  100OSM   H16F10100   2.507   1.492   8.964 -0.6132 -0.7476 -1.2308
  100OSM   H16G10101   2.388   1.618   8.947  0.6833  2.3406  2.2247
  100OSM   C17F10102   2.304   1.431   9.012  0.0665 -0.3622 -0.1735
  100OSM   H17F10103   2.213   1.469   9.064  1.4711  1.9208  0.6594
  100OSM   H17G10104   2.329   1.337   9.064  2.7363  0.2663 -0.2465
  100OSM   C18F10105   2.270   1.371   8.874 -0.3191 -0.2542  0.1633
  100OSM   H18F10106   2.182   1.304   8.889 -1.2209  0.8330 -0.2651
  100OSM   H18G10107   2.362   1.321   8.837 -0.9095 -0.4825 -1.0374
  100OSM   H18H10108   2.250   1.455   8.804 -0.4099 -0.1528  0.3117
  101OSM      N10109   5.811   1.897  11.053  0.2090 -0.3390 -0.3974
  101OSM    C1510110   5.702   1.971  11.130  0.0666 -0.1924  0.4895
  101OSM   H15A10111   5.629   1.892  11.145  0.9830 -0.9719  0.9207
  101OSM   H15B10112   5.647   2.051  11.083 -0.8190 -1.0719 -0.0226
  101OSM   H15C10113   5.751   2.004  11.220 -0.6089 -0.2769  0.8960
  101OSM    C1410114   5.917   1.997  11.035  0.4227 -0.1988  0.8401
  101OSM   H14A10115   5.883   2.078  10.972  0.4166 -2.2097 -1.7954
  101OSM   H14B10116   6.000   1.946  10.989 -1.1232 -0.7624 -1.4177
  101OSM   H14C10117   5.937   2.050  11.127 -1.9807 -2.4459  2.7475
  101OSM    C1310118   5.861   1.784  11.137  0.0139 -0.0419  0.3744
  101OSM   H13A10119   5.916   1.811  11.226  0.1398 -1.8517  0.8760
  101OSM   H13B10120   5.924   1.720  11.076  1.2417 -0.1948  1.7745
  101OSM   H13C10121   5.782   1.723  11.180 -0.8301  1.5113  1.0657
  101OSM    C1210122   5.757   1.844  10.923  0.0197 -0.1458 -0.2138
  101OSM   H12A10123   5.693   1.919  10.880 -1.8975 -1.0671  1.0066
  101OSM   H12B10124   5.688   1.764  10.944 -0.4955  0.2592 -0.3848
  101OSM    C1110125   5.856   1.795  10.810  0.2098 -0.5146 -0.9004
  101OSM   H11A10126   5.921   1.877  10.772 -1.3422  0.4286 -1.5752
  101OSM   H11B10127   5.787   1.769  10.727 -0.3667  0.4221 -0.7236
  101OSM      P10128   5.871   1.545  10.842  0.2410 -0.0713 -0.0351
  101OSM    O1310129   5.941   1.440  10.918  0.2297 -0.6548  0.5121
  101OSM    O1410130   5.731   1.569  10.888  0.9963  0.3295  0.2499
  101OSM    O1110131   5.849   1.499  10.687  0.2460 -0.1240 -0.1525
  101OSM    O1210132   5.944   1.688  10.842 -0.6696  0.1918  0.0855
  101OSM    C1S10133   5.963   1.433  10.626  0.0503 -1.0330  0.5832
  101OSM    H1S10134   5.967   1.324  10.649  0.1731 -0.5447  3.0564
  101OSM    H1T10135   6.061   1.471  10.661  0.0996  0.5210 -1.1540
  101OSM     NF10136   6.073   1.380  10.415 -0.1499  0.1185 -0.0703
  101OSM    HNF10137   6.144   1.432  10.368 -0.5028  0.3399 -0.3631
  101OSM    C2S10138   5.964   1.454  10.473 -0.3969 -0.1365  0.2674
  101OSM    H2S10139   5.872   1.401  10.439  1.4852 -3.5153  0.2508
  101OSM    C3S10140   5.954   1.610  10.437 -0.3108 -0.3829 -0.4550
  101OSM    H3S10141   6.044   1.649  10.488  0.2185 -1.8082 -0.2719
  101OSM     O310142   5.835   1.676  10.478 -0.5356 -0.3370 -0.2502
  101OSM    HO310143   5.804   1.605  10.535  1.4431 -0.3711  0.8394
  101OSM    C4S10144   5.966   1.623  10.292  0.2047  0.1855  0.1234
  101OSM    H4S10145   5.876   1.601  10.233 -1.3262 -0.4929  2.6032
  101OSM    C5S10146   6.075   1.661  10.232 -0.2486  0.1316  0.4825
  101OSM    H5S10147   6.169   1.666  10.289 -0.8518 -1.8319  1.6763
  101OSM    C6S10148   6.098   1.672  10.083 -1.0554 -0.2471 -0.4632
  101OSM    H6S10149   6.198   1.716  10.066 -1.6089  0.9142 -0.7868
  101OSM    H6T10150   6.025   1.742  10.037 -0.2753  1.7033  1.1699
  101OSM    C7S10151   6.104   1.541  10.005  0.0903 -0.2590 -0.0450
  101OSM    H7S10152   6.007   1.492  10.026  0.3468 -0.7808 -0.0640
  101OSM    H7T10153   6.186   1.478  10.047 -0.2608  0.3698  1.6073
  101OSM    C8S10154   6.143   1.557   9.858 -0.3394  0.0381  0.1429
  101OSM    H8S10155   6.237   1.615   9.867  0.4391 -1.1773  0.0312
  101OSM    H8T10156   6.073   1.628   9.810  0.4410  0.7705  0.0783
  101OSM    C9S10157   6.161   1.428   9.771 -0.2188  0.0221 -0.0300
  101OSM    H9S10158   6.062   1.382   9.750  0.3028 -0.8303 -0.6070
  101OSM    H9T10159   6.219   1.353   9.827 -0.6905 -1.3511 -1.3527
  101OSM   C10S10160   6.219   1.461   9.634  0.6848 -0.3966  0.1905
  101OSM   H10S10161   6.329   1.457   9.645  0.5592  0.9976  2.0597
  101OSM   H10T10162   6.199   1.568   9.612  1.0277  0.0969  2.2145
  101OSM   C11S10163   6.164   1.370   9.535 -0.2210 -0.0718  0.3758
  101OSM   H11S10164   6.063   1.411   9.512  0.3747  0.6346 -1.0589
  101OSM   H11T10165   6.161   1.265   9.571  1.7404 -0.7244 -1.2424
  101OSM   C12S10166   6.260   1.369   9.413  0.2138 -0.3869 -0.2290
  101OSM   H12S10167   6.351   1.307   9.429 -0.7917 -1.5740  1.0131
  101OSM   H12T10168   6.280   1.473   9.379  1.8196 -0.2348  1.0719
  101OSM   C13S10169   6.199   1.292   9.290  0.5408 -0.3754  0.1778
  101OSM   H13S10170   6.101   1.342   9.273  1.0735  0.7870  0.5103
  101OSM   H13T10171   6.180   1.185   9.314 -0.4038 -0.3179 -0.2740
  101OSM   C14S10172   6.282   1.331   9.167 -0.2969 -0.1370 -0.4144
  101OSM   H14S10173   6.385   1.304   9.198 -0.7177 -2.2025 -0.7529
  101OSM   H14T10174   6.278   1.442   9.158 -1.0380 -0.2032 -0.9881
  101OSM   C15S10175   6.234   1.258   9.044  0.0875  0.1924 -0.3566
  101OSM   H15S10176   6.250   1.150   9.064 -2.2816 -0.1041  0.1119
  101OSM   H15T10177   6.297   1.284   8.957  0.1538 -3.0999 -1.3442
  101OSM   C16S10178   6.087   1.282   8.997  0.0457 -0.4715 -0.1040
  101OSM   H16S10179   6.020   1.279   9.086  0.8254  1.2114  0.5606
  101OSM   H16T10180   6.048   1.216   8.916 -1.8672  1.7231 -1.0467
  101OSM   C17S10181   6.069   1.424   8.935 -0.3355 -0.0003 -0.4847
  101OSM   H17S10182   6.143   1.441   8.854  1.1971  2.5660  1.3624
  101OSM   H17T10183   6.103   1.497   9.012 -2.3730 -0.5137  0.9502
  101OSM   C18S10184   5.937   1.450   8.876  0.3947  0.0397  0.2101
  101OSM   H18S10185   5.853   1.417   8.941 -0.3186  1.5884  0.0938
  101OSM   H18T10186   5.932   1.386   8.786 -1.9599  0.2833  0.1342
  101OSM   H18U10187   5.930   1.554   8.838  3.4112 -0.4533 -1.8656
  101OSM    C1F10188   6.088   1.251  10.423  0.1589 -0.0827 -0.3028
  101OSM     OF10189   5.994   1.176  10.449 -0.2580 -0.3965 -0.0657
  101OSM    C2F10190   6.228   1.204  10.414 -0.3220 -0.2404 -0.2428
  101OSM    H2F10191   6.246   1.145  10.506  1.2410  1.7437  0.7467
  101OSM    H2G10192   6.292   1.294  10.424  1.3744 -1.4090 -0.3705
  101OSM    C3F10193   6.248   1.110  10.295  0.0631 -0.7975 -0.1004
  101OSM    H3F10194   6.159   1.052  10.262  1.4790 -1.4963 -2.8883
  101OSM    H3G10195   6.320   1.030  10.325  0.3070 -0.5004  0.1074
  101OSM    C4F10196   6.297   1.170  10.162  0.2664  0.0078 -0.6980
  101OSM    H4F10197   6.208   1.219  10.119 -2.9474 -2.5541  2.7623
  101OSM    H4G10198   6.308   1.082  10.094  1.1276 -0.8953  0.5890
  101OSM    C5F10199   6.424   1.256  10.184 -0.4496 -0.3858  0.1546
  101OSM    H5F10200   6.514   1.202  10.221  1.0097  1.1529 -1.0737
  101OSM    H5G10201   6.400   1.336  10.257 -0.8255 -2.9012  2.8726
  101OSM    C6F10202   6.473   1.319  10.051  0.5394  0.7009  0.2594
  101OSM    H6F10203   6.571   1.274  10.023  0.7537  1.1181  0.3290
  101OSM    H6G10204   6.404   1.288   9.970  0.0497 -1.7934  1.5992
  101OSM    C7F10205   6.506   1.470  10.055 -0.4334  0.9471  0.0547
  101OSM    H7F10206   6.580   1.481  10.137 -2.5378 -0.7914  2.2650
  101OSM    H7G10207   6.407   1.501  10.095 -1.0617 -3.2096  2.0548
  101OSM    C8F10208   6.558   1.542   9.923  0.2346  0.0613  0.2346
  101OSM    H8F10209   6.481   1.509   9.849 -0.0807 -0.0733  0.6214
  101OSM    H8G10210   6.661   1.505   9.901  0.3491  0.6265 -0.1852
  101OSM    C9F10211   6.553   1.695   9.932 -0.3115  0.1543 -0.3353
  101OSM    H9F10212   6.510   1.727  10.028 -0.2542  0.0665 -0.2806
  101OSM   C10F10213   6.606   1.780   9.842 -0.2634  0.0923 -0.1554
  101OSM   H10F10214   6.591   1.889   9.839  0.6027  0.2592  1.6023
  101OSM   C11F10215   6.671   1.746   9.709  0.1705  0.0820 -0.0498
  101OSM   H11F10216   6.703   1.640   9.704 -2.1626 -0.7178  1.1531
  101OSM   H11G10217   6.763   1.807   9.705  0.8245 -0.9109 -0.1344
  101OSM   C12F10218   6.565   1.768   9.600 -0.1062  0.0804  0.2349
  101OSM   H12F10219   6.530   1.873   9.605  1.1883  0.5549 -0.4413
  101OSM   H12G10220   6.478   1.701   9.613 -1.0427  0.5913 -2.9334
  101OSM   C13F10221   6.612   1.752   9.459  0.0235 -0.1479  0.3407
  101OSM   H13F10222   6.705   1.810   9.439 -0.0408 -0.2479 -0.2628
  101OSM   H13G10223   6.542   1.797   9.386 -0.5056  1.3993  1.7511
  101OSM   C14F10224   6.648   1.611   9.430  0.5071  0.1534  1.1663
  101OSM   H14F10225   6.557   1.548   9.436 -0.1759  1.0568  0.4386
  101OSM   H14G10226   6.714   1.565   9.507  2.7061  2.3289  0.6545
  101OSM   C15F10227   6.717   1.592   9.296 -0.2722  0.1281 -0.0699
  101OSM   H15F10228   6.791   1.510   9.301  0.9269  1.0634 -1.7991
  101OSM   H15G10229   6.772   1.683   9.263 -1.4526  0.4066 -1.3282
  101OSM   C16F10230   6.614   1.540   9.185 -0.3302  0.0495  0.6204
  101OSM   H16F10231   6.545   1.621   9.154  1.4977  1.0456 -0.9419
  101OSM   H16G10232   6.546   1.464   9.230 -0.4741  0.4190  1.0362
  101OSM   C17F10233   6.682   1.487   9.058  0.1020  0.8668  0.5268
  101OSM   H17F10234   6.747   1.401   9.087 -1.5954 -0.9353 -0.8533
  101OSM   H17G10235   6.746   1.565   9.011  0.8532  1.2687  2.1867
  101OSM   C18F10236   6.566   1.446   8.966 -0.4259  0.0384 -0.3927
  101OSM   H18F10237   6.533   1.540   8.916 -0.4403 -0.1512 -0.7391
  101OSM   H18G10238   6.478   1.402   9.018 -1.5362 -0.6909 -2.8069
  101OSM   H18H10239   6.614   1.365   8.908  1.6998  1.1536 -0.2378
  102OSM      N10240   1.595   4.007  11.086  0.2351  0.2177 -0.0241
  102OSM    C1510241   1.464   3.968  11.154  0.3773  0.0730 -0.3671
  102OSM   H15A10242   1.481   3.948  11.259 -0.3110 -0.7931 -0.4105
  102OSM   H15B10243   1.425   3.881  11.103  0.8486  0.8300 -2.0418
  102OSM   H15C10244   1.395   4.051  11.152 -0.2195 -0.3460  1.6242
  102OSM    C1410245   1.640   4.136  11.142 -0.3594 -0.1395 -0.0575
  102OSM   H14A10246   1.722   4.181  11.088 -0.6714  0.7283  0.1801
  102OSM   H14B10247   1.671   4.116  11.243 -1.4727 -0.5705  0.2057
  102OSM   H14C10248   1.556   4.203  11.135  1.5762  2.2612 -1.1675
  102OSM    C1310249   1.691   3.899  11.126  0.3189 -0.2862  0.6125
  102OSM   H13A10250   1.715   3.913  11.230 -1.5752  1.4646  0.8352
  102OSM   H13B10251   1.787   3.908  11.076 -0.4205 -0.1310 -0.8166
  102OSM   H13C10252   1.648   3.800  11.128 -0.7089  0.0390 -2.7443
  102OSM    C1210253   1.574   4.006  10.936  0.3464  0.4348 -0.1420
  102OSM   H12A10254   1.478   4.053  10.921  0.3440 -0.0141 -1.5760
  102OSM   H12B10255   1.554   3.907  10.897  0.7224  0.5313 -0.5867
  102OSM    C1110256   1.682   4.063  10.838 -0.8149  0.6884  0.1464
  102OSM   H11A10257   1.708   4.167  10.866 -0.5519  0.1275  2.0835
  102OSM   H11B10258   1.631   4.066  10.739 -0.9039  0.8846  0.1986
  102OSM      P10259   1.820   3.854  10.751 -0.3428  0.1912  0.2225
  102OSM    O1310260   1.962   3.810  10.753  0.5377  0.2754  0.2283
  102OSM    O1410261   1.711   3.759  10.767  0.2953  0.1770  0.5097
  102OSM    O1110262   1.806   3.926  10.617 -0.1412 -0.0773 -0.0204
  102OSM    O1210263   1.803   3.983  10.842  0.1324  0.6454 -0.0327
  102OSM    C1S10264   1.894   4.023  10.558 -0.5051 -0.1596 -0.2566
  102OSM    H1S10265   1.998   4.019  10.595 -0.3432  2.6483 -0.2658
  102OSM    H1T10266   1.873   4.128  10.588 -0.3364  0.9710 -3.9077
  102OSM     NF10267   1.987   4.104  10.348 -0.1422 -0.0888 -0.4202
  102OSM    HNF10268   1.968   4.201  10.336 -2.4201 -0.3033  1.2047
  102OSM    C2S10269   1.881   4.024  10.408 -0.4961  0.3344 -0.1750
  102OSM    H2S10270   1.892   3.922  10.366  1.0533  0.8548 -1.0575
  102OSM    C3S10271   1.742   4.076  10.363 -0.8949  0.0564  0.0990
  102OSM    H3S10272   1.737   4.183  10.391 -1.1290  0.2241 -0.5589
  102OSM     O310273   1.622   4.023  10.418  0.2265 -0.0582  0.5946
  102OSM    HO310274   1.651   3.961  10.487  2.2353  0.1694 -0.0099
  102OSM    C4S10275   1.733   4.052  10.212 -0.4286 -0.3858  0.0519
  102OSM    H4S10276   1.788   3.967  10.170  0.4710 -0.1020  0.6602
  102OSM    C5S10277   1.699   4.145  10.128  0.2597 -0.5701 -0.2132
  102OSM    H5S10278   1.656   4.244  10.153  1.5465 -0.1472  0.3781
  102OSM    C6S10279   1.718   4.132   9.980 -0.3372  0.4451  0.2314
  102OSM    H6S10280   1.672   4.222   9.933  0.7000  0.0732 -1.5157
  102OSM    H6T10281   1.658   4.048   9.938 -3.0718  2.2021  0.5063
  102OSM    C7S10282   1.865   4.131   9.941  0.4079  0.1167 -0.6171
  102OSM    H7S10283   1.855   4.091   9.838  0.0583  1.5944 -1.1664
  102OSM    H7T10284   1.928   4.056   9.994 -0.9247  0.5639  1.6756
  102OSM    C8S10285   1.936   4.268   9.929  0.1476 -0.2978  0.0605
  102OSM    H8S10286   1.966   4.298  10.032  2.0384 -1.7195 -0.0407
  102OSM    H8T10287   1.854   4.335   9.897  1.3832  1.1970 -0.0022
  102OSM    C9S10288   2.050   4.279   9.824  0.4516 -0.0559 -0.0142
  102OSM    H9S10289   2.141   4.222   9.849 -0.1903 -1.6330 -1.1596
  102OSM    H9T10290   2.076   4.387   9.828 -1.3809  0.3603  2.0371
  102OSM   C10S10291   2.015   4.243   9.675  0.5219 -0.9463  0.0110
  102OSM   H10S10292   1.986   4.136   9.669  1.7501 -1.4106  2.1144
  102OSM   H10T10293   2.108   4.247   9.615 -0.0620 -2.0426 -0.9999
  102OSM   C11S10294   1.916   4.340   9.599  0.2950  0.6418 -0.0312
  102OSM   H11S10295   1.963   4.440   9.613 -1.1622  1.5905 -1.8083
  102OSM   H11T10296   1.814   4.332   9.643  0.4876  0.8600  0.4548
  102OSM   C12S10297   1.906   4.322   9.449  0.5311 -0.2480 -0.2846
  102OSM   H12S10298   1.877   4.217   9.427 -0.8331 -0.4407  2.3204
  102OSM   H12T10299   2.011   4.337   9.416  1.3099  1.3762  2.7714
  102OSM   C13S10300   1.805   4.424   9.394  0.3832 -0.1953 -0.9029
  102OSM   H13S10301   1.845   4.525   9.421 -1.4143  0.0249  1.0542
  102OSM   H13T10302   1.708   4.416   9.447  0.6945 -0.1597 -0.3295
  102OSM   C14S10303   1.784   4.397   9.247 -0.3949 -1.0894 -0.1552
  102OSM   H14S10304   1.707   4.317   9.251 -1.4526 -0.0380  1.3444
  102OSM   H14T10305   1.869   4.362   9.186  0.1147 -0.1114 -0.0212
  102OSM   C15S10306   1.738   4.528   9.179  0.1540 -0.3407 -1.0935
  102OSM   H15S10307   1.798   4.617   9.210  0.9812 -1.1570 -0.3429
  102OSM   H15T10308   1.646   4.566   9.228  0.1518 -0.2382 -1.1762
  102OSM   C16S10309   1.749   4.524   9.030  0.4521 -0.3231 -0.4256
  102OSM   H16S10310   1.851   4.489   9.003  1.1077  1.2797 -0.0949
  102OSM   H16T10311   1.752   4.624   8.982  0.2071  0.6421  1.5158
  102OSM   C17S10312   1.636   4.437   8.969 -0.7790 -0.3779  1.0080
  102OSM   H17S10313   1.544   4.482   9.011 -2.2351 -0.9653 -1.4181
  102OSM   H17T10314   1.650   4.330   8.997  0.6265 -0.2973  0.6938
  102OSM   C18S10315   1.640   4.430   8.814  0.1510 -0.2099 -0.4758
  102OSM   H18S10316   1.655   4.533   8.775 -2.0112  0.5809  0.6745
  102OSM   H18T10317   1.555   4.372   8.772  0.1818  0.5838 -1.6449
  102OSM   H18U10318   1.735   4.386   8.779  0.4271  0.9467 -1.2093
  102OSM    C1F10319   2.117   4.063  10.360  0.0631 -0.3962 -0.7255
  102OSM     OF10320   2.139   3.949  10.383  0.4433 -0.4405  0.3672
  102OSM    C2F10321   2.224   4.164  10.359 -0.9063  0.2607  0.4475
  102OSM    H2F10322   2.277   4.163  10.456  1.1799  0.3167 -0.6596
  102OSM    H2G10323   2.180   4.264  10.338  2.9567  2.2286  1.4380
  102OSM    C3F10324   2.322   4.132  10.241  0.6790  0.3174  0.5218
  102OSM    H3F10325   2.256   4.117  10.153 -1.1364  0.2700  1.8529
  102OSM    H3G10326   2.375   4.038  10.268 -3.4764 -2.1976  0.3312
  102OSM    C4F10327   2.435   4.236  10.225 -0.1064  0.3141  0.0769
  102OSM    H4F10328   2.490   4.261  10.318 -0.6859  1.3384  0.1483
  102OSM    H4G10329   2.376   4.322  10.186  0.1930  0.0345 -1.0268
  102OSM    C5F10330   2.517   4.191  10.109  0.1390 -0.7758  0.0576
  102OSM    H5F10331   2.560   4.091  10.128 -0.0812 -0.8312  0.2612
  102OSM    H5G10332   2.604   4.260  10.095 -0.1825 -0.5743 -1.0202
  102OSM    C6F10333   2.441   4.187   9.979  1.2334 -0.4833  0.0947
  102OSM    H6F10334   2.424   4.295   9.965 -2.4972 -0.7656  1.7900
  102OSM    H6G10335   2.340   4.142   9.991  1.1301 -0.5494 -1.0471
  102OSM    C7F10336   2.518   4.116   9.869 -0.3356 -0.1823 -0.2180
  102OSM    H7F10337   2.552   4.015   9.902  1.8109 -0.0405 -1.8662
  102OSM    H7G10338   2.621   4.158   9.867 -0.7975  0.9463 -0.3279
  102OSM    C8F10339   2.435   4.104   9.741 -0.4378  0.7478  0.6313
  102OSM    H8F10340   2.337   4.058   9.764 -0.5141  0.2247 -0.6713
  102OSM    H8G10341   2.470   4.017   9.681  1.1186  1.5372  0.3654
  102OSM    C9F10342   2.425   4.235   9.672 -0.1288 -0.0929 -0.0558
  102OSM    H9F10343   2.409   4.326   9.732 -1.1621 -0.6231  0.5051
  102OSM   C10F10344   2.426   4.259   9.534  0.3856  0.6206 -0.3081
  102OSM   H10F10345   2.438   4.363   9.499  1.0314  1.4212  2.2095
  102OSM   C11F10346   2.437   4.158   9.430  0.4796  0.3755  0.2422
  102OSM   H11F10347   2.456   4.054   9.463  0.0218  1.4130  3.9799
  102OSM   H11G10348   2.521   4.187   9.363  0.2903  0.4318  0.0273
  102OSM   C12F10349   2.301   4.160   9.350  0.0853 -0.6410 -0.4083
  102OSM   H12F10350   2.213   4.151   9.417 -1.2000  2.6124 -1.5615
  102OSM   H12G10351   2.303   4.066   9.291  2.1942 -1.1940  0.5274
  102OSM   C13F10352   2.283   4.287   9.269 -0.3350  0.4834  0.1730
  102OSM   H13F10353   2.382   4.305   9.223 -0.9295  0.0723 -1.3093
  102OSM   H13G10354   2.258   4.371   9.337  1.6015  0.4855  0.8884
  102OSM   C14F10355   2.186   4.278   9.146  0.0477  0.1992 -0.1688
  102OSM   H14F10356   2.083   4.258   9.184 -0.9364 -0.9165 -3.2740
  102OSM   H14G10357   2.221   4.201   9.074 -0.1217 -0.2365  0.2104
  102OSM   C15F10358   2.182   4.407   9.073  0.0538  0.1811 -0.5292
  102OSM   H15F10359   2.284   4.448   9.060 -0.4591  0.8843 -2.5172
  102OSM   H15G10360   2.127   4.480   9.137 -0.5575 -1.0784  0.4045
  102OSM   C16F10361   2.120   4.389   8.933  0.8818 -0.1023  0.3483
  102OSM   H16F10362   2.020   4.344   8.956  1.2976 -0.3265  1.8025
  102OSM   H16G10363   2.167   4.311   8.870  1.6157 -0.3080  1.1460
  102OSM   C17F10364   2.110   4.522   8.858  0.0846 -0.2330 -0.3493
  102OSM   H17F10365   2.212   4.557   8.834 -0.5791  0.8529 -1.6529
  102OSM   H17G10366   2.059   4.596   8.923 -0.3211  0.9159 -1.9671
  102OSM   C18F10367   2.022   4.508   8.731  0.8182  0.6087  0.2571
  102OSM   H18F10368   2.049   4.416   8.674 -0.7030  0.5979 -0.4767
  102OSM   H18G10369   2.045   4.587   8.656  0.2633 -0.4534 -1.0600
  102OSM   H18H10370   1.912   4.505   8.746  0.4629  2.2174 -1.7770
  103OSM      N10371   1.712   6.434  10.735 -0.2185  0.1287 -0.1335
  103OSM    C1510372   1.712   6.560  10.819 -0.3885  0.0785  0.1637
  103OSM   H15A10373   1.806   6.574  10.872  0.5741 -0.9821 -1.2160
  103OSM   H15B10374   1.639   6.562  10.898 -0.5440 -2.1994  0.1243
  103OSM   H15C10375   1.693   6.651  10.765  0.4904  0.3001  0.2161
  103OSM    C1410376   1.799   6.452  10.615 -0.1636  0.5422  0.4211
  103OSM   H14A10377   1.901   6.459  10.649  0.4392 -2.3448 -0.6388
  103OSM   H14B10378   1.783   6.539  10.553  1.7745  1.2691  0.9058
  103OSM   H14C10379   1.805   6.368  10.548  1.2983  1.0535 -0.1051
  103OSM    C1310380   1.755   6.323  10.819  0.0067 -0.2796 -0.4311
  103OSM   H13A10381   1.856   6.342  10.854  0.3705  0.0107 -1.6186
  103OSM   H13B10382   1.753   6.222  10.781  0.4773 -0.3592 -0.2506
  103OSM   H13C10383   1.696   6.335  10.909 -0.0942  0.0077 -0.5351
  103OSM    C1210384   1.566   6.402  10.693 -0.0385 -0.1204  0.5957
  103OSM   H12A10385   1.513   6.372  10.782  1.2713 -0.3832  1.2977
  103OSM   H12B10386   1.576   6.318  10.626 -1.7427 -0.4652  0.7521
  103OSM    C1110387   1.489   6.517  10.625  0.5389 -0.0387  0.1001
  103OSM   H11A10388   1.395   6.478  10.580 -0.4491 -0.7988  2.7449
  103OSM   H11B10389   1.547   6.555  10.538  2.9034 -1.4643  1.0139
  103OSM      P10390   1.354   6.617  10.814 -0.1715 -0.2097 -0.1354
  103OSM    O1310391   1.326   6.476  10.850  0.0577 -0.7801 -0.1428
  103OSM    O1410392   1.385   6.709  10.923  0.8418 -0.3270 -0.4645
  103OSM    O1110393   1.226   6.669  10.736  0.1608 -0.0910  0.2334
  103OSM    O1210394   1.465   6.628  10.707 -0.0291  0.0046  0.5929
  103OSM    C1S10395   1.255   6.786  10.658 -0.1597  0.5449 -0.1019
  103OSM    H1S10396   1.339   6.768  10.588  1.1447  0.3634  1.4592
  103OSM    H1T10397   1.296   6.869  10.719 -2.4966  3.0705 -1.8593
  103OSM     NF10398   1.193   6.966  10.510  0.0790 -0.2627 -0.0411
  103OSM    HNF10399   1.163   7.056  10.539  0.0731 -0.5419  0.8131
  103OSM    C2S10400   1.140   6.850  10.579  0.6798 -0.0659  0.0573
  103OSM    H2S10401   1.122   6.772  10.502  1.8458  1.1158 -1.4338
  103OSM    C3S10402   1.021   6.874  10.680 -0.1931 -0.4814  0.2782
  103OSM    H3S10403   1.052   6.953  10.752  0.1078 -1.2197  0.9719
  103OSM     O310404   0.983   6.755  10.753  0.0433 -0.8157  0.0522
  103OSM    HO310405   1.059   6.698  10.737 -0.1523 -1.6567  1.8977
  103OSM    C4S10406   0.901   6.932  10.603  0.3202  0.1813 -0.0634
  103OSM    H4S10407   0.905   7.039  10.580  1.2310  0.3069  0.6582
  103OSM    C5S10408   0.797   6.864  10.546  0.1992 -0.2735  0.3445
  103OSM    H5S10409   0.798   6.755  10.562 -0.9545 -0.2869  0.3556
  103OSM    C6S10410   0.688   6.927  10.453  0.1867  1.2612 -0.2173
  103OSM    H6S10411   0.682   7.038  10.455  1.3872  1.3174  2.1516
  103OSM    H6T10412   0.590   6.884  10.482  0.4219 -0.3349 -1.6736
  103OSM    C7S10413   0.714   6.892  10.303  0.0299 -0.0530  0.1311
  103OSM    H7S10414   0.696   6.784  10.281 -0.0937 -0.3549  1.6385
  103OSM    H7T10415   0.821   6.902  10.275 -0.1071 -1.8764 -1.1647
  103OSM    C8S10416   0.622   6.969  10.211 -0.7366 -0.4452  0.1740
  103OSM    H8S10417   0.622   7.077  10.237  0.1964 -0.7367  1.4253
  103OSM    H8T10418   0.517   6.939  10.229 -1.6256  0.5821 -2.8948
  103OSM    C9S10419   0.651   6.949  10.062  0.1270 -0.0425 -1.0977
  103OSM    H9S10420   0.638   6.840  10.041 -1.1053 -0.4358  1.5226
  103OSM    H9T10421   0.755   6.979  10.040  0.6917  0.8865  2.5530
  103OSM   C10S10422   0.562   7.042   9.974  1.2945 -0.5605 -0.1807
  103OSM   H10S10423   0.586   7.144  10.011 -1.5833 -0.0669  0.4400
  103OSM   H10T10424   0.453   7.022   9.981  0.9691  1.7415  2.2690
  103OSM   C11S10425   0.615   7.044   9.832  0.3212  0.1179  0.1286
  103OSM   H11S10426   0.621   6.938   9.800 -1.3268 -0.1504  0.6477
  103OSM   H11T10427   0.714   7.093   9.827 -0.6828  2.1230 -1.2333
  103OSM   C12S10428   0.518   7.116   9.739 -0.4119  0.1271  0.2107
  103OSM   H12S10429   0.496   7.220   9.773  2.1025  0.7045  0.1887
  103OSM   H12T10430   0.429   7.050   9.750  0.9320 -1.9136 -0.8655
  103OSM   C13S10431   0.550   7.109   9.592  0.0155  0.2658  0.3067
  103OSM   H13S10432   0.579   7.007   9.559  1.6169  0.8344 -0.1104
  103OSM   H13T10433   0.636   7.175   9.569  0.9480 -1.1705 -0.4462
  103OSM   C14S10434   0.433   7.158   9.496 -0.0887  0.1941  0.2557
  103OSM   H14S10435   0.464   7.125   9.395  1.3021 -1.6613  1.2579
  103OSM   H14T10436   0.420   7.267   9.481  0.9556  0.6363  2.3651
  103OSM   C15S10437   0.300   7.082   9.521  0.0893 -0.9469  0.3063
  103OSM   H15S10438   0.261   7.105   9.622 -2.4788 -2.4689 -0.2895
  103OSM   H15T10439   0.297   6.970   9.521 -0.4709 -0.9346  1.6284
  103OSM   C16S10440   0.200   7.120   9.411 -0.1460  0.3246  0.6240
  103OSM   H16S10441   0.255   7.111   9.315 -1.2293  1.2054 -0.0829
  103OSM   H16T10442   0.171   7.225   9.433  2.7251  0.9614  1.6349
  103OSM   C17S10443   0.077   7.035   9.394  0.0923  0.2402  0.0606
  103OSM   H17S10444   0.026   7.034   9.493  2.5701 -3.0075  1.3834
  103OSM   H17T10445   0.109   6.929   9.382 -3.9737 -1.1391  0.3598
  103OSM   C18S10446  -0.031   7.078   9.290  0.0568 -1.0950 -0.3976
  103OSM   H18S10447   0.025   7.107   9.199  0.5787 -0.6146  0.0763
  103OSM   H18T10448  -0.082   7.156   9.350  0.4170 -1.3460  0.2413
  103OSM   H18U10449  -0.110   7.004   9.265  0.9605 -2.0318 -0.5005
  103OSM    C1F10450   1.274   6.962  10.406  0.0314 -0.0047  0.3495
  103OSM     OF10451   1.287   6.863  10.336 -0.2724  0.0094  0.6127
  103OSM    C2F10452   1.341   7.087  10.362 -0.2690 -0.3436  0.4915
  103OSM    H2F10453   1.442   7.084  10.408 -0.2438 -0.0577  0.4600
  103OSM    H2G10454   1.282   7.176  10.395 -2.1638 -2.1041  1.9455
  103OSM    C3F10455   1.351   7.101  10.207 -0.0266  0.4672 -0.1266
  103OSM    H3F10456   1.252   7.106  10.157  0.1382 -0.3177 -0.5280
  103OSM    H3G10457   1.412   7.017  10.168 -0.9123  0.2653 -1.0978
  103OSM    C4F10458   1.422   7.230  10.169 -0.2747  0.0734 -0.7604
  103OSM    H4F10459   1.510   7.221  10.237  0.5848 -0.3358 -1.9168
  103OSM    H4G10460   1.354   7.314  10.194  1.3293  0.9655  0.7517
  103OSM    C5F10461   1.465   7.240  10.025 -0.9808 -0.6011  0.1889
  103OSM    H5F10462   1.475   7.137   9.983 -1.5419 -0.3747 -0.5227
  103OSM    H5G10463   1.562   7.291  10.006 -0.4280 -1.9645 -0.7519
  103OSM    C6F10464   1.352   7.323   9.961 -0.8409 -0.2302 -0.6198
  103OSM    H6F10465   1.361   7.422  10.011 -0.6292  0.2895 -1.6649
  103OSM    H6G10466   1.252   7.279   9.982 -1.0078  1.3509  2.1176
  103OSM    C7F10467   1.378   7.318   9.808  0.1954 -0.1370 -0.2821
  103OSM    H7F10468   1.414   7.217   9.776  0.9196  0.2640 -0.7580
  103OSM    H7G10469   1.461   7.390   9.793 -0.3005  0.4733 -0.1031
  103OSM    C8F10470   1.264   7.364   9.720  0.8147  0.4302 -0.5117
  103OSM    H8F10471   1.226   7.466   9.743  1.5736  0.7727 -0.7430
  103OSM    H8G10472   1.187   7.285   9.728 -0.0861  1.5409  2.2797
  103OSM    C9F10473   1.334   7.376   9.584 -0.0858 -0.2596 -0.3489
  103OSM    H9F10474   1.425   7.314   9.583  1.4330  1.9037  0.3478
  103OSM   C10F10475   1.294   7.447   9.473 -0.0242 -0.4629 -0.9399
  103OSM   H10F10476   1.354   7.449   9.381  1.4851 -0.1543  0.0354
  103OSM   C11F10477   1.165   7.535   9.458  0.3284 -0.5007 -0.6327
  103OSM   H11F10478   1.096   7.515   9.543  0.0453 -0.5850 -0.8844
  103OSM   H11G10479   1.104   7.510   9.369 -0.3004 -1.0677 -0.0506
  103OSM   C12F10480   1.198   7.681   9.454  0.0462  0.4127  0.2244
  103OSM   H12F10481   1.279   7.692   9.529  0.7175 -1.3577 -0.2055
  103OSM   H12G10482   1.110   7.746   9.474 -1.1945 -0.2523 -2.8378
  103OSM   C13F10483   1.251   7.715   9.317 -0.4555  0.9061  0.2747
  103OSM   H13F10484   1.323   7.645   9.269  0.7986  1.1200  1.8156
  103OSM   H13G10485   1.306   7.811   9.314  1.8138 -0.2745  2.6438
  103OSM   C14F10486   1.136   7.747   9.214  0.6221  0.0074  0.3867
  103OSM   H14F10487   1.077   7.827   9.265 -1.5296 -1.4701  0.2885
  103OSM   H14G10488   1.067   7.660   9.215 -1.9565  1.9652 -0.4800
  103OSM   C15F10489   1.184   7.783   9.082 -0.3934  0.3590 -0.0035
  103OSM   H15F10490   1.197   7.688   9.026  1.6484  0.0258  1.0041
  103OSM   H15G10491   1.280   7.836   9.098  0.1930 -0.9198  0.7392
  103OSM   C16F10492   1.092   7.887   9.011  0.5897  0.0852 -0.2102
  103OSM   H16F10493   1.075   7.955   9.097  3.1113  0.1052  0.3093
  103OSM   H16G10494   0.997   7.835   8.983 -0.4251  1.1898  1.0981
  103OSM   C17F10495   1.164   7.964   8.896  0.1880 -0.3424 -0.4137
  103OSM   H17F10496   1.087   8.031   8.852 -1.9545 -0.4620  3.0344
  103OSM   H17G10497   1.196   7.892   8.818 -1.0604 -0.3174 -0.9695
  103OSM   C18F10498   1.274   8.057   8.934 -0.1880  0.3465  0.2803
  103OSM   H18F10499   1.319   8.101   8.843  0.6631 -0.1776  0.4443
  103OSM   H18G10500   1.352   7.997   8.984 -0.1014  1.6894  1.7781
  103OSM   H18H10501   1.237   8.140   8.997 -0.6600  0.5555 -0.2636
  104OSM      N10502   2.432   6.288  11.106  0.2944 -0.2856  0.2567
  104OSM    C1510503   2.546   6.191  11.086 -0.4365 -0.5371 -0.3273
  104OSM   H15A10504   2.630   6.240  11.039  1.3688 -0.4762  2.8096
  104OSM   H15B10505   2.503   6.113  11.025 -0.5354 -0.9751  0.2949
  104OSM   H15C10506   2.587   6.153  11.179 -0.1067 -2.2389 -1.1417
  104OSM    C1410507   2.336   6.220  11.203 -0.4763 -0.0867 -0.3427
  104OSM   H14A10508   2.240   6.269  11.202 -1.7754 -2.5541  0.2413
  104OSM   H14B10509   2.368   6.233  11.305  1.2691 -0.1037 -0.8662
  104OSM   H14C10510   2.336   6.114  11.186  3.6870 -0.3058  0.6022
  104OSM    C1310511   2.487   6.412  11.166 -0.3708 -0.0451 -0.1616
  104OSM   H13A10512   2.570   6.395  11.234 -0.8512  0.2605  0.5056
  104OSM   H13B10513   2.415   6.452  11.236 -0.7670 -1.4495  0.2459
  104OSM   H13C10514   2.526   6.488  11.099 -1.1641  1.9421  1.5791
  104OSM    C1210515   2.356   6.320  10.984  0.7102 -0.5819  0.4276
  104OSM   H12A10516   2.283   6.395  11.012 -0.4185 -1.2623 -0.6281
  104OSM   H12B10517   2.281   6.244  10.967  0.3992  0.7477 -5.0129
  104OSM    C1110518   2.424   6.362  10.850  0.0040 -0.1222  0.4488
  104OSM   H11A10519   2.352   6.370  10.766  3.1515  0.8984 -2.2510
  104OSM   H11B10520   2.491   6.280  10.819 -0.5218 -1.1510  2.0083
  104OSM      P10521   2.636   6.530  10.834 -0.0797  0.1698  0.2447
  104OSM    O1310522   2.670   6.626  10.939  0.1532 -0.1769  0.1308
  104OSM    O1410523   2.719   6.418  10.801 -0.0069  0.2171 -0.3026
  104OSM    O1110524   2.613   6.609  10.693 -0.1786 -0.1269 -0.5309
  104OSM    O1210525   2.482   6.491  10.860 -0.3638 -0.3396 -0.2894
  104OSM    C1S10526   2.566   6.538  10.581 -0.3653  1.0769 -0.3138
  104OSM    H1S10527   2.471   6.489  10.609  0.7987 -0.7239  0.5118
  104OSM    H1T10528   2.638   6.456  10.562 -3.1671 -1.8488  1.2303
  104OSM     NF10529   2.468   6.565  10.362 -0.0168 -0.3127  0.6135
  104OSM    HNF10530   2.515   6.568  10.274 -1.4231  3.2983 -0.1119
  104OSM    C2S10531   2.543   6.633  10.464  0.4990 -0.2452  0.0156
  104OSM    H2S10532   2.503   6.727  10.510 -0.2431 -1.5538  2.1013
  104OSM    C3S10533   2.690   6.678  10.426  0.0804  0.3123 -0.3178
  104OSM    H3S10534   2.744   6.585  10.400 -0.8864 -0.3067 -0.1320
  104OSM     O310535   2.767   6.740  10.533 -0.0290 -0.1750 -0.2118
  104OSM    HO310536   2.731   6.695  10.610 -0.4980 -2.0125 -1.4832
  104OSM    C4S10537   2.689   6.769  10.313  0.4208 -0.4035  0.3892
  104OSM    H4S10538   2.603   6.835  10.300  0.3009 -0.5614  0.3791
  104OSM    C5S10539   2.793   6.758  10.228 -0.1838 -0.2853  0.0711
  104OSM    H5S10540   2.876   6.688  10.245 -0.8906 -2.0565 -3.3026
  104OSM    C6S10541   2.814   6.843  10.106 -0.5351  0.5498 -0.5426
  104OSM    H6S10542   2.922   6.867  10.104 -0.1491 -1.0422  0.3752
  104OSM    H6T10543   2.749   6.933  10.106 -1.2238  0.0668 -0.7888
  104OSM    C7S10544   2.770   6.771   9.982 -0.1590  0.0526 -0.3570
  104OSM    H7S10545   2.777   6.836   9.892 -2.8307 -0.8518 -1.2524
  104OSM    H7T10546   2.663   6.742   9.982 -0.0810 -0.2396 -0.5293
  104OSM    C8S10547   2.846   6.639   9.947  0.7324  1.0186  0.6327
  104OSM    H8S10548   2.821   6.568  10.029  0.7440 -0.4595 -0.6028
  104OSM    H8T10549   2.955   6.660   9.952  1.0916 -0.0871 -1.7556
  104OSM    C9S10550   2.814   6.579   9.807  0.5769  0.8081  0.0175
  104OSM    H9S10551   2.704   6.564   9.806  0.6226  0.3527 -3.2286
  104OSM    H9T10552   2.858   6.477   9.795 -1.2095 -0.0801  0.7423
  104OSM   C10S10553   2.862   6.667   9.699  0.5999  0.1217 -0.2924
  104OSM   H10S10554   2.960   6.712   9.725  0.7796 -0.3679 -0.1214
  104OSM   H10T10555   2.781   6.739   9.674 -1.1696 -0.9165  2.2656
  104OSM   C11S10556   2.884   6.589   9.569  0.3228 -1.2417  0.1881
  104OSM   H11S10557   2.791   6.531   9.551 -2.0513  2.0435  1.3266
  104OSM   H11T10558   2.971   6.521   9.583  0.4393 -1.5550 -1.9341
  104OSM   C12S10559   2.923   6.687   9.450 -0.1026 -0.1162  0.7000
  104OSM   H12S10560   2.993   6.757   9.500  1.2594 -0.5257 -0.5960
  104OSM   H12T10561   2.837   6.751   9.423 -0.0292 -0.9334 -1.5261
  104OSM   C13S10562   2.983   6.624   9.325 -0.3935 -0.2777  0.7558
  104OSM   H13S10563   3.040   6.531   9.342  2.7614  0.7837 -3.0862
  104OSM   H13T10564   3.050   6.706   9.290 -2.0963  0.9750  0.3093
  104OSM   C14S10565   2.870   6.596   9.216  0.3493 -0.5285  0.8260
  104OSM   H14S10566   2.822   6.692   9.189 -0.3229 -1.1322 -0.1423
  104OSM   H14T10567   2.800   6.521   9.258  1.2784 -0.1640  3.1384
  104OSM   C15S10568   2.924   6.545   9.090 -0.4416 -0.2148 -0.5303
  104OSM   H15S10569   2.986   6.452   9.098 -1.1864 -0.5400  2.0350
  104OSM   H15T10570   2.986   6.630   9.053 -1.1883  0.4493 -0.2634
  104OSM   C16S10571   2.815   6.525   8.980 -0.2089 -0.3942 -0.4910
  104OSM   H16S10572   2.750   6.615   8.973 -0.5443 -0.4777  1.2077
  104OSM   H16T10573   2.756   6.433   9.001 -3.0065  1.7592  1.4583
  104OSM   C17S10574   2.884   6.526   8.842 -1.1997  0.9405 -0.2468
  104OSM   H17S10575   2.954   6.441   8.829 -1.3040  0.4356  2.2046
  104OSM   H17T10576   2.943   6.620   8.850  1.1308 -0.1966 -3.0277
  104OSM   C18S10577   2.790   6.529   8.726  0.2120  0.2643 -0.2365
  104OSM   H18S10578   2.743   6.431   8.708 -0.9579  1.1102 -1.9238
  104OSM   H18T10579   2.838   6.559   8.630 -3.1320  3.4774 -1.0037
  104OSM   H18U10580   2.710   6.606   8.730  1.6568  1.7980  0.3560
  104OSM    C1F10581   2.341   6.525  10.368  0.3646 -0.6723 -0.3086
  104OSM     OF10582   2.281   6.515  10.475 -0.0992  0.3319 -0.0409
  104OSM    C2F10583   2.282   6.491  10.239 -0.2497 -0.7221  0.5754
  104OSM    H2F10584   2.334   6.395  10.217  0.4092  0.4071 -2.9723
  104OSM    H2G10585   2.310   6.567  10.164 -0.9347 -1.1257 -0.0949
  104OSM    C3F10586   2.128   6.471  10.245 -1.0062 -0.0720 -0.3163
  104OSM    H3F10587   2.088   6.573  10.266  1.8978  0.6609  2.0665
  104OSM    H3G10588   2.092   6.411  10.332 -1.0833 -1.2123 -1.1357
  104OSM    C4F10589   2.053   6.419  10.125 -0.0712  0.6118  0.5535
  104OSM    H4F10590   1.944   6.419  10.148 -0.2381 -3.3135  0.0445
  104OSM    H4G10591   2.084   6.314  10.108 -2.2850  0.2325 -1.3181
  104OSM    C5F10592   2.075   6.498   9.994  0.3745 -0.2062 -0.2794
  104OSM    H5F10593   2.174   6.474   9.949 -0.1652 -1.0630 -1.0343
  104OSM    H5G10594   2.073   6.607  10.015  1.5433 -0.3071  0.4073
  104OSM    C6F10595   1.960   6.471   9.892  0.0670 -0.2348 -0.5776
  104OSM    H6F10596   1.871   6.537   9.903 -0.0835 -0.2774 -1.4817
  104OSM    H6G10597   1.921   6.367   9.899 -2.8165  0.5546 -3.7573
  104OSM    C7F10598   2.022   6.489   9.751 -0.7399 -0.0775 -0.3727
  104OSM    H7F10599   2.098   6.408   9.751 -0.0755  0.5309  1.1521
  104OSM    H7G10600   2.069   6.587   9.729  3.0263 -1.5690  0.6623
  104OSM    C8F10601   1.918   6.446   9.648  0.1957  0.6375  0.1208
  104OSM    H8F10602   1.840   6.524   9.633 -2.6535 -2.2130 -0.5146
  104OSM    H8G10603   1.858   6.359   9.683  0.1350  1.2733  1.6486
  104OSM    C9F10604   1.977   6.421   9.513 -0.5436  0.4090  0.1023
  104OSM    H9F10605   2.013   6.319   9.498 -1.2345  0.4825 -2.3002
  104OSM   C10F10606   1.991   6.509   9.410 -0.5125 -0.6446  1.1436
  104OSM   H10F10607   2.017   6.463   9.313  0.3573  0.4001  0.8772
  104OSM   C11F10608   1.942   6.648   9.409  0.6314 -0.6582  0.9667
  104OSM   H11F10609   1.947   6.711   9.500 -2.5264  0.2671  0.5393
  104OSM   H11G10610   1.833   6.636   9.391  0.7587 -2.5148  1.2846
  104OSM   C12F10611   1.993   6.722   9.283  0.3751 -0.2596  0.0320
  104OSM   H12F10612   2.102   6.743   9.277  0.1883  0.7688  0.1348
  104OSM   H12G10613   1.936   6.817   9.291  1.9410  0.6956  0.2620
  104OSM   C13F10614   1.954   6.657   9.146  0.0127  0.1919  0.6371
  104OSM   H13F10615   1.846   6.637   9.132 -0.3572  1.3506  1.7100
  104OSM   H13G10616   2.018   6.569   9.122 -2.2327 -1.3660  0.2525
  104OSM   C14F10617   1.985   6.766   9.040  0.2873  0.3354 -0.8429
  104OSM   H14F10618   2.075   6.829   9.052 -0.3321  1.1044 -0.1462
  104OSM   H14G10619   1.899   6.836   9.041 -0.0774 -0.1061 -0.9005
  104OSM   C15F10620   1.972   6.703   8.900 -0.3005 -0.2165 -0.0377
  104OSM   H15F10621   1.872   6.661   8.876 -0.9286  1.2929 -0.1141
  104OSM   H15G10622   2.045   6.619   8.897  0.2754  0.2900 -0.5820
  104OSM   C16F10623   2.011   6.802   8.789  0.0294  0.6670  0.0320
  104OSM   H16F10624   2.121   6.818   8.789  0.2690 -0.8461 -0.8333
  104OSM   H16G10625   1.962   6.901   8.796  1.3951  1.2479  1.7539
  104OSM   C17F10626   1.985   6.753   8.652 -0.0893  0.0363 -0.2367
  104OSM   H17F10627   1.878   6.727   8.648 -0.3291  0.8715  0.5973
  104OSM   H17G10628   2.055   6.670   8.628  1.9548  1.0122  2.1293
  104OSM   C18F10629   2.008   6.860   8.547  0.5547 -0.0967  0.9521
  104OSM   H18F10630   1.974   6.816   8.450  0.6532  0.3157  0.7314
  104OSM   H18G10631   2.111   6.899   8.537  0.3133 -0.2032 -2.8167
  104OSM   H18H10632   1.934   6.941   8.566 -2.7169 -2.7818  0.2970
  105OSM      N10633   5.124   2.375  11.217  0.2958 -0.3046 -0.2914
  105OSM    C1510634   4.994   2.304  11.231  0.4168 -0.0609 -0.8368
  105OSM   H15A10635   4.939   2.282  11.141  0.7398  0.7874 -1.2463
  105OSM   H15B10636   4.922   2.356  11.293  3.0161  0.5664  1.7791
  105OSM   H15C10637   5.015   2.214  11.287  1.0836 -0.1989 -1.3046
  105OSM    C1410638   5.109   2.498  11.143  0.5220 -0.2112 -0.0214
  105OSM   H14A10639   5.061   2.482  11.048 -0.9088  1.5413  0.3757
  105OSM   H14B10640   5.208   2.538  11.126  1.1473 -1.5131  0.4528
  105OSM   H14C10641   5.052   2.570  11.200  1.2732 -0.1540  0.6570
  105OSM    C1310642   5.157   2.413  11.365  0.9136 -0.0914  0.7015
  105OSM   H13A10643   5.158   2.323  11.424  1.3894 -0.2071  0.5221
  105OSM   H13B10644   5.081   2.479  11.403  0.2558  0.3562 -1.3588
  105OSM   H13C10645   5.255   2.456  11.380 -0.2815  1.8914  3.2314
  105OSM    C1210646   5.231   2.292  11.152 -0.3068 -0.1865 -0.0298
  105OSM   H12A10647   5.204   2.261  11.052  1.0863  2.5343 -1.3159
  105OSM   H12B10648   5.235   2.211  11.223 -1.9823  0.4108  0.7603
  105OSM    C1110649   5.373   2.351  11.155  0.3798  0.0830 -0.0850
  105OSM   H11A10650   5.453   2.278  11.133  0.0536  0.2135 -1.7890
  105OSM   H11B10651   5.396   2.371  11.261 -1.5341 -2.8964  0.9538
  105OSM      P10652   5.405   2.480  10.926  0.0090 -0.5871 -0.3959
  105OSM    O1310653   5.445   2.622  10.900 -0.3946  0.1300  0.3305
  105OSM    O1410654   5.488   2.368  10.881 -0.3997 -0.5108  0.2453
  105OSM    O1110655   5.255   2.450  10.873 -0.1223  0.3188 -0.0995
  105OSM    O1210656   5.393   2.468  11.085 -0.1285  0.6094  0.3351
  105OSM    C1S10657   5.204   2.533  10.768 -0.2312  0.8162 -0.3202
  105OSM    H1S10658   5.211   2.641  10.794  0.3567  0.7015  0.0080
  105OSM    H1T10659   5.094   2.518  10.775 -0.2269  0.8360 -0.1962
  105OSM     NF10660   5.153   2.565  10.531  0.0207 -0.1203  0.1521
  105OSM    HNF10661   5.089   2.508  10.480  0.8515  0.4124 -1.5378
  105OSM    C2S10662   5.236   2.494  10.618 -0.5172 -0.0881  0.2895
  105OSM    H2S10663   5.345   2.501  10.597 -0.6158 -2.4992 -1.3063
  105OSM    C3S10664   5.216   2.338  10.593  0.1528  0.0773  0.0374
  105OSM    H3S10665   5.106   2.339  10.580  0.2036 -0.1937 -0.4603
  105OSM     O310666   5.246   2.255  10.698 -0.8304  0.3706 -0.2091
  105OSM    HO310667   5.233   2.313  10.773  3.3678  0.4373  0.6081
  105OSM    C4S10668   5.277   2.294  10.461  0.8903  0.2680  0.2995
  105OSM    H4S10669   5.209   2.314  10.377  1.4051  0.4840 -0.0708
  105OSM    C5S10670   5.398   2.244  10.442  0.1026  0.4378  0.2457
  105OSM    H5S10671   5.469   2.220  10.522  0.1063 -0.2247  0.0438
  105OSM    C6S10672   5.450   2.214  10.304  0.2914  0.7727  0.3300
  105OSM    H6S10673   5.477   2.107  10.291 -1.5434  0.4973 -1.3547
  105OSM    H6T10674   5.543   2.274  10.288  0.0228  1.2991  0.7382
  105OSM    C7S10675   5.363   2.271  10.177 -0.0958  0.0663  0.2025
  105OSM    H7S10676   5.355   2.381  10.174  0.5395  0.0958 -0.6394
  105OSM    H7T10677   5.261   2.228  10.163  1.1082 -2.2380 -2.0404
  105OSM    C8S10678   5.428   2.231  10.039 -0.2000 -0.2314 -0.5496
  105OSM    H8S10679   5.456   2.124  10.029 -2.2123 -0.6375 -2.1165
  105OSM    H8T10680   5.519   2.296  10.031  0.6120 -1.1633  0.8537
  105OSM    C9S10681   5.331   2.257   9.933  0.0665  0.1518 -0.0839
  105OSM    H9S10682   5.307   2.365   9.923  0.5494  0.2395 -0.3161
  105OSM    H9T10683   5.247   2.186   9.943  0.0153  0.1073 -0.7916
  105OSM   C10S10684   5.400   2.217   9.798 -0.1458 -0.0079  0.0442
  105OSM   H10S10685   5.437   2.113   9.806 -0.1466  0.0948  1.7446
  105OSM   H10T10686   5.487   2.283   9.780  0.8792 -1.3234  0.1045
  105OSM   C11S10687   5.311   2.229   9.675  0.0697  0.4424 -0.1059
  105OSM   H11S10688   5.277   2.334   9.658  1.1598  0.4403 -2.5217
  105OSM   H11T10689   5.216   2.176   9.696  0.0252 -0.0071 -1.3566
  105OSM   C12S10690   5.374   2.181   9.544 -0.4033  0.4507  0.8122
  105OSM   H12S10691   5.389   2.073   9.566  0.5248  1.1730  3.9596
  105OSM   H12T10692   5.475   2.222   9.524  0.5078 -2.5467 -1.0599
  105OSM   C13S10693   5.283   2.213   9.421 -0.2619  0.9968 -0.0298
  105OSM   H13S10694   5.269   2.321   9.400  2.3089  1.9933  3.0949
  105OSM   H13T10695   5.183   2.171   9.448  0.5029 -0.5510  0.4413
  105OSM   C14S10696   5.335   2.137   9.296 -0.5622 -0.3256 -0.1672
  105OSM   H14S10697   5.327   2.028   9.314 -2.4667 -0.5457 -2.1920
  105OSM   H14T10698   5.444   2.158   9.282 -0.0544 -1.5694  1.6931
  105OSM   C15S10699   5.268   2.168   9.163  0.0666 -0.5156 -0.3193
  105OSM   H15S10700   5.270   2.273   9.128 -1.0427 -0.2922  0.2764
  105OSM   H15T10701   5.164   2.130   9.157  0.1654 -0.9544  0.6083
  105OSM   C16S10702   5.323   2.085   9.045  0.3193 -0.7057  0.3240
  105OSM   H16S10703   5.251   2.098   8.962 -0.3831 -3.2206  0.4930
  105OSM   H16T10704   5.336   1.977   9.066  0.9466 -0.8114 -0.6115
  105OSM   C17S10705   5.450   2.160   8.991  0.2676 -0.2942  0.9029
  105OSM   H17S10706   5.528   2.154   9.070  1.1395 -1.3573 -0.0108
  105OSM   H17T10707   5.413   2.263   8.974  1.4955  0.5881  3.3465
  105OSM   C18S10708   5.508   2.098   8.860  0.2656  0.3056 -1.0246
  105OSM   H18S10709   5.444   2.103   8.770 -0.5291  0.2725 -0.4744
  105OSM   H18T10710   5.515   1.988   8.878 -1.4540  0.0565 -1.7086
  105OSM   H18U10711   5.604   2.145   8.833 -0.5624  1.6816 -1.6483
  105OSM    C1F10712   5.154   2.696  10.518 -0.2570  0.4975  0.1810
  105OSM     OF10713   5.239   2.770  10.574 -0.0814 -0.5463 -0.1948
  105OSM    C2F10714   5.037   2.757  10.450  0.3910  0.6025 -0.3709
  105OSM    H2F10715   5.008   2.850  10.503  0.7192 -0.9311  2.6341
  105OSM    H2G10716   4.950   2.689  10.457  0.6255  0.5395  2.6002
  105OSM    C3F10717   5.053   2.780  10.300 -0.7607  0.2009 -0.2455
  105OSM    H3F10718   5.098   2.690  10.253 -4.1093 -2.5110  1.4870
  105OSM    H3G10719   5.119   2.868  10.290 -0.8400  0.5234  1.8560
  105OSM    C4F10720   4.926   2.830  10.232 -0.6364  0.3618 -0.1386
  105OSM    H4F10721   4.879   2.907  10.297 -0.3057  0.7985 -0.4132
  105OSM    H4G10722   4.847   2.753  10.223  0.3622 -0.9549  2.0952
  105OSM    C5F10723   4.959   2.895  10.096  0.1390 -0.2526 -0.2522
  105OSM    H5F10724   5.046   2.963  10.106  0.8373 -0.6589 -3.2739
  105OSM    H5G10725   4.869   2.953  10.064 -1.6752 -1.5536  2.3353
  105OSM    C6F10726   4.989   2.793   9.986 -0.2107  0.5498  0.5928
  105OSM    H6F10727   4.905   2.723   9.967  0.8238 -0.7482  0.6374
  105OSM    H6G10728   5.073   2.724  10.013 -1.6411 -1.5275 -0.1146
  105OSM    C7F10729   5.022   2.862   9.857  0.6437 -0.1798 -0.5715
  105OSM    H7F10730   5.099   2.938   9.881 -0.1845 -0.1940  2.2552
  105OSM    H7G10731   4.927   2.914   9.830  0.9942  1.8872  2.0239
  105OSM    C8F10732   5.049   2.767   9.736  0.2507  0.2441  0.2615
  105OSM    H8F10733   5.126   2.691   9.763 -0.2962 -0.6675 -0.7109
  105OSM    H8G10734   5.094   2.841   9.666 -0.9022 -0.4741 -1.2805
  105OSM    C9F10735   4.930   2.696   9.678  0.0840  0.2685  0.1207
  105OSM    H9F10736   4.883   2.619   9.742  0.5780 -0.7018 -0.6588
  105OSM   C10F10737   4.896   2.695   9.549  0.2075  0.5621  0.4783
  105OSM   H10F10738   4.808   2.640   9.511  1.2458  0.2886 -1.6118
  105OSM   C11F10739   4.969   2.768   9.438 -0.1145 -0.1007  0.2285
  105OSM   H11F10740   5.034   2.842   9.490 -0.8925  0.1949  0.7814
  105OSM   H11G10741   4.914   2.817   9.355  0.9592  0.0962 -0.3727
  105OSM   C12F10742   5.063   2.668   9.369 -0.2295  0.7280 -0.6439
  105OSM   H12F10743   5.106   2.616   9.457 -0.9507 -0.2080 -0.8322
  105OSM   H12G10744   5.153   2.723   9.335 -0.0206 -0.5448 -2.2340
  105OSM   C13F10745   5.004   2.582   9.257 -0.2910  0.4645  0.1857
  105OSM   H13F10746   4.902   2.559   9.294 -0.0129 -2.1955 -0.5885
  105OSM   H13G10747   5.065   2.489   9.263  1.6528  1.7025 -0.1218
  105OSM   C14F10748   5.002   2.640   9.113 -0.4944  0.1395  0.4094
  105OSM   H14F10749   5.105   2.657   9.076  0.0203 -0.2057  1.6845
  105OSM   H14G10750   4.952   2.739   9.109 -0.6216  0.1030  1.1205
  105OSM   C15F10751   4.939   2.547   9.012 -0.1111  0.2774  0.7242
  105OSM   H15F10752   4.941   2.587   8.909  0.9121  0.3398  0.7672
  105OSM   H15G10753   4.828   2.548   9.018 -0.1394  0.4078  0.2081
  105OSM   C16F10754   4.990   2.401   9.023  0.3242 -0.3255  0.2466
  105OSM   H16F10755   4.957   2.362   9.122 -0.2457  1.9002  0.9771
  105OSM   H16G10756   5.101   2.408   9.020  0.4514 -1.5384  1.7634
  105OSM   C17F10757   4.941   2.303   8.909  0.0563  0.2718 -0.4601
  105OSM   H17F10758   4.989   2.203   8.912 -0.1509  0.2054  0.7537
  105OSM   H17G10759   4.963   2.355   8.813 -1.6326 -1.3248 -1.7357
  105OSM   C18F10760   4.788   2.284   8.902 -0.4010 -0.3279  0.1429
  105OSM   H18F10761   4.756   2.246   9.002 -2.9757 -0.5067 -0.7309
  105OSM   H18G10762   4.777   2.213   8.818  0.2056 -0.7187  0.3882
  105OSM   H18H10763   4.734   2.377   8.875  0.4999  1.3697  3.8857
  106OSM      N10764   4.067   2.739  10.798  0.1051 -0.0351  0.4957
  106OSM    C1510765   4.062   2.772  10.645 -0.3760  0.3520 -0.5281
  106OSM   H15A10766   3.977   2.713  10.614  0.5492 -1.8135  0.9197
  106OSM   H15B10767   4.151   2.744  10.590 -0.6047  0.0502 -0.7452
  106OSM   H15C10768   4.040   2.875  10.621  0.9765  0.8049  0.0812
  106OSM    C1410769   4.164   2.837  10.873  0.4366  0.0190  0.6661
  106OSM   H14A10770   4.111   2.931  10.874 -1.2952 -0.9168 -0.0884
  106OSM   H14B10771   4.253   2.856  10.817  0.7476  1.4867  1.6290
  106OSM   H14C10772   4.174   2.804  10.976  2.8378 -1.2289  0.0675
  106OSM    C1310773   3.932   2.754  10.864 -0.0710  0.1917  0.2294
  106OSM   H13A10774   3.934   2.737  10.971 -0.7164  1.2062  0.4101
  106OSM   H13B10775   3.857   2.698  10.810  1.3133 -1.8518  0.4077
  106OSM   H13C10776   3.897   2.855  10.848  2.6913  0.8110 -2.3978
  106OSM    C1210777   4.115   2.596  10.814  0.9274 -0.0077 -0.3315
  106OSM   H12A10778   4.048   2.530  10.761 -0.4681  0.1274  1.2204
  106OSM   H12B10779   4.119   2.567  10.918 -1.2008  0.6042 -0.0466
  106OSM    C1110780   4.255   2.566  10.761 -1.0000 -0.1587 -0.4231
  106OSM   H11A10781   4.319   2.643  10.808 -0.1422 -2.2683  1.9706
  106OSM   H11B10782   4.269   2.571  10.651  0.6638  0.1126 -0.2138
  106OSM      P10783   4.241   2.313  10.748 -0.1994 -0.1399  0.5528
  106OSM    O1310784   4.344   2.220  10.691 -0.5805 -0.2791  0.1255
  106OSM    O1410785   4.154   2.254  10.851  0.1421 -0.3229  0.0721
  106OSM    O1110786   4.148   2.359  10.626 -0.0821  0.1214  0.3870
  106OSM    O1210787   4.304   2.442  10.807 -0.1080  0.4269  0.2818
  106OSM    C1S10788   4.200   2.349  10.488 -0.1246 -0.2393  0.0330
  106OSM    H1S10789   4.235   2.247  10.462  2.3812  0.3266  1.0195
  106OSM    H1T10790   4.269   2.433  10.468  0.7579 -1.1631 -0.8447
  106OSM     NF10791   4.160   2.380  10.252  0.3811 -0.0119 -0.4070
  106OSM    HNF10792   4.203   2.460  10.210  1.6298 -0.0612  0.7364
  106OSM    C2S10793   4.097   2.380  10.380 -0.6787 -0.2555 -0.6992
  106OSM    H2S10794   4.016   2.305  10.375 -1.7884  0.8618  0.0313
  106OSM    C3S10795   4.035   2.517  10.413  0.3866 -0.2065  0.8943
  106OSM    H3S10796   4.113   2.595  10.421 -1.5932  1.8054  0.9700
  106OSM     O310797   3.965   2.519  10.540 -0.4930 -0.1659  0.0029
  106OSM    HO310798   4.000   2.442  10.584 -1.2162 -0.8351 -0.5823
  106OSM    C4S10799   3.934   2.562  10.303 -0.0872  0.1843 -0.2503
  106OSM    H4S10800   3.852   2.491  10.287  1.8867 -1.7813 -1.8388
  106OSM    C5S10801   3.950   2.673  10.235  0.6806 -0.4741  0.3684
  106OSM    H5S10802   4.026   2.749  10.259  0.9082 -1.1113  1.7434
  106OSM    C6S10803   3.845   2.712  10.132 -0.1937 -0.6845  0.1829
  106OSM    H6S10804   3.849   2.820  10.107 -0.2829 -0.7291 -0.0184
  106OSM    H6T10805   3.743   2.697  10.175 -0.3612 -0.3684 -0.1055
  106OSM    C7S10806   3.849   2.634  10.002 -0.6805 -0.1194 -0.0256
  106OSM    H7S10807   3.818   2.529  10.020 -0.1475 -0.0283  1.4406
  106OSM    H7T10808   3.951   2.634   9.956 -1.3567  1.6253 -1.6253
  106OSM    C8S10809   3.749   2.689   9.893 -0.4972 -0.3714 -0.2844
  106OSM    H8S10810   3.658   2.722   9.948 -0.0040  1.0113 -0.2878
  106OSM    H8T10811   3.724   2.604   9.827 -1.7674 -1.7809  1.9300
  106OSM    C9S10812   3.802   2.806   9.808 -0.8497 -0.0586  0.0596
  106OSM    H9S10813   3.865   2.858   9.882  1.0446 -0.4967 -1.2160
  106OSM    H9T10814   3.729   2.874   9.759 -2.0712 -2.2019 -1.1742
  106OSM   C10S10815   3.892   2.758   9.688 -0.5750  1.2407  0.7809
  106OSM   H10S10816   3.834   2.692   9.619 -0.0227 -0.4739  1.9369
  106OSM   H10T10817   3.989   2.709   9.711 -1.5005 -1.0240  0.0464
  106OSM   C11S10818   3.929   2.877   9.596  1.0330 -0.4705 -0.0679
  106OSM   H11S10819   3.958   2.961   9.663  0.3359 -1.6942  1.8030
  106OSM   H11T10820   3.841   2.917   9.543 -1.3652 -1.7207  2.7863
  106OSM   C12S10821   4.030   2.854   9.483  0.2856 -0.0729 -0.4862
  106OSM   H12S10822   4.000   2.775   9.411 -2.2444  0.9871 -0.6516
  106OSM   H12T10823   4.118   2.818   9.541  1.1425  3.0649  0.3100
  106OSM   C13S10824   4.073   2.977   9.407  0.3608  0.4206  0.4366
  106OSM   H13S10825   4.087   3.049   9.491 -1.8513 -1.1496  2.2060
  106OSM   H13T10826   3.983   3.015   9.353 -0.1425  0.6767  1.4449
  106OSM   C14S10827   4.187   2.972   9.303  0.0299  0.1997 -0.1471
  106OSM   H14S10828   4.173   2.872   9.258 -1.3626 -0.6055  1.9989
  106OSM   H14T10829   4.288   2.992   9.345  0.3869  1.2652 -1.4480
  106OSM   C15S10830   4.172   3.087   9.195  0.1779  1.3980  0.4141
  106OSM   H15S10831   4.184   3.189   9.238 -1.2593  1.6192  0.3474
  106OSM   H15T10832   4.069   3.081   9.154  0.9291  1.0298 -1.4364
  106OSM   C16S10833   4.268   3.062   9.081  0.1144  0.2045 -0.0961
  106OSM   H16S10834   4.254   2.954   9.058 -0.1808  0.2268 -0.0143
  106OSM   H16T10835   4.377   3.058   9.105  0.1649  1.2308 -0.1291
  106OSM   C17S10836   4.244   3.150   8.962 -0.6523  0.0902 -0.4687
  106OSM   H17S10837   4.136   3.154   8.935 -0.1746 -0.6752 -2.6226
  106OSM   H17T10838   4.286   3.098   8.873  2.7294 -2.2119  2.3713
  106OSM   C18S10839   4.309   3.291   8.959  0.2923  0.1786 -0.2331
  106OSM   H18S10840   4.307   3.335   8.857  1.8622  0.2697 -0.2435
  106OSM   H18T10841   4.416   3.276   8.986  0.5256  1.1200 -0.6221
  106OSM   H18U10842   4.254   3.365   9.022 -1.8953 -0.6433 -1.1520
  106OSM    C1F10843   4.181   2.262  10.191 -0.8111  0.7620  0.3908
  106OSM     OF10844   4.155   2.150  10.235 -0.4075 -0.1148  0.1199
  106OSM    C2F10845   4.252   2.271  10.054  0.0945  0.2492 -0.4777
  106OSM    H2F10846   4.270   2.166  10.023  2.4481  0.4594  0.0749
  106OSM    H2G10847   4.347   2.327  10.067  1.0886 -1.4914 -0.1209
  106OSM    C3F10848   4.168   2.347   9.954 -0.2569  0.0917 -0.0507
  106OSM    H3F10849   4.134   2.446   9.992 -1.0009 -1.5654  3.7539
  106OSM    H3G10850   4.081   2.282   9.933  1.2310 -1.5069 -1.4078
  106OSM    C4F10851   4.225   2.366   9.810  0.3910 -0.2080  0.4190
  106OSM    H4F10852   4.263   2.277   9.755  1.1270  0.1642  0.3184
  106OSM    H4G10853   4.306   2.442   9.810  0.4141 -0.2287  1.1311
  106OSM    C5F10854   4.115   2.429   9.718 -0.2762 -0.7589 -0.1766
  106OSM    H5F10855   4.159   2.473   9.626  0.0838  1.2393  0.9139
  106OSM    H5G10856   4.069   2.517   9.768  0.0879 -0.6527 -0.0290
  106OSM    C6F10857   4.010   2.337   9.644 -0.1219  0.1307  0.5830
  106OSM    H6F10858   3.943   2.286   9.716 -0.1245 -0.8410 -0.0992
  106OSM    H6G10859   4.063   2.268   9.574 -1.6504 -0.2855 -0.1765
  106OSM    C7F10860   3.906   2.412   9.561  0.4125 -0.2685  0.1959
  106OSM    H7F10861   3.846   2.465   9.638  0.1354 -1.5935  0.8907
  106OSM    H7G10862   3.834   2.342   9.515  1.4251 -2.6647  2.1828
  106OSM    C8F10863   3.958   2.501   9.441 -0.1921  0.0928 -1.4434
  106OSM    H8F10864   4.011   2.585   9.491  1.1006 -1.4972 -0.0837
  106OSM    H8G10865   3.868   2.541   9.391 -0.8221  1.9517  1.1030
  106OSM    C9F10866   4.069   2.446   9.349 -0.9333 -0.7674 -0.1782
  106OSM    H9F10867   4.155   2.407   9.405 -1.5435 -0.7624  0.7752
  106OSM   C10F10868   4.067   2.450   9.215 -0.6941  0.1759  0.5142
  106OSM   H10F10869   4.157   2.411   9.164 -0.5886  1.9841 -0.7260
  106OSM   C11F10870   3.969   2.510   9.115 -0.2617 -0.4246 -0.3524
  106OSM   H11F10871   3.862   2.526   9.141 -0.3786  0.1068 -1.1469
  106OSM   H11G10872   3.948   2.430   9.041 -0.6460  0.9852 -1.8151
  106OSM   C12F10873   4.021   2.641   9.047  0.1408 -0.2210  0.1860
  106OSM   H12F10874   4.115   2.609   8.997 -1.4593  0.3008 -3.2766
  106OSM   H12G10875   4.031   2.722   9.123 -0.9533  1.1753 -1.1442
  106OSM   C13F10876   3.920   2.699   8.944  0.2098  0.6757  0.5643
  106OSM   H13F10877   3.829   2.735   8.996 -2.0893  1.8888 -4.0863
  106OSM   H13G10878   3.894   2.607   8.889  2.1482 -0.4681  1.4884
  106OSM   C14F10879   3.977   2.813   8.853  0.4940 -0.9366 -0.7990
  106OSM   H14F10880   4.020   2.891   8.920 -1.3254 -0.0902 -0.6115
  106OSM   H14G10881   3.893   2.860   8.798  0.2679 -0.6565 -0.2157
  106OSM   C15F10882   4.100   2.765   8.768  1.0960 -0.1163 -0.3116
  106OSM   H15F10883   4.068   2.683   8.700  0.8089  1.0049 -1.5371
  106OSM   H15G10884   4.183   2.734   8.836  1.7088  0.4461 -0.7984
  106OSM   C16F10885   4.146   2.870   8.672 -0.7350 -0.0902  0.5551
  106OSM   H16F10886   4.151   2.969   8.724  0.4258  0.5378 -0.7349
  106OSM   H16G10887   4.069   2.886   8.593  0.3124  0.3740 -0.3815
  106OSM   C17F10888   4.279   2.847   8.598  0.3920  0.6802  0.1509
  106OSM   H17F10889   4.283   2.746   8.552 -1.4400  0.5072  0.3564
  106OSM   H17G10890   4.360   2.854   8.674 -0.5795  1.2283  1.1489
  106OSM   C18F10891   4.314   2.938   8.480  0.7985  0.7745  0.1887
  106OSM   H18F10892   4.296   3.042   8.514 -2.6628  1.2435 -2.7726
  106OSM   H18G10893   4.242   2.932   8.395 -0.7427 -2.9186  1.6157
  106OSM   H18H10894   4.417   2.922   8.444  0.1007 -1.0170 -1.1204
  107OSM      N10895   1.169   5.950  10.938  0.1280 -0.7945  0.1463
  107OSM    C1510896   1.229   6.080  10.886  0.0523  0.5483 -0.5025
  107OSM   H15A10897   1.219   6.091  10.779 -3.3248 -1.5230 -0.4838
  107OSM   H15B10898   1.335   6.072  10.905  0.3019 -0.3047 -2.1620
  107OSM   H15C10899   1.195   6.169  10.936 -1.3308  0.6876 -1.6536
  107OSM    C1410900   1.261   5.848  10.880 -0.1411  0.3288 -0.3382
  107OSM   H14A10901   1.243   5.746  10.911 -1.9464  2.0052  4.6960
  107OSM   H14B10902   1.361   5.868  10.918 -1.1461 -0.3636  2.8691
  107OSM   H14C10903   1.266   5.856  10.773 -0.8007 -4.2754 -0.8226
  107OSM    C1310904   1.168   5.948  11.088  0.0376  1.0308 -0.6488
  107OSM   H13A10905   1.266   5.931  11.132 -0.2519  0.0545 -0.3598
  107OSM   H13B10906   1.113   5.862  11.123  2.8320 -0.2668  0.7792
  107OSM   H13C10907   1.106   6.026  11.129 -1.3816 -0.5964  0.3868
  107OSM    C1210908   1.023   5.929  10.888 -0.4475 -1.2360  0.1531
  107OSM   H12A10909   0.959   6.004  10.931  0.7066 -0.0406 -0.1814
  107OSM   H12B10910   0.985   5.833  10.921 -0.8276 -1.3632 -0.6368
  107OSM    C1110911   0.997   5.947  10.736 -0.4879  0.0214 -0.4748
  107OSM   H11A10912   0.904   5.897  10.703 -0.9243  0.2919  0.3373
  107OSM   H11B10913   1.069   5.878  10.688  0.4882  0.7206 -0.0362
  107OSM      P10914   0.883   6.180  10.706  0.0082  0.2755 -0.1677
  107OSM    O1310915   0.811   6.175  10.579  0.0919 -0.4497 -0.3785
  107OSM    O1410916   0.820   6.148  10.836 -0.5471  0.2638  0.3309
  107OSM    O1110917   0.952   6.322  10.709 -0.2990  0.0364 -0.0611
  107OSM    O1210918   1.009   6.082  10.688  0.1742  0.3946 -0.5835
  107OSM    C1S10919   1.065   6.351  10.624 -0.3026 -0.3195 -0.5054
  107OSM    H1S10920   1.142   6.272  10.635 -0.0606 -0.1384 -0.8630
  107OSM    H1T10921   1.116   6.445  10.656 -0.9290 -0.2737  0.3716
  107OSM     NF10922   1.150   6.405  10.378 -0.5078 -0.4237 -0.6888
  107OSM    HNF10923   1.172   6.500  10.356  1.0112 -0.2145  1.5379
  107OSM    C2S10924   1.033   6.383  10.464 -0.5389  0.7182 -0.6623
  107OSM    H2S10925   0.990   6.288  10.426 -1.2973  0.2407  1.3399
  107OSM    C3S10926   0.928   6.501  10.457 -0.0823  0.1632  0.4217
  107OSM    H3S10927   0.971   6.602  10.478  1.3706 -0.9567  3.1128
  107OSM     O310928   0.822   6.496  10.551 -0.5392 -0.3663  0.5003
  107OSM    HO310929   0.870   6.443  10.615  2.9703 -0.7815 -2.3133
  107OSM    C4S10930   0.871   6.512  10.318  0.9340  0.3294 -0.2218
  107OSM    H4S10931   0.914   6.594  10.259  0.4609 -0.4587 -1.7170
  107OSM    C5S10932   0.760   6.439  10.272 -1.0060 -0.0966 -0.3958
  107OSM    H5S10933   0.707   6.395  10.358  0.4989 -0.9164  0.1319
  107OSM    C6S10934   0.690   6.456  10.143  0.2455 -0.1877  0.2808
  107OSM    H6S10935   0.587   6.495  10.158  0.2373 -0.0041 -0.2490
  107OSM    H6T10936   0.677   6.355  10.097 -0.5885  0.9117 -1.9596
  107OSM    C7S10937   0.752   6.550  10.034 -0.2249  0.4758  0.5417
  107OSM    H7S10938   0.858   6.515  10.029 -0.1892  0.5828  0.5544
  107OSM    H7T10939   0.751   6.657  10.064  1.1219  0.1874  1.6616
  107OSM    C8S10940   0.694   6.535   9.885 -0.0780  1.3793  0.4163
  107OSM    H8S10941   0.588   6.566   9.888 -0.3203  0.6423 -0.3812
  107OSM    H8T10942   0.690   6.428   9.854  0.7919  0.8436  2.0442
  107OSM    C9S10943   0.755   6.614   9.769 -0.0955 -0.1081 -0.4578
  107OSM    H9S10944   0.855   6.573   9.742  1.2288  1.5945  1.7035
  107OSM    H9T10945   0.756   6.721   9.799  0.3563 -0.3715  0.4750
  107OSM   C10S10946   0.658   6.608   9.641 -0.1238 -0.3812 -0.3008
  107OSM   H10S10947   0.552   6.624   9.670  0.3725  1.2576  0.6936
  107OSM   H10T10948   0.651   6.503   9.605  1.2245 -0.2284 -1.0564
  107OSM   C11S10949   0.712   6.698   9.527  0.2503 -0.3652  0.2543
  107OSM   H11S10950   0.818   6.674   9.502  1.0313  2.7022  0.3912
  107OSM   H11T10951   0.700   6.806   9.546 -1.2468 -0.7664  1.6709
  107OSM   C12S10952   0.627   6.673   9.401  0.2648  0.3935 -0.5925
  107OSM   H12S10953   0.525   6.672   9.444 -0.1499 -2.3334 -1.5139
  107OSM   H12T10954   0.653   6.571   9.365 -0.8546  0.4307 -1.5435
  107OSM   C13S10955   0.651   6.772   9.282 -0.6156 -0.4463  0.1487
  107OSM   H13S10956   0.756   6.763   9.245 -0.8575  0.7940 -0.8762
  107OSM   H13T10957   0.636   6.877   9.315 -2.5103 -0.8010  0.4288
  107OSM   C14S10958   0.563   6.751   9.162  0.7727 -0.3394  0.1416
  107OSM   H14S10959   0.557   6.648   9.121 -1.5351  0.4635 -1.6438
  107OSM   H14T10960   0.599   6.817   9.080 -1.4147 -0.2917 -0.8321
  107OSM   C15S10961   0.417   6.789   9.192  0.6166 -0.2055  0.1625
  107OSM   H15S10962   0.419   6.883   9.251  1.5379 -1.4115  2.0930
  107OSM   H15T10963   0.392   6.716   9.272  0.0441  1.9500  1.9969
  107OSM   C16S10964   0.332   6.794   9.058  0.3564 -0.4781  0.6372
  107OSM   H16S10965   0.304   6.689   9.034 -1.3862  0.3791 -1.1815
  107OSM   H16T10966   0.403   6.824   8.978 -0.0484 -0.3040  0.3446
  107OSM   C17S10967   0.208   6.873   9.078  0.3364  0.0204  0.6305
  107OSM   H17S10968   0.232   6.974   9.117 -1.7389  0.9714 -0.4615
  107OSM   H17T10969   0.135   6.815   9.138 -0.0478  0.8691  0.9857
  107OSM   C18S10970   0.135   6.892   8.947  0.5147  0.2528  0.1906
  107OSM   H18S10971   0.192   6.944   8.867 -2.3183  0.5433 -1.7392
  107OSM   H18T10972   0.055   6.964   8.975 -0.1821 -0.4012 -0.1257
  107OSM   H18U10973   0.085   6.797   8.917 -0.5648  0.3672  1.6040
  107OSM    C1F10974   1.245   6.310  10.352  0.2167 -0.2630 -0.0342
  107OSM     OF10975   1.234   6.198  10.400  0.0895 -0.0854 -0.7201
  107OSM    C2F10976   1.356   6.356  10.270  0.3058 -0.5075 -0.7124
  107OSM    H2F10977   1.376   6.462  10.300 -0.7780 -0.2046 -1.0348
  107OSM    H2G10978   1.324   6.371  10.165 -1.8392  0.4084  0.0449
  107OSM    C3F10979   1.482   6.265  10.279 -0.1804 -0.0940  0.0529
  107OSM    H3F10980   1.446   6.160  10.282 -0.3675 -0.1175 -2.1069
  107OSM    H3G10981   1.540   6.281  10.372 -0.9234 -0.2829  0.5538
  107OSM    C4F10982   1.580   6.291  10.160 -0.1403 -0.4376 -0.3591
  107OSM    H4F10983   1.682   6.263  10.195 -0.1788 -0.6192 -0.3910
  107OSM    H4G10984   1.565   6.398  10.136  0.9486 -0.1397  0.2428
  107OSM    C5F10985   1.542   6.213  10.031 -0.3586  0.4536 -0.0953
  107OSM    H5F10986   1.446   6.247   9.986 -0.2664  2.0533  0.8364
  107OSM    H5G10987   1.526   6.114  10.079 -0.5427  1.0614  1.1350
  107OSM    C6F10988   1.657   6.234   9.931  0.4741 -1.1587 -0.2396
  107OSM    H6F10989   1.756   6.228   9.980  0.1800  0.0495  0.5298
  107OSM    H6G10990   1.657   6.341   9.902  0.6197 -0.1392  3.3499
  107OSM    C7F10991   1.647   6.159   9.799  0.9091 -0.1540  0.1253
  107OSM    H7F10992   1.628   6.051   9.818  0.0360  0.3106  1.9997
  107OSM    H7G10993   1.747   6.156   9.751  0.9202  1.5701  0.0043
  107OSM    C8F10994   1.522   6.199   9.719 -0.1940 -0.1642 -0.3770
  107OSM    H8F10995   1.428   6.172   9.771 -0.3225 -1.7033 -1.3585
  107OSM    H8G10996   1.523   6.132   9.630  0.3678  0.1940 -0.6448
  107OSM    C9F10997   1.515   6.341   9.671 -0.0352 -1.4593 -0.8235
  107OSM    H9F10998   1.478   6.411   9.746 -1.2298 -0.7499 -2.0526
  107OSM   C10F10999   1.551   6.393   9.550  0.0876 -0.2404 -0.0402
  107OSM   H10F11000   1.537   6.501   9.533 -1.0503 -0.0697  1.8964
  107OSM   C11F11001   1.607   6.310   9.435 -0.2475 -0.3996  0.1212
  107OSM   H11F11002   1.544   6.220   9.420 -1.3552  0.5966 -1.2476
  107OSM   H11G11003   1.706   6.274   9.471  0.2003  1.0760  0.4088
  107OSM   C12F11004   1.620   6.394   9.305 -0.5555 -0.0256  0.6303
  107OSM   H12F11005   1.668   6.332   9.227 -3.5276 -0.9996 -0.4987
  107OSM   H12G11006   1.686   6.481   9.327 -0.1733 -0.1348 -0.0987
  107OSM   C13F11007   1.494   6.447   9.248 -0.6841 -0.8300 -0.3876
  107OSM   H13F11008   1.426   6.509   9.312  0.6045  2.4852 -2.1051
  107OSM   H13G11009   1.436   6.366   9.200 -2.1331 -0.6285  0.9401
  107OSM   C14F11010   1.519   6.551   9.136 -0.3070 -0.1333 -0.2172
  107OSM   H14F11011   1.601   6.525   9.066 -0.4783  0.6487 -0.7185
  107OSM   H14G11012   1.546   6.651   9.175  0.7991 -0.0221 -1.2359
  107OSM   C15F11013   1.391   6.568   9.052  0.2538  0.3000  0.0063
  107OSM   H15F11014   1.312   6.586   9.128 -0.0353  1.0909 -0.4785
  107OSM   H15G11015   1.369   6.482   8.986 -1.1886  2.0254 -1.8221
  107OSM   C16F11016   1.398   6.693   8.968  0.5336 -0.4914  0.0356
  107OSM   H16F11017   1.480   6.683   8.894 -0.8258 -0.6981 -1.4953
  107OSM   H16G11018   1.402   6.779   9.039  0.1378 -1.0732  0.7707
  107OSM   C17F11019   1.277   6.699   8.874 -0.1632  0.1326  0.1996
  107OSM   H17F11020   1.178   6.706   8.923  0.8573 -0.4930  2.4400
  107OSM   H17G11021   1.272   6.602   8.821  1.3335  0.1349  0.0201
  107OSM   C18F11022   1.297   6.793   8.760  0.1288  0.2184  0.6586
  107OSM   H18F11023   1.211   6.798   8.690  0.7635 -1.7882 -0.2898
  107OSM   H18G11024   1.388   6.758   8.708 -0.2161  2.0583 -1.2431
  107OSM   H18H11025   1.308   6.893   8.808 -0.4074  0.1381  0.9533
  108OSM      N11026   4.179   1.881  10.527 -0.2793 -0.8515  0.1207
  108OSM    C1511027   4.081   1.982  10.461  0.4790 -0.2504  0.8137
  108OSM   H15A11028   3.989   1.932  10.436  0.7535 -0.5786  0.4609
  108OSM   H15B11029   4.130   2.022  10.373 -1.3493  0.3799  0.0561
  108OSM   H15C11030   4.062   2.068  10.524 -1.4363  1.2684 -1.7261
  108OSM    C1411031   4.301   1.958  10.562 -0.3947 -0.2776 -0.7195
  108OSM   H14A11032   4.364   1.900  10.629  0.1270  1.1768  0.0895
  108OSM   H14B11033   4.273   2.042  10.623 -1.9877 -0.8272 -0.6688
  108OSM   H14C11034   4.358   1.998  10.480  2.3402 -0.1503  1.1601
  108OSM    C1311035   4.112   1.830  10.651 -0.4738  0.2916  0.3260
  108OSM   H13A11036   4.083   1.913  10.714  0.4895  0.5764  0.3961
  108OSM   H13B11037   4.167   1.751  10.698  1.0955  0.3964 -1.2892
  108OSM   H13C11038   4.014   1.791  10.628 -0.0410  0.1465 -1.3555
  108OSM    C1211039   4.202   1.760  10.436 -0.2780  0.0949 -0.2394
  108OSM   H12A11040   4.235   1.793  10.339 -0.2038  0.5462 -0.0614
  108OSM   H12B11041   4.104   1.715  10.424 -0.7252  1.0494 -0.2169
  108OSM    C1111042   4.304   1.652  10.464 -0.7927 -0.1791 -0.2700
  108OSM   H11A11043   4.400   1.709  10.459 -1.2724  0.5794 -0.8628
  108OSM   H11B11044   4.301   1.579  10.381  0.7259 -0.5664 -0.0025
  108OSM      P11045   4.218   1.458  10.627  0.1006 -0.3680  0.4024
  108OSM    O1311046   4.312   1.350  10.666 -0.3440 -0.1501 -0.4033
  108OSM    O1411047   4.097   1.483  10.707  0.2353  0.5898  0.6577
  108OSM    O1111048   4.178   1.415  10.483 -0.1688 -0.1557 -0.1504
  108OSM    O1211049   4.291   1.599  10.599  0.2418  0.5498 -0.0122
  108OSM    C1S11050   4.039   1.385  10.453 -0.3764  0.0806  0.5019
  108OSM    H1S11051   3.983   1.481  10.455  0.7326  0.7431  0.3741
  108OSM    H1T11052   3.997   1.327  10.537 -0.0508 -0.9944 -0.0649
  108OSM     NF11053   3.892   1.275  10.276 -0.1000 -0.4700 -0.7410
  108OSM    HNF11054   3.860   1.182  10.259 -1.4615  0.2028 -2.0054
  108OSM    C2S11055   4.020   1.320  10.312 -0.3654 -0.8880  0.4705
  108OSM    H2S11056   4.052   1.402  10.245 -0.0056 -1.5330 -0.1478
  108OSM    C3S11057   4.133   1.207  10.281 -0.2195 -0.2515 -0.7856
  108OSM    H3S11058   4.120   1.115  10.343  0.8811  0.6752  0.8555
  108OSM     O311059   4.264   1.262  10.306 -0.3577  0.2643 -0.4200
  108OSM    HO311060   4.241   1.342  10.354 -1.9761 -1.9283  2.5893
  108OSM    C4S11061   4.129   1.170  10.132 -0.1713 -0.1034  0.7379
  108OSM    H4S11062   4.106   1.066  10.106  1.9444 -1.0530  2.5279
  108OSM    C5S11063   4.155   1.248  10.021 -0.2742  0.2228 -0.0445
  108OSM    H5S11064   4.180   1.355  10.023 -2.3788  0.7657 -1.1309
  108OSM    C6S11065   4.149   1.193   9.880 -0.1815 -0.4943  0.4108
  108OSM    H6S11066   4.187   1.089   9.865 -0.2697 -0.5730  0.7241
  108OSM    H6T11067   4.218   1.249   9.813  0.5510 -2.2334 -0.3223
  108OSM    C7S11068   4.010   1.218   9.817  0.5375 -0.3309 -0.2993
  108OSM    H7S11069   3.974   1.320   9.839 -0.7454 -0.5363 -1.3890
  108OSM    H7T11070   3.942   1.152   9.875  1.5029 -1.3883 -0.3418
  108OSM    C8S11071   3.996   1.201   9.667  0.6708  0.1440 -0.0921
  108OSM    H8S11072   4.034   1.099   9.643 -0.6976 -0.1758 -0.9482
  108OSM    H8T11073   4.060   1.278   9.619 -1.2455  1.0502 -1.2342
  108OSM    C9S11074   3.861   1.222   9.611  0.0247  0.3986  0.2273
  108OSM    H9S11075   3.846   1.330   9.632 -1.7526  0.8014 -2.7661
  108OSM    H9T11076   3.787   1.167   9.672  1.2906 -0.6539  0.8594
  108OSM   C10S11077   3.850   1.181   9.464  0.0098 -0.1572 -0.4159
  108OSM   H10S11078   3.749   1.215   9.429  0.6787  1.2496 -1.0447
  108OSM   H10T11079   3.857   1.072   9.446  1.3498 -0.0795 -0.3630
  108OSM   C11S11080   3.953   1.241   9.373  0.3924  0.1470 -0.3154
  108OSM   H11S11081   4.052   1.204   9.408  0.1656 -1.0089 -0.8800
  108OSM   H11T11082   3.953   1.351   9.384  0.1656 -0.0385  1.8353
  108OSM   C12S11083   3.925   1.214   9.225  0.0593  0.2701  1.1624
  108OSM   H12S11084   3.836   1.273   9.194  0.0099 -0.4237 -0.0608
  108OSM   H12T11085   3.892   1.109   9.219  3.0482 -0.6537 -0.0833
  108OSM   C13S11086   4.041   1.237   9.129 -0.5309  0.4026  0.3359
  108OSM   H13S11087   4.127   1.170   9.149 -1.0463 -0.4854 -0.4096
  108OSM   H13T11088   4.076   1.342   9.135 -2.1095  0.9246  0.5293
  108OSM   C14S11089   4.013   1.215   8.980  0.8871 -0.4572  0.7089
  108OSM   H14S11090   3.975   1.111   8.964  1.3648 -0.3121 -1.4706
  108OSM   H14T11091   4.102   1.212   8.914  0.3870  0.3887 -0.0179
  108OSM   C15S11092   3.904   1.311   8.923  0.1357  0.0034 -0.0029
  108OSM   H15S11093   3.927   1.417   8.948  0.9566 -0.3289  0.6757
  108OSM   H15T11094   3.811   1.299   8.982  0.0501 -0.1000 -0.1596
  108OSM   C16S11095   3.871   1.298   8.776 -0.3550 -0.0062 -0.2122
  108OSM   H16S11096   3.844   1.196   8.744 -0.1666 -0.3853  0.8292
  108OSM   H16T11097   3.956   1.338   8.715 -2.0114  1.8251 -1.4023
  108OSM   C17S11098   3.758   1.401   8.743  0.1603 -0.8327  0.2993
  108OSM   H17S11099   3.793   1.506   8.753  0.3270 -0.6274 -2.2011
  108OSM   H17T11100   3.662   1.388   8.796 -0.0933 -1.3076 -0.2755
  108OSM   C18S11101   3.713   1.398   8.599  0.4190 -0.5691 -0.1560
  108OSM   H18S11102   3.650   1.308   8.583 -1.3420  0.6335 -0.2133
  108OSM   H18T11103   3.803   1.398   8.534 -1.0261  1.1388 -2.2457
  108OSM   H18U11104   3.657   1.491   8.575  3.0264  1.4418  1.3116
  108OSM    C1F11105   3.796   1.362  10.277  0.4362 -0.5379  0.4602
  108OSM     OF11106   3.815   1.481  10.295 -0.1372  0.4331  0.4574
  108OSM    C2F11107   3.663   1.309  10.237 -0.1211 -0.1558  1.6275
  108OSM    H2F11108   3.592   1.395  10.237 -0.7402 -0.6091 -1.1695
  108OSM    H2G11109   3.613   1.240  10.308 -1.6147 -3.4353 -2.3463
  108OSM    C3F11110   3.673   1.248  10.087  0.1227 -0.3664 -0.2391
  108OSM    H3F11111   3.731   1.153  10.090  0.9501  0.1481  0.0593
  108OSM    H3G11112   3.732   1.316  10.023 -1.0606 -0.9312 -1.9813
  108OSM    C4F11113   3.540   1.220  10.023  0.1821  0.8554  0.0092
  108OSM    H4F11114   3.481   1.314  10.010 -1.0993  0.4057  2.3149
  108OSM    H4G11115   3.483   1.163  10.099 -3.0955 -0.0182 -2.9875
  108OSM    C5F11116   3.539   1.137   9.895  0.5648  0.6679 -0.6870
  108OSM    H5F11117   3.535   1.029   9.918  1.4326  0.7066 -0.3035
  108OSM    H5G11118   3.629   1.161   9.834  0.5905 -0.6245 -1.1615
  108OSM    C6F11119   3.422   1.150   9.803 -0.1459 -0.1614  0.1479
  108OSM    H6F11120   3.403   1.253   9.765  0.6205  0.1660  0.6365
  108OSM    H6G11121   3.327   1.140   9.859  1.1189  0.9832  2.5790
  108OSM    C7F11122   3.415   1.041   9.684  0.1275 -0.3115 -0.8552
  108OSM    H7F11123   3.307   1.041   9.660  0.0641  3.7824 -0.8928
  108OSM    H7G11124   3.430   0.947   9.742 -1.4988  0.5955  1.1154
  108OSM    C8F11125   3.512   1.059   9.566 -0.6992 -0.0922 -0.1154
  108OSM    H8F11126   3.620   1.049   9.593  0.2338  2.1106 -2.7809
  108OSM    H8G11127   3.505   1.166   9.536  3.6116 -0.0052 -1.1152
  108OSM    C9F11128   3.469   0.963   9.455  0.1290  0.2169 -0.8274
  108OSM    H9F11129   3.456   0.860   9.492 -1.0066  1.2306  1.6796
  108OSM   C10F11130   3.464   0.999   9.327 -0.2679  0.0294 -0.2181
  108OSM   H10F11131   3.421   0.929   9.254  0.3790  0.9172 -1.4783
  108OSM   C11F11132   3.481   1.134   9.264 -0.5838 -0.1729 -0.5845
  108OSM   H11F11133   3.570   1.170   9.320  0.0328 -0.4891 -1.3448
  108OSM   H11G11134   3.400   1.206   9.287  0.2487 -0.1013  2.3654
  108OSM   C12F11135   3.521   1.133   9.111 -0.0221 -0.4319 -0.1372
  108OSM   H12F11136   3.586   1.047   9.086  0.4204 -0.3620  0.7491
  108OSM   H12G11137   3.576   1.225   9.080 -1.0017  0.2605  0.1440
  108OSM   C13F11138   3.388   1.145   9.019 -0.1701 -1.2073  1.1172
  108OSM   H13F11139   3.324   1.224   9.064 -0.7546 -1.7345  1.2076
  108OSM   H13G11140   3.323   1.056   9.031  0.7782 -2.0558  0.1142
  108OSM   C14F11141   3.425   1.170   8.867  0.2346 -0.3486 -0.6523
  108OSM   H14F11142   3.503   1.092   8.850 -1.8738 -2.4799 -0.8378
  108OSM   H14G11143   3.465   1.272   8.852  2.9240 -1.4190 -1.0768
  108OSM   C15F11144   3.317   1.151   8.762  0.0387  0.1673 -0.7660
  108OSM   H15F11145   3.245   1.236   8.774 -1.2583 -1.1197  0.9361
  108OSM   H15G11146   3.256   1.063   8.793  1.0265 -0.4024 -0.4245
  108OSM   C16F11147   3.364   1.141   8.618  0.2907 -0.1446  0.6222
  108OSM   H16F11148   3.448   1.069   8.628  0.0131 -0.4113  1.0627
  108OSM   H16G11149   3.393   1.239   8.575 -2.5734  1.1589  1.5235
  108OSM   C17F11150   3.259   1.080   8.525  0.8637  0.0921  0.2084
  108OSM   H17F11151   3.290   1.101   8.421  1.1845 -0.7996  0.1197
  108OSM   H17G11152   3.158   1.124   8.530  0.5079 -0.8073  1.5340
  108OSM   C18F11153   3.228   0.927   8.538 -0.4120 -0.6300 -0.9985
  108OSM   H18F11154   3.161   0.906   8.624  0.5875 -1.2131 -0.3421
  108OSM   H18G11155   3.320   0.864   8.531  1.1013  1.4814 -0.7029
  108OSM   H18H11156   3.172   0.902   8.445 -1.1550  0.0291 -0.7298
  109OSM      N11157   2.988   0.074  11.387 -0.3370  0.5654  0.1273
  109OSM    C1511158   2.852   0.008  11.379 -0.1150 -0.3423 -0.6151
  109OSM   H15A11159   2.851  -0.040  11.282  0.3846 -2.1431  0.2437
  109OSM   H15B11160   2.772   0.080  11.382  1.2938  1.3560 -2.5406
  109OSM   H15C11161   2.840  -0.068  11.455 -2.0602  0.8798  0.3246
  109OSM    C1411162   2.992   0.146  11.515 -1.1842 -0.0024 -0.3765
  109OSM   H14A11163   2.992   0.073  11.594  0.1950  0.9918  0.5673
  109OSM   H14B11164   2.910   0.213  11.535  0.1860  0.9040  2.4163
  109OSM   H14C11165   3.088   0.196  11.525 -0.8548 -0.6176 -0.4277
  109OSM    C1311166   3.083  -0.035  11.399  0.2707  0.6462 -0.1381
  109OSM   H13A11167   3.178  -0.002  11.438  0.3904 -0.7544  0.7886
  109OSM   H13B11168   3.101  -0.091  11.308  0.7325  0.3630  0.1283
  109OSM   H13C11169   3.049  -0.105  11.474  2.4222 -1.0807 -0.7067
  109OSM    C1211170   3.033   0.167  11.267 -0.3275  0.0660 -0.4508
  109OSM   H12A11171   3.139   0.191  11.266 -0.8960  2.7034 -2.6892
  109OSM   H12B11172   2.984   0.261  11.290 -1.1371 -0.7062  1.0664
  109OSM    C1111173   2.988   0.122  11.128  0.2763 -0.4807  0.4658
  109OSM   H11A11174   3.003   0.203  11.054 -0.2429 -1.8323 -1.1648
  109OSM   H11B11175   2.879   0.101  11.122 -0.1010  1.6045 -0.1798
  109OSM      P11176   3.195   0.003  11.028  0.2797  0.0142  0.1997
  109OSM    O1311177   3.243   0.147  11.035  0.5109  0.9548 -0.2904
  109OSM    O1411178   3.279  -0.099  11.088 -0.6713 -0.1539 -0.6828
  109OSM    O1111179   3.176  -0.027  10.877  0.4585 -0.0608  0.2040
  109OSM    O1211180   3.056   0.000  11.092  0.6683  0.4736  0.1856
  109OSM    C1S11181   3.069   0.034  10.803 -0.3818 -0.5675  0.1624
  109OSM    H1S11182   3.075   0.144  10.813 -1.3847 -0.4826 -0.0790
  109OSM    H1T11183   2.966   0.003  10.832 -0.2310 -1.3498 -0.1043
  109OSM     NF11184   3.006   0.087  10.564 -0.6467  0.0042 -0.1162
  109OSM    HNF11185   2.912   0.055  10.550 -0.3729 -0.2061 -1.5799
  109OSM    C2S11186   3.085   0.006  10.645 -0.6262 -0.7461 -0.3583
  109OSM    H2S11187   3.192   0.025  10.622 -1.5258  1.4578 -2.9464
  109OSM    C3S11188   3.079  -0.148  10.626  0.3509 -0.0047 -0.7577
  109OSM    H3S11189   2.978  -0.192  10.642  0.0212  0.6895 -0.8949
  109OSM     O311190   3.158  -0.237  10.696  0.7182 -0.0576  0.3167
  109OSM    HO311191   3.204  -0.173  10.751 -0.9496  0.1575  1.5096
  109OSM    C4S11192   3.112  -0.188  10.480  0.0693  0.1055  0.1656
  109OSM    H4S11193   3.207  -0.153  10.435  0.0869  1.0422  0.8956
  109OSM    C5S11194   3.046  -0.281  10.403 -0.4746  0.4798 -0.2546
  109OSM    H5S11195   2.956  -0.332  10.441  1.4998 -2.2276  0.9902
  109OSM    C6S11196   3.085  -0.321  10.267  0.4526  0.1481 -0.4907
  109OSM    H6S11197   3.195  -0.336  10.265  0.5485  0.9555 -1.4114
  109OSM    H6T11198   3.067  -0.236  10.199 -1.0468  0.1968 -0.0511
  109OSM    C7S11199   3.004  -0.445  10.217 -0.1014  0.4634  0.1627
  109OSM    H7S11200   2.914  -0.408  10.165 -1.4817 -0.7141  1.6718
  109OSM    H7T11201   2.988  -0.518  10.299  0.9649  0.5146  0.4367
  109OSM    C8S11202   3.084  -0.529  10.115 -0.1552  0.1753  0.2711
  109OSM    H8S11203   3.014  -0.609  10.083  0.9941 -0.3420 -0.9820
  109OSM    H8T11204   3.178  -0.565  10.162 -0.9923 -2.5482 -0.0660
  109OSM    C9S11205   3.108  -0.448   9.985  0.1485 -0.3319 -0.4826
  109OSM    H9S11206   3.187  -0.371  10.002 -0.3789 -0.0907  1.0552
  109OSM    H9T11207   3.020  -0.391   9.947  0.6296  1.3328  0.7869
  109OSM   C10S11208   3.164  -0.531   9.870  0.0540  0.5473 -0.8229
  109OSM   H10S11209   3.102  -0.622   9.862 -0.3378  0.9291 -2.2212
  109OSM   H10T11210   3.269  -0.563   9.888  0.6916  3.1018  0.1884
  109OSM   C11S11211   3.157  -0.452   9.744 -0.5955 -0.2437 -0.1766
  109OSM   H11S11212   3.208  -0.353   9.751  1.0032 -0.8443 -2.7365
  109OSM   H11T11213   3.049  -0.454   9.719 -0.2915 -0.7377 -1.5025
  109OSM   C12S11214   3.238  -0.534   9.639  0.0270  0.3243 -0.2952
  109OSM   H12S11215   3.246  -0.638   9.676 -0.6903  0.3440 -0.0839
  109OSM   H12T11216   3.339  -0.488   9.645  0.1200 -0.2499  3.1084
  109OSM   C13S11217   3.204  -0.514   9.490 -0.2276  0.7772  0.1055
  109OSM   H13S11218   3.209  -0.405   9.466 -0.3996  0.2762 -2.2568
  109OSM   H13T11219   3.105  -0.560   9.473 -0.2471  0.1411  1.8243
  109OSM   C14S11220   3.312  -0.567   9.398 -0.1961 -0.4885  0.9092
  109OSM   H14S11221   3.314  -0.678   9.399  6.1756 -0.5875  1.1510
  109OSM   H14T11222   3.416  -0.530   9.415 -0.9902  2.1703  0.1379
  109OSM   C15S11223   3.268  -0.532   9.252  0.7333 -0.5241 -0.0266
  109OSM   H15S11224   3.157  -0.527   9.257  0.8471 -0.1983  2.5136
  109OSM   H15T11225   3.292  -0.620   9.187 -1.6005 -1.5980  0.5094
  109OSM   C16S11226   3.317  -0.396   9.199 -0.4668  0.2436 -0.4710
  109OSM   H16S11227   3.427  -0.387   9.215 -0.5092  1.2927 -0.7854
  109OSM   H16T11228   3.273  -0.315   9.260  0.4480  1.3106 -1.2125
  109OSM   C17S11229   3.282  -0.377   9.047  0.2244 -0.1026 -0.1706
  109OSM   H17S11230   3.279  -0.267   9.033  2.0871 -0.3586 -2.8919
  109OSM   H17T11231   3.184  -0.424   9.027 -1.8838  3.2628  1.6806
  109OSM   C18S11232   3.393  -0.439   8.960  0.9668 -0.2101  0.0665
  109OSM   H18S11233   3.371  -0.422   8.853  1.2500  0.5829  0.1298
  109OSM   H18T11234   3.404  -0.549   8.975  3.1522  0.0559  0.6596
  109OSM   H18U11235   3.494  -0.400   8.987  0.5047  0.8435  0.2877
  109OSM    C1F11236   3.035   0.216  10.550  0.5928 -0.1704 -0.3650
  109OSM     OF11237   3.138   0.261  10.588 -0.5812 -0.3231 -0.0256
  109OSM    C2F11238   2.931   0.304  10.483 -0.0012 -0.2864  0.9878
  109OSM    H2F11239   2.882   0.369  10.559  1.6538  0.7714  1.1722
  109OSM    H2G11240   2.866   0.239  10.420 -2.6162  2.3695  0.8064
  109OSM    C3F11241   2.988   0.400  10.375  0.0327 -0.8612 -0.1359
  109OSM    H3F11242   3.080   0.451  10.412  1.6446 -3.2743 -0.6638
  109OSM    H3G11243   2.911   0.475  10.350 -0.4996 -0.8321  1.5458
  109OSM    C4F11244   3.024   0.323  10.242 -0.4190 -0.3946 -0.1974
  109OSM    H4F11245   2.939   0.261  10.208 -0.7108  0.5671 -1.2347
  109OSM    H4G11246   3.114   0.261  10.261  0.1366  0.3618 -0.3133
  109OSM    C5F11247   3.052   0.428  10.132  0.7111 -0.4931 -0.2110
  109OSM    H5F11248   3.125   0.502  10.172 -1.7832  0.1604  3.4201
  109OSM    H5G11249   2.956   0.481  10.112 -0.4655 -1.3277  2.9078
  109OSM    C6F11250   3.095   0.366   9.999  0.3188 -0.1298  0.6904
  109OSM    H6F11251   3.176   0.290  10.002  1.0171  0.5900  0.2499
  109OSM    H6G11252   3.138   0.452   9.943 -0.4224 -0.6320 -0.6781
  109OSM    C7F11253   2.974   0.332   9.916 -0.1382  0.0640  0.5888
  109OSM    H7F11254   2.900   0.416   9.915  0.2563  0.4553 -2.5983
  109OSM    H7G11255   2.920   0.242   9.953  1.2739 -0.1853  2.0684
  109OSM    C8F11256   3.007   0.324   9.765 -0.2027 -0.0887 -0.8056
  109OSM    H8F11257   3.092   0.254   9.749 -0.8413 -1.8875  3.0737
  109OSM    H8G11258   3.043   0.427   9.743 -0.9276  0.3538  0.0217
  109OSM    C9F11259   2.899   0.281   9.672 -0.5947  0.1745 -0.0049
  109OSM    H9F11260   2.797   0.265   9.711 -0.5396  0.3741  0.2155
  109OSM   C10F11261   2.924   0.251   9.545 -0.1813 -0.4699  0.0055
  109OSM   H10F11262   2.842   0.205   9.487 -2.1720 -0.7696  2.9451
  109OSM   C11F11263   3.054   0.266   9.468 -0.1946 -0.1844 -0.2971
  109OSM   H11F11264   3.100   0.165   9.469 -0.9316 -0.5200  0.6538
  109OSM   H11G11265   3.126   0.332   9.521 -2.4655 -0.9580  3.9858
  109OSM   C12F11266   3.042   0.314   9.317  0.2373  0.3947 -0.3793
  109OSM   H12F11267   3.139   0.361   9.288  2.0828 -2.6022  0.7134
  109OSM   H12G11268   2.966   0.395   9.313  0.1476  0.2498 -1.5156
  109OSM   C13F11269   3.016   0.195   9.220  0.1112  0.0430  0.8092
  109OSM   H13F11270   2.941   0.129   9.269  0.3589 -0.9134 -0.0622
  109OSM   H13G11271   3.110   0.134   9.222 -1.1724 -2.0250  0.0434
  109OSM   C14F11272   2.982   0.246   9.081 -0.5328 -0.2016 -0.1830
  109OSM   H14F11273   3.069   0.309   9.053  1.8329 -2.6149  1.5378
  109OSM   H14G11274   2.890   0.307   9.090 -1.6459 -1.6545 -1.4722
  109OSM   C15F11275   2.964   0.134   8.975 -0.5848  0.1983 -0.2257
  109OSM   H15F11276   2.912   0.046   9.020 -1.1670 -0.0755 -1.4119
  109OSM   H15G11277   3.065   0.097   8.950 -0.7837 -0.3584 -0.2264
  109OSM   C16F11278   2.894   0.166   8.844 -0.4570  0.5815  0.1505
  109OSM   H16F11279   2.877   0.082   8.773 -2.9927 -0.4674  1.9477
  109OSM   H16G11280   2.951   0.238   8.782 -1.3688  0.3146 -1.0206
  109OSM   C17F11281   2.753   0.225   8.863  0.6270 -0.1825  0.3481
  109OSM   H17F11282   2.709   0.263   8.768 -2.9547 -2.2641  1.0822
  109OSM   H17G11283   2.766   0.317   8.923 -0.3697  1.4991 -1.9260
  109OSM   C18F11284   2.654   0.135   8.938 -0.1078 -0.1997 -0.0183
  109OSM   H18F11285   2.629   0.045   8.877 -1.0666 -0.7326  1.1385
  109OSM   H18G11286   2.559   0.190   8.955 -0.6487 -1.6622  1.8388
  109OSM   H18H11287   2.705   0.103   9.031 -1.6435 -0.2829  0.8129
  110OSM      N11288   4.486   5.465  11.102  0.7077  0.2177 -0.6077
  110OSM    C1511289   4.491   5.604  11.127  0.1987  0.0033  0.7293
  110OSM   H15A11290   4.567   5.629  11.200  0.8745  0.7056 -0.2060
  110OSM   H15B11291   4.399   5.646  11.163  0.1207  0.1822  0.3209
  110OSM   H15C11292   4.533   5.656  11.042 -0.0336  0.2555  0.7700
  110OSM    C1411293   4.620   5.423  11.069  0.4754 -0.5143  0.4686
  110OSM   H14A11294   4.695   5.442  11.144  0.4932 -0.9152  0.5516
  110OSM   H14B11295   4.655   5.451  10.971  0.7162 -2.2546  0.0436
  110OSM   H14C11296   4.626   5.315  11.067  1.0889 -0.4713 -1.0400
  110OSM    C1311297   4.440   5.390  11.224  0.3489 -0.9160  0.6193
  110OSM   H13A11298   4.345   5.431  11.255 -0.5941 -0.9758 -2.0092
  110OSM   H13B11299   4.509   5.395  11.307  3.0769 -1.5679 -1.5184
  110OSM   H13C11300   4.419   5.290  11.190 -1.4311  0.0591 -1.2934
  110OSM    C1211301   4.403   5.444  10.985 -0.2853  0.0491  0.2899
  110OSM   H12A11302   4.412   5.339  10.959  0.1178  0.7771 -2.7344
  110OSM   H12B11303   4.456   5.487  10.901 -0.1202 -0.3932  0.1610
  110OSM    C1111304   4.259   5.479  10.982 -0.0314 -0.4131  0.7322
  110OSM   H11A11305   4.220   5.464  10.879  1.0323 -1.4397  0.4622
  110OSM   H11B11306   4.238   5.588  10.992  0.5121 -0.3346  1.0369
  110OSM      P11307   4.103   5.274  11.047 -0.2830 -0.2940 -0.1594
  110OSM    O1311308   4.008   5.254  11.163 -0.1259 -0.1469 -0.4514
  110OSM    O1411309   4.044   5.288  10.912  0.0131  0.2630  0.1044
  110OSM    O1111310   4.209   5.155  11.052  0.0807 -0.5572 -0.2862
  110OSM    O1211311   4.196   5.398  11.083  0.1511  0.0046 -0.1147
  110OSM    C1S11312   4.198   5.048  10.950 -0.1806 -0.0159  0.1951
  110OSM    H1S11313   4.093   5.033  10.917  0.1163  0.1670 -0.8583
  110OSM    H1T11314   4.223   4.952  11.001 -2.6636 -1.0474 -0.4579
  110OSM     NF11315   4.246   4.980  10.731 -0.4105 -0.0785  0.2254
  110OSM    HNF11316   4.305   4.901  10.717 -0.7477 -0.1832 -0.6506
  110OSM    C2S11317   4.295   5.070  10.832 -0.2113  0.4512  1.4696
  110OSM    H2S11318   4.279   5.174  10.797 -0.5697  0.4496  1.6237
  110OSM    C3S11319   4.442   5.055  10.872  0.1056  0.2927 -1.5396
  110OSM    H3S11320   4.459   4.951  10.907 -1.2615 -0.4670 -3.0771
  110OSM     O311321   4.483   5.135  10.987  0.2837  0.0236  0.2140
  110OSM    HO311322   4.399   5.163  11.023 -1.2450 -1.3104 -2.1604
  110OSM    C4S11323   4.524   5.065  10.751  0.6877 -0.5193 -0.0132
  110OSM    H4S11324   4.550   4.966  10.710 -0.6456 -1.9580  2.4881
  110OSM    C5S11325   4.581   5.177  10.697  0.4314 -0.4101 -0.3045
  110OSM    H5S11326   4.583   5.267  10.760  0.2723 -2.0208  2.0666
  110OSM    C6S11327   4.680   5.187  10.584 -0.6717 -0.4256  0.0698
  110OSM    H6S11328   4.783   5.217  10.612 -1.0405  0.9289  0.0047
  110OSM    H6T11329   4.647   5.270  10.518  1.4113 -1.0682 -1.8602
  110OSM    C7S11330   4.682   5.066  10.489  0.2415  0.2762 -0.7544
  110OSM    H7S11331   4.584   5.018  10.468  1.0832 -1.1255 -1.5928
  110OSM    H7T11332   4.741   4.994  10.550 -0.8204  1.3110  1.5391
  110OSM    C8S11333   4.750   5.103  10.353 -0.5574 -0.3306  0.3955
  110OSM    H8S11334   4.742   5.006  10.299 -0.2163 -0.0959 -0.0768
  110OSM    H8T11335   4.857   5.131  10.364  0.3554 -3.4062  0.0735
  110OSM    C9S11336   4.671   5.196  10.269  0.3181 -0.1184 -0.4886
  110OSM    H9S11337   4.683   5.297  10.312  2.8157 -1.5030  2.2268
  110OSM    H9T11338   4.563   5.170  10.274 -0.2739  2.1723 -0.9651
  110OSM   C10S11339   4.715   5.192  10.122 -0.5891  0.2679 -0.1710
  110OSM   H10S11340   4.695   5.088  10.088  0.9898  0.3638 -1.4402
  110OSM   H10T11341   4.824   5.210  10.109 -0.6897  2.3650  1.6455
  110OSM   C11S11342   4.624   5.290  10.044 -0.2293  0.1725 -0.0570
  110OSM   H11S11343   4.634   5.389  10.094  0.6761  0.1290 -0.1441
  110OSM   H11T11344   4.524   5.242  10.051  0.4020 -1.5345 -2.2701
  110OSM   C12S11345   4.655   5.291   9.894 -0.1748 -0.0029  0.0056
  110OSM   H12S11346   4.760   5.328   9.886 -0.7802  1.1472 -3.1476
  110OSM   H12T11347   4.596   5.364   9.835  0.6731 -0.7191 -1.7388
  110OSM   C13S11348   4.647   5.153   9.826  0.1669 -0.3860 -0.5630
  110OSM   H13S11349   4.544   5.118   9.848 -0.1692  1.3453  0.7785
  110OSM   H13T11350   4.708   5.081   9.884  1.2013  1.6048  0.8696
  110OSM   C14S11351   4.697   5.152   9.681  0.0254 -0.4725 -0.4752
  110OSM   H14S11352   4.689   5.052   9.633 -2.2972  0.5779 -2.3466
  110OSM   H14T11353   4.806   5.174   9.685  0.1845 -1.2785 -0.1397
  110OSM   C15S11354   4.627   5.257   9.593  0.7283  0.3359  0.2025
  110OSM   H15S11355   4.612   5.358   9.638 -2.0790 -0.5021  1.2386
  110OSM   H15T11356   4.527   5.217   9.568  1.3302 -0.1367 -1.5437
  110OSM   C16S11357   4.714   5.282   9.466 -0.2048 -0.2649 -0.0876
  110OSM   H16S11358   4.820   5.271   9.496 -0.7560  0.0510  2.0125
  110OSM   H16T11359   4.698   5.387   9.433  1.6215 -0.5657 -2.0101
  110OSM   C17S11360   4.685   5.179   9.353  0.2154 -0.3519 -0.5411
  110OSM   H17S11361   4.580   5.200   9.325  0.0664 -0.2221  0.1152
  110OSM   H17T11362   4.698   5.073   9.384 -0.8591 -0.9153 -1.9604
  110OSM   C18S11363   4.776   5.195   9.219 -0.7691  0.6618 -0.5191
  110OSM   H18S11364   4.739   5.120   9.146  1.5747 -1.0529  0.0011
  110OSM   H18T11365   4.885   5.181   9.232 -0.0468  3.5769 -2.9819
  110OSM   H18U11366   4.764   5.299   9.183 -1.0327  0.7260 -0.2567
  110OSM    C1F11367   4.140   5.004  10.662 -0.1648 -0.1754 -0.2278
  110OSM     OF11368   4.088   5.117  10.650 -0.3731  0.6275 -0.0154
  110OSM    C2F11369   4.085   4.877  10.608 -0.1010  0.2915  1.0254
  110OSM    H2F11370   4.057   4.813  10.695 -1.2085 -0.5656  0.0550
  110OSM    H2G11371   4.169   4.829  10.553  1.3584  2.3104  1.4303
  110OSM    C3F11372   3.969   4.897  10.512 -0.2429  0.3857  0.5430
  110OSM    H3F11373   3.999   4.976  10.440 -0.0378 -0.0692  0.1264
  110OSM    H3G11374   3.880   4.929  10.571  0.6459  0.0854  2.0689
  110OSM    C4F11375   3.930   4.773  10.428 -0.0864  0.2132  0.2058
  110OSM    H4F11376   3.828   4.791  10.388 -0.9642 -1.2278  1.7352
  110OSM    H4G11377   3.912   4.686  10.495 -1.3944  0.2399 -0.0997
  110OSM    C5F11378   4.029   4.746  10.312  0.7852 -0.6061 -0.3280
  110OSM    H5F11379   4.128   4.723  10.357  0.8073 -0.2979 -0.2167
  110OSM    H5G11380   4.030   4.829  10.238 -0.8055  0.4968  0.8390
  110OSM    C6F11381   3.981   4.633  10.219 -0.2672  0.3364  0.5350
  110OSM    H6F11382   3.901   4.658  10.146  0.8562 -1.1401 -1.2384
  110OSM    H6G11383   3.939   4.545  10.273 -1.2802  0.4301 -0.0842
  110OSM    C7F11384   4.098   4.588  10.135 -0.0563 -0.6379  0.2824
  110OSM    H7F11385   4.179   4.554  10.203 -0.6057  0.2221  1.3690
  110OSM    H7G11386   4.125   4.684  10.087 -1.2393  0.4653  1.7651
  110OSM    C8F11387   4.074   4.485  10.024  0.4608 -0.2843 -0.3498
  110OSM    H8F11388   3.999   4.532   9.957 -0.3659 -1.9901 -0.6406
  110OSM    H8G11389   4.034   4.391  10.067 -0.5842  1.4492  2.6244
  110OSM    C9F11390   4.210   4.474   9.961 -0.3270  0.1583  0.4392
  110OSM    H9F11391   4.293   4.467  10.033 -0.6419  0.4529  0.8317
  110OSM   C10F11392   4.248   4.510   9.834  0.2759 -0.4598 -0.1181
  110OSM   H10F11393   4.352   4.504   9.798  0.1588 -0.5913 -0.4284
  110OSM   C11F11394   4.152   4.566   9.730 -0.7238 -0.1092 -0.4108
  110OSM   H11F11395   4.177   4.674   9.727  2.8603 -0.9330 -2.3599
  110OSM   H11G11396   4.043   4.558   9.752 -0.2919 -0.3235  1.7400
  110OSM   C12F11397   4.168   4.512   9.587 -0.2939  0.4694  0.3628
  110OSM   H12F11398   4.159   4.402   9.593 -0.7130  0.4655 -0.3619
  110OSM   H12G11399   4.270   4.536   9.551 -1.3761  2.5901 -1.4479
  110OSM   C13F11400   4.062   4.558   9.490  0.4520  0.4020  0.0776
  110OSM   H13F11401   3.962   4.529   9.531  1.2420  0.6332  2.2553
  110OSM   H13G11402   4.074   4.503   9.395 -0.4363  0.2681  0.0384
  110OSM   C14F11403   4.063   4.710   9.480 -1.3004 -0.6595 -0.5960
  110OSM   H14F11404   4.169   4.743   9.473 -1.4816 -0.5085 -3.2215
  110OSM   H14G11405   4.017   4.751   9.572 -0.4870 -2.0297  0.4431
  110OSM   C15F11406   3.985   4.758   9.358 -0.2438 -0.1072 -0.3849
  110OSM   H15F11407   3.959   4.863   9.381 -0.5507 -0.5066  1.1097
  110OSM   H15G11408   3.885   4.709   9.356 -0.5181  0.1374  3.4518
  110OSM   C16F11409   4.064   4.750   9.224 -0.3245  0.1829 -0.9224
  110OSM   H16F11410   4.087   4.643   9.204  2.6533  0.4010  1.0986
  110OSM   H16G11411   4.161   4.799   9.246 -0.8987  1.8010 -1.8289
  110OSM   C17F11412   4.001   4.810   9.101 -0.3701  0.0235 -0.6358
  110OSM   H17F11413   4.005   4.920   9.113  2.9989 -0.2398  1.3606
  110OSM   H17G11414   3.899   4.779   9.070 -1.0681  1.2367  0.4178
  110OSM   C18F11415   4.085   4.779   8.979 -0.8101  0.8728  0.5777
  110OSM   H18F11416   4.032   4.789   8.882  0.1128  0.9690  0.0782
  110OSM   H18G11417   4.135   4.681   8.991  0.8665  1.5846 -0.3620
  110OSM   H18H11418   4.176   4.843   8.971  1.1467 -1.9221  0.0490
  111OSM      N11419   4.602   2.381  11.069 -0.0346 -0.2824  0.2358
  111OSM    C1511420   4.704   2.471  11.112 -0.1867  0.1143  0.3378
  111OSM   H15A11421   4.798   2.447  11.065 -0.3461  0.9530 -0.4230
  111OSM   H15B11422   4.727   2.460  11.217  1.9187  1.6437  0.0681
  111OSM   H15C11423   4.683   2.573  11.084  2.4630 -0.2444 -3.2122
  111OSM    C1411424   4.631   2.235  11.099 -0.0261 -0.3648  0.0568
  111OSM   H14A11425   4.724   2.197  11.057  0.5413  0.3467  0.6552
  111OSM   H14B11426   4.560   2.164  11.060 -0.3090 -0.4459  0.7108
  111OSM   H14C11427   4.653   2.225  11.204  0.0212  1.2534  0.2060
  111OSM    C1311428   4.469   2.407  11.129 -0.6576  0.5274  0.1087
  111OSM   H13A11429   4.404   2.323  11.108 -0.0462 -0.1653  0.9105
  111OSM   H13B11430   4.422   2.496  11.090 -0.8264 -0.0400 -1.0363
  111OSM   H13C11431   4.492   2.413  11.234 -1.0804 -0.3234  0.2595
  111OSM    C1211432   4.585   2.399  10.922 -0.3751  0.1193 -0.5435
  111OSM   H12A11433   4.501   2.339  10.890  0.3559 -0.2676 -1.7569
  111OSM   H12B11434   4.670   2.369  10.864 -0.8887 -0.7333 -0.8700
  111OSM    C1111435   4.559   2.551  10.873  0.3051 -0.3257  1.2064
  111OSM   H11A11436   4.476   2.604  10.924  0.8897  0.5315  1.2809
  111OSM   H11B11437   4.526   2.540  10.768 -1.2606  0.9930  1.5426
  111OSM      P11438   4.790   2.620  10.762  0.1305 -0.2242 -0.0718
  111OSM    O1311439   4.896   2.719  10.768  0.5322 -0.3624  0.3835
  111OSM    O1411440   4.833   2.478  10.765  0.2357 -0.4081 -0.0887
  111OSM    O1111441   4.706   2.652  10.628 -0.1055 -0.3280  0.2345
  111OSM    O1211442   4.682   2.634  10.872  0.1486  0.0505  0.2709
  111OSM    C1S11443   4.651   2.787  10.627 -0.3836 -0.4692 -0.1859
  111OSM    H1S11444   4.731   2.864  10.633 -0.2942 -0.6295  0.8055
  111OSM    H1T11445   4.587   2.808  10.716  1.2342 -2.4358  1.5087
  111OSM     NF11446   4.550   2.942  10.453  0.7391 -0.1432 -0.6843
  111OSM    HNF11447   4.452   2.947  10.436 -0.2525 -2.2406  3.5628
  111OSM    C2S11448   4.584   2.802  10.486  0.4127  0.0974  0.0541
  111OSM    H2S11449   4.654   2.753  10.414  0.2637  0.5200 -0.3718
  111OSM    C3S11450   4.459   2.710  10.468  0.3192  0.3871 -0.4049
  111OSM    H3S11451   4.384   2.739  10.545  0.0720  0.8588 -0.8290
  111OSM     O311452   4.495   2.572  10.505  0.2481  0.1431  0.2108
  111OSM    HO311453   4.568   2.591  10.565 -1.0595 -0.7271  2.1229
  111OSM    C4S11454   4.397   2.713  10.326  0.6529 -0.0512  1.0211
  111OSM    H4S11455   4.310   2.779  10.318  0.2770 -0.4222  1.8606
  111OSM    C5S11456   4.429   2.642  10.213  0.2188  0.3203 -0.7474
  111OSM    H5S11457   4.504   2.562  10.213 -0.1562 -0.0415  0.2817
  111OSM    C6S11458   4.352   2.666  10.089  0.2498  0.0334  0.3896
  111OSM    H6S11459   4.246   2.683  10.117 -0.3210 -0.1176 -1.5767
  111OSM    H6T11460   4.359   2.569  10.034 -1.7145 -0.5654  1.1347
  111OSM    C7S11461   4.392   2.778   9.998  0.4416  0.0063  0.2216
  111OSM    H7S11462   4.361   2.875  10.044  0.4365 -0.0576  0.3548
  111OSM    H7T11463   4.327   2.761   9.909 -0.1514 -0.6807  0.7729
  111OSM    C8S11464   4.545   2.798   9.968  0.2030  0.9376  1.0300
  111OSM    H8S11465   4.587   2.702   9.929 -1.3738  0.6322  0.0560
  111OSM    H8T11466   4.602   2.798  10.063  0.1116 -1.0058  1.1082
  111OSM    C9S11467   4.569   2.926   9.874 -0.4405  0.4145  0.3322
  111OSM    H9S11468   4.680   2.931   9.869 -0.1537 -2.5069  2.4503
  111OSM    H9T11469   4.526   3.024   9.903  0.2193  1.1521 -1.0957
  111OSM   C10S11470   4.500   2.902   9.734  0.1676 -0.8146 -0.3147
  111OSM   H10S11471   4.493   3.006   9.695 -0.6493  1.1889  4.7434
  111OSM   H10T11472   4.401   2.852   9.739 -0.5624  0.5693 -0.7444
  111OSM   C11S11473   4.583   2.824   9.623 -0.4704 -0.1442 -0.7742
  111OSM   H11S11474   4.606   2.718   9.648 -0.7885 -0.3175 -1.2096
  111OSM   H11T11475   4.679   2.880   9.614  0.2651 -1.0681  1.1519
  111OSM   C12S11476   4.520   2.836   9.487  0.1596 -0.4367 -0.3023
  111OSM   H12S11477   4.488   2.940   9.466  2.7037  0.5649  0.5657
  111OSM   H12T11478   4.431   2.771   9.495  0.1030 -0.4271 -0.8521
  111OSM   C13S11479   4.610   2.788   9.375 -0.4207 -0.0922 -0.1410
  111OSM   H13S11480   4.649   2.687   9.399 -0.5206 -0.3699 -1.1064
  111OSM   H13T11481   4.694   2.859   9.357  0.0506 -0.4085  0.7562
  111OSM   C14S11482   4.520   2.769   9.254 -0.4835 -0.3199 -0.0850
  111OSM   H14S11483   4.509   2.874   9.219  3.0605 -0.3624 -1.4483
  111OSM   H14T11484   4.418   2.731   9.279 -1.3109  0.4396 -2.1710
  111OSM   C15S11485   4.585   2.681   9.145 -0.1451 -0.2718  0.5285
  111OSM   H15S11486   4.585   2.577   9.185 -0.8599 -0.2420  0.6124
  111OSM   H15T11487   4.690   2.715   9.139  0.1905 -1.2116  1.0177
  111OSM   C16S11488   4.508   2.682   9.010 -0.1048 -0.3205 -0.0712
  111OSM   H16S11489   4.522   2.769   8.943 -0.1606 -1.0869 -1.0940
  111OSM   H16T11490   4.398   2.679   9.026 -0.5886 -1.1409 -3.1918
  111OSM   C17S11491   4.533   2.564   8.916 -0.1416 -0.4056  0.0446
  111OSM   H17S11492   4.499   2.476   8.974 -1.3210  0.3514  0.5188
  111OSM   H17T11493   4.643   2.558   8.902 -0.0819  0.9168 -0.1164
  111OSM   C18S11494   4.464   2.572   8.776  0.2802  0.2489  0.0206
  111OSM   H18S11495   4.509   2.494   8.710  0.1529 -0.6512  0.9956
  111OSM   H18T11496   4.471   2.673   8.730 -1.2081 -0.0884 -1.0113
  111OSM   H18U11497   4.356   2.546   8.781  0.8818 -2.4514 -0.1280
  111OSM    C1F11498   4.636   3.048  10.457 -0.6982 -0.5761  0.3400
  111OSM     OF11499   4.759   3.033  10.462 -0.4284  0.0330  0.3861
  111OSM    C2F11500   4.582   3.185  10.461 -0.2640  0.6019  0.2378
  111OSM    H2F11501   4.670   3.248  10.484 -1.1653  1.2825  1.8880
  111OSM    H2G11502   4.506   3.193  10.542  1.7971  0.5040  2.2183
  111OSM    C3F11503   4.524   3.223  10.322  0.5935  0.5969 -0.3509
  111OSM    H3F11504   4.493   3.330  10.329  1.7307  0.9855 -1.1689
  111OSM    H3G11505   4.438   3.157  10.298  1.8414 -0.7796 -1.1183
  111OSM    C4F11506   4.630   3.214  10.211 -0.1643  0.6541  0.0381
  111OSM    H4F11507   4.638   3.105  10.194  0.2021  0.5155  1.0771
  111OSM    H4G11508   4.728   3.239  10.258  1.0278 -3.9520  0.1998
  111OSM    C5F11509   4.592   3.278  10.077 -0.2031  0.4815  0.0904
  111OSM    H5F11510   4.565   3.385  10.083 -1.1540  0.2195  0.5702
  111OSM    H5G11511   4.510   3.209  10.046  0.0613  0.9372 -1.6736
  111OSM    C6F11512   4.708   3.262   9.978  0.0654  0.2229  0.0294
  111OSM    H6F11513   4.720   3.154   9.957  0.8559 -0.0066  1.6614
  111OSM    H6G11514   4.804   3.293  10.024 -0.3511 -1.3467  2.0051
  111OSM    C7F11515   4.689   3.339   9.847 -0.2271 -0.3066 -0.0188
  111OSM    H7F11516   4.671   3.447   9.867 -3.1831 -0.8483  0.4001
  111OSM    H7G11517   4.605   3.315   9.779  1.2946  0.1414 -2.1117
  111OSM    C8F11518   4.810   3.334   9.754  0.1985  0.1981 -1.0305
  111OSM    H8F11519   4.897   3.376   9.809  0.3711  1.1678 -2.0298
  111OSM    H8G11520   4.788   3.405   9.672 -2.5212 -0.6607 -1.0939
  111OSM    C9F11521   4.843   3.198   9.707  0.8134  1.4519 -0.4681
  111OSM    H9F11522   4.855   3.127   9.790 -0.5056  0.3322 -1.2164
  111OSM   C10F11523   4.865   3.155   9.581 -0.0702  0.2221 -0.6068
  111OSM   H10F11524   4.877   3.046   9.567 -0.5611  0.0104  0.5711
  111OSM   C11F11525   4.875   3.240   9.457  0.2398 -0.6844 -0.5393
  111OSM   H11F11526   4.972   3.287   9.429  0.2793  1.0599  2.3732
  111OSM   H11G11527   4.797   3.316   9.479 -0.5116 -1.2497 -1.2085
  111OSM   C12F11528   4.828   3.162   9.332 -0.1748  0.2818  0.8967
  111OSM   H12F11529   4.725   3.129   9.358 -1.0014  0.2425 -2.2321
  111OSM   H12G11530   4.896   3.074   9.323  1.4238  1.5985 -0.3229
  111OSM   C13F11531   4.827   3.254   9.204  0.1823 -0.1879 -0.1776
  111OSM   H13F11532   4.926   3.290   9.169 -0.0516  0.5200 -0.1240
  111OSM   H13G11533   4.786   3.353   9.235  2.4106  0.8451 -0.3717
  111OSM   C14F11534   4.751   3.200   9.083 -0.3161 -0.0016 -0.0225
  111OSM   H14F11535   4.765   3.275   9.003  2.0317  1.0640  1.3434
  111OSM   H14G11536   4.644   3.182   9.107 -0.3765  2.7264  1.9386
  111OSM   C15F11537   4.809   3.066   9.038 -0.4972 -0.0336 -0.5859
  111OSM   H15F11538   4.800   2.997   9.124  1.2181  1.1016  0.5100
  111OSM   H15G11539   4.919   3.074   9.028 -0.4742  0.7728  0.3451
  111OSM   C16F11540   4.733   3.004   8.914  1.1073 -0.2883 -0.5113
  111OSM   H16F11541   4.627   2.983   8.943  1.2133  0.4235  0.4161
  111OSM   H16G11542   4.784   2.908   8.892  0.1911 -0.7754 -0.5266
  111OSM   C17F11543   4.741   3.090   8.795  0.2473  0.1030 -0.3913
  111OSM   H17F11544   4.841   3.090   8.746  0.4860 -1.1981  0.0530
  111OSM   H17G11545   4.709   3.193   8.820 -2.2972  0.4927 -4.6836
  111OSM   C18F11546   4.627   3.060   8.703  0.0468 -0.3368  0.6087
  111OSM   H18F11547   4.533   3.098   8.748 -0.5426 -0.4404 -0.5351
  111OSM   H18G11548   4.628   2.955   8.666  4.1679  0.2563 -1.2707
  111OSM   H18H11549   4.638   3.122   8.612  1.0283 -1.9407 -0.3965
  112OSM      N11550   3.915   0.985  11.128 -0.1409 -0.3635  0.3916
  112OSM    C1511551   3.857   1.111  11.066  0.3782  0.0425 -0.0055
  112OSM   H15A11552   3.791   1.166  11.131 -0.9005  0.3545 -1.5269
  112OSM   H15B11553   3.800   1.066  10.986  2.2424 -2.7605  0.1575
  112OSM   H15C11554   3.939   1.175  11.036  1.8597 -1.0695  1.6129
  112OSM    C1411555   4.001   1.014  11.240 -0.5955  0.0717  0.1871
  112OSM   H14A11556   3.949   1.059  11.323  0.2700 -0.9265  1.2862
  112OSM   H14B11557   4.084   1.079  11.214  0.0137 -1.3259 -1.4516
  112OSM   H14C11558   4.041   0.918  11.268  0.7908 -0.5477 -3.5376
  112OSM    C1311559   3.792   0.912  11.168 -0.6856 -0.0220  0.3079
  112OSM   H13A11560   3.733   0.971  11.236 -1.8392 -1.0224  0.1900
  112OSM   H13B11561   3.821   0.821  11.219  0.9152 -0.3952 -1.1831
  112OSM   H13C11562   3.731   0.884  11.084 -2.0707  0.0003  1.3042
  112OSM    C1211563   3.998   0.907  11.028  0.1802  0.0184  0.3017
  112OSM   H12A11564   4.037   0.818  11.075 -0.9149 -0.5203  0.1995
  112OSM   H12B11565   4.087   0.963  11.003  0.9713 -2.4320 -2.7312
  112OSM    C1111566   3.941   0.848  10.889  0.5993  0.3411 -0.3266
  112OSM   H11A11567   3.862   0.773  10.910  1.6950  0.0995  3.2303
  112OSM   H11B11568   4.019   0.793  10.832 -0.3057 -1.7364  0.3808
  112OSM      P11569   3.975   1.063  10.743  0.1301  0.2788  0.1035
  112OSM    O1311570   3.896   1.180  10.706 -0.5061  0.5157  0.2870
  112OSM    O1411571   4.091   1.092  10.828 -0.7157 -0.2978 -0.4349
  112OSM    O1111572   4.021   0.981  10.616  0.1084  0.2846  0.2200
  112OSM    O1211573   3.887   0.953  10.804  0.0974  0.0637 -0.7229
  112OSM    C1S11574   3.933   0.919  10.520 -0.4133  0.3972 -0.4933
  112OSM    H1S11575   3.879   0.999  10.464 -0.4224  1.2158  0.6851
  112OSM    H1T11576   3.873   0.845  10.577 -1.8706  1.0073 -1.1998
  112OSM     NF11577   3.921   0.787  10.312  0.1044 -0.1302 -0.3479
  112OSM    HNF11578   3.911   0.688  10.309 -0.3903 -0.0995  0.0048
  112OSM    C2S11579   4.013   0.841  10.413 -0.7567  0.3398  0.8992
  112OSM    H2S11580   4.085   0.910  10.363  1.6438 -2.7870 -0.1431
  112OSM    C3S11581   4.099   0.731  10.484 -0.3104 -0.4057  0.4411
  112OSM    H3S11582   4.031   0.666  10.541 -0.5571 -2.7087 -2.3677
  112OSM     O311583   4.191   0.784  10.574 -0.3936 -0.5759  0.2829
  112OSM    HO311584   4.148   0.869  10.581  1.0787  0.2593 -0.7122
  112OSM    C4S11585   4.176   0.662  10.385 -0.5905  0.6964  0.1481
  112OSM    H4S11586   4.241   0.724  10.322  0.8077  2.1440  2.8905
  112OSM    C5S11587   4.153   0.531  10.376 -0.6312 -0.3841 -0.4614
  112OSM    H5S11588   4.084   0.480  10.445 -0.4591  2.4831  1.9488
  112OSM    C6S11589   4.225   0.455  10.275 -0.6868 -0.2400 -0.1643
  112OSM    H6S11590   4.222   0.349  10.306  2.9514 -0.2276  0.5102
  112OSM    H6T11591   4.334   0.479  10.280 -0.2908 -2.4422  2.4253
  112OSM    C7S11592   4.162   0.458  10.136  0.1492  0.3332 -0.1257
  112OSM    H7S11593   4.163   0.562  10.096  0.6943  0.2808 -0.2540
  112OSM    H7T11594   4.053   0.457  10.158  0.6695  1.7359  2.7684
  112OSM    C8S11595   4.217   0.357  10.041 -0.3730  0.1495 -0.4020
  112OSM    H8S11596   4.221   0.257  10.090 -0.9145 -0.5471 -1.7362
  112OSM    H8T11597   4.323   0.370  10.011 -0.5518 -1.6973 -2.0125
  112OSM    C9S11598   4.146   0.366   9.900 -0.4118  1.0468 -0.3232
  112OSM    H9S11599   4.149   0.471   9.864 -1.6554  1.5304  0.9337
  112OSM    H9T11600   4.040   0.332   9.904 -0.5573  1.5866  0.8303
  112OSM   C10S11601   4.217   0.279   9.792 -0.4185 -0.1843  0.5330
  112OSM   H10S11602   4.209   0.170   9.806 -0.7923 -0.2479 -0.1447
  112OSM   H10T11603   4.327   0.296   9.799 -0.3224  0.3325 -1.8153
  112OSM   C11S11604   4.174   0.290   9.644  0.1926 -0.5996 -0.1836
  112OSM   H11S11605   4.159   0.399   9.628  0.2936 -0.7072 -1.0793
  112OSM   H11T11606   4.074   0.243   9.651 -0.0598 -0.1321 -0.5978
  112OSM   C12S11607   4.277   0.228   9.553 -0.0018 -0.2538  0.3474
  112OSM   H12S11608   4.306   0.123   9.577  1.4097  0.4327  1.7416
  112OSM   H12T11609   4.365   0.296   9.558 -1.7465  2.0931 -0.3199
  112OSM   C13S11610   4.247   0.239   9.410  0.0291 -0.0044  0.0526
  112OSM   H13S11611   4.169   0.318   9.403  0.5356  0.5895  0.9752
  112OSM   H13T11612   4.199   0.144   9.376  2.4326 -1.7607  1.4066
  112OSM   C14S11613   4.360   0.283   9.317 -0.1745  0.6662  1.2490
  112OSM   H14S11614   4.444   0.210   9.322  0.0760  0.6604 -2.1470
  112OSM   H14T11615   4.392   0.385   9.345 -1.8797  1.6090 -0.1729
  112OSM   C15S11616   4.313   0.271   9.172 -0.4003  0.2038 -0.0221
  112OSM   H15S11617   4.214   0.322   9.171  0.0346  1.1050  1.3695
  112OSM   H15T11618   4.313   0.164   9.142  0.1468 -0.1508  1.2389
  112OSM   C16S11619   4.414   0.347   9.081 -0.6738  0.1448  1.1249
  112OSM   H16S11620   4.513   0.313   9.119 -0.2473  2.2659  2.0211
  112OSM   H16T11621   4.409   0.456   9.105  0.6486  0.4639  0.0427
  112OSM   C17S11622   4.405   0.298   8.933 -0.0874 -0.0412 -0.3304
  112OSM   H17S11623   4.299   0.303   8.899  0.3493 -1.5201 -1.9510
  112OSM   H17T11624   4.424   0.189   8.932 -3.2758 -0.6611 -0.3132
  112OSM   C18S11625   4.507   0.369   8.846 -0.9889  0.1103  0.1693
  112OSM   H18S11626   4.467   0.363   8.743  0.7778  1.5359 -0.6191
  112OSM   H18T11627   4.604   0.315   8.850 -1.7470 -1.3356 -0.7010
  112OSM   H18U11628   4.523   0.471   8.886 -1.9657  0.4946 -0.4092
  112OSM    C1F11629   3.863   0.865  10.215 -0.3462 -0.4444  0.4394
  112OSM     OF11630   3.863   0.985  10.229  0.1475 -0.8247  0.2818
  112OSM    C2F11631   3.828   0.799  10.085 -0.9053  0.0319 -0.0893
  112OSM    H2F11632   3.768   0.712  10.120  2.2660 -2.2257  0.0443
  112OSM    H2G11633   3.923   0.763  10.040  0.1461  0.0279  2.0561
  112OSM    C3F11634   3.757   0.878   9.980  0.7018 -0.1745 -0.1789
  112OSM    H3F11635   3.815   0.964   9.940  0.9225  0.1083  0.7223
  112OSM    H3G11636   3.662   0.918  10.022  1.5545  1.9849 -0.2170
  112OSM    C4F11637   3.735   0.791   9.857 -0.1761 -0.0985 -0.4999
  112OSM    H4F11638   3.661   0.854   9.804 -1.0656 -0.8651 -0.1863
  112OSM    H4G11639   3.696   0.689   9.879 -0.2015 -0.1416 -0.7448
  112OSM    C5F11640   3.859   0.800   9.767 -0.5009  0.1510 -0.7286
  112OSM    H5F11641   3.949   0.752   9.811 -1.3113 -1.3112 -0.5925
  112OSM    H5G11642   3.906   0.898   9.748  0.7185 -0.2576  0.1245
  112OSM    C6F11643   3.830   0.735   9.631 -0.2939  0.0780  0.4669
  112OSM    H6F11644   3.758   0.812   9.596  0.4436  0.6332  0.1641
  112OSM    H6G11645   3.773   0.640   9.641  0.1933 -0.2621  0.0751
  112OSM    C7F11646   3.956   0.728   9.542 -0.0685 -0.5228 -0.7061
  112OSM    H7F11647   4.024   0.684   9.619 -1.5282 -2.0026 -0.2274
  112OSM    H7G11648   3.973   0.835   9.517 -0.6997 -0.3545 -0.4326
  112OSM    C8F11649   3.930   0.641   9.421 -0.5445 -0.0884 -0.2185
  112OSM    H8F11650   3.869   0.552   9.448 -0.5252 -0.1201 -0.2777
  112OSM    H8G11651   4.032   0.604   9.396 -0.4996 -0.7103  0.8482
  112OSM    C9F11652   3.874   0.718   9.301 -0.2392  0.1344  0.7743
  112OSM    H9F11653   3.793   0.784   9.334  1.3369  2.4259  0.1757
  112OSM   C10F11654   3.911   0.718   9.172 -0.7906  0.4138 -0.0072
  112OSM   H10F11655   3.851   0.774   9.099  1.3070  0.3461 -1.8457
  112OSM   C11F11656   4.017   0.632   9.105  0.0853 -0.7661  0.2118
  112OSM   H11F11657   4.029   0.538   9.164  2.1156 -0.5530  0.1655
  112OSM   H11G11658   4.109   0.692   9.114  0.6613 -1.8125  1.5615
  112OSM   C12F11659   3.991   0.607   8.957 -0.6984 -0.1116  0.2664
  112OSM   H12F11660   3.973   0.706   8.910  2.1215 -0.0468 -0.8156
  112OSM   H12G11661   3.904   0.539   8.954 -2.3532  1.9823 -0.4357
  112OSM   C13F11662   4.111   0.525   8.894  0.1100  0.6419  0.6444
  112OSM   H13F11663   4.129   0.425   8.938  0.4413 -0.0401 -1.0009
  112OSM   H13G11664   4.202   0.586   8.913  0.7481  0.0189 -0.4104
  112OSM   C14F11665   4.100   0.502   8.743 -0.2347 -0.1719  0.4818
  112OSM   H14F11666   4.006   0.457   8.704 -0.9166  1.5611  0.1099
  112OSM   H14G11667   4.171   0.422   8.712  0.1078 -0.6764  2.5036
  112OSM   C15F11668   4.138   0.625   8.652 -0.3458 -0.2761  0.6166
  112OSM   H15F11669   4.248   0.645   8.653 -0.1745 -1.2249  0.8691
  112OSM   H15G11670   4.083   0.715   8.685  0.2181  0.6121 -0.7797
  112OSM   C16F11671   4.103   0.597   8.506 -0.0390 -0.3423  0.7384
  112OSM   H16F11672   3.995   0.576   8.488  1.0523 -3.8612 -2.2703
  112OSM   H16G11673   4.153   0.502   8.476 -1.3110 -0.8579  0.2127
  112OSM   C17F11674   4.151   0.706   8.405 -0.8896 -0.5402  0.2945
  112OSM   H17F11675   4.261   0.704   8.417 -0.7806  0.8638 -0.4072
  112OSM   H17G11676   4.118   0.805   8.443 -1.5490 -0.8522  0.5465
  112OSM   C18F11677   4.108   0.696   8.250  0.2676  0.0930  0.2889
  112OSM   H18F11678   4.157   0.608   8.202 -1.9178 -1.8368  1.4970
  112OSM   H18G11679   4.131   0.793   8.202  2.5796 -1.0915 -1.1096
  112OSM   H18H11680   3.999   0.678   8.256  0.2672 -0.0348 -0.1515
  113OSM      N11681   4.476   6.564  11.077  0.2723  0.3154 -0.0491
  113OSM    C1511682   4.433   6.684  11.157  0.2246  0.1055  0.1962
  113OSM   H15A11683   4.401   6.770  11.099  0.8203  1.2022  1.4522
  113OSM   H15B11684   4.516   6.721  11.215  0.9017 -0.6657 -0.2746
  113OSM   H15C11685   4.362   6.655  11.233  1.4591  1.0739  1.7295
  113OSM    C1411686   4.531   6.465  11.171  0.2397 -0.3140  0.3410
  113OSM   H14A11687   4.545   6.370  11.122  2.1395 -1.1700  2.4379
  113OSM   H14B11688   4.453   6.448  11.243 -2.5533 -0.5649 -2.6542
  113OSM   H14C11689   4.620   6.496  11.225 -0.4348  2.1445  0.0858
  113OSM    C1311690   4.357   6.521  11.007 -0.2862 -0.1739  1.2885
  113OSM   H13A11691   4.282   6.469  11.065 -1.3137 -1.8099 -1.3874
  113OSM   H13B11692   4.383   6.437  10.944 -0.9946  0.7473 -0.2787
  113OSM   H13C11693   4.314   6.595  10.940  0.0912 -0.5692  0.6065
  113OSM    C1211694   4.589   6.601  10.977  1.2334 -0.5650 -0.0220
  113OSM   H12A11695   4.623   6.512  10.928 -0.4020 -1.3365  0.1959
  113OSM   H12B11696   4.661   6.661  11.031 -1.6990  2.5105  0.6494
  113OSM    C1111697   4.548   6.673  10.850  0.4372  0.1483  0.1068
  113OSM   H11A11698   4.492   6.600  10.789 -2.1328 -0.2199  2.7614
  113OSM   H11B11699   4.640   6.704  10.797  0.4167 -0.5008 -0.3042
  113OSM      P11700   4.519   6.930  10.916 -0.0748 -0.0954 -0.2352
  113OSM    O1311701   4.419   7.006  10.998  0.4270 -0.8187  0.0612
  113OSM    O1411702   4.658   6.907  10.965  0.4372 -0.4103  0.6100
  113OSM    O1111703   4.524   7.001  10.776  0.4645  0.2909  0.1968
  113OSM    O1211704   4.462   6.787  10.884  0.3511 -0.6927  0.3040
  113OSM    C1S11705   4.628   6.977  10.680  0.0821 -0.2261 -0.3504
  113OSM    H1S11706   4.718   6.938  10.732 -0.2202  0.7184  0.9100
  113OSM    H1T11707   4.658   7.080  10.652  0.8256  0.1983  1.8981
  113OSM     NF11708   4.696   6.838  10.473 -0.3794  0.1391 -0.5399
  113OSM    HNF11709   4.689   6.860  10.376  0.8238  0.4280 -0.5770
  113OSM    C2S11710   4.588   6.887  10.553 -0.4676 -0.7390  0.1465
  113OSM    H2S11711   4.543   6.794  10.593 -2.1180  0.3159  0.8400
  113OSM    C3S11712   4.485   6.960  10.466 -0.1462 -0.6815  0.0517
  113OSM    H3S11713   4.532   7.053  10.429 -0.1322 -0.8459 -0.3469
  113OSM     O311714   4.376   7.004  10.548 -0.1089  0.3223  0.0218
  113OSM    HO311715   4.410   6.997  10.638  0.1411  3.3185  0.2082
  113OSM    C4S11716   4.440   6.873  10.355  0.7605 -0.5274 -0.7102
  113OSM    H4S11717   4.375   6.790  10.385 -1.1959  0.5758 -1.7696
  113OSM    C5S11718   4.452   6.903  10.226  0.5703 -0.3677 -0.0052
  113OSM    H5S11719   4.500   6.999  10.201  1.5640 -1.1008 -0.9522
  113OSM    C6S11720   4.402   6.810  10.118 -0.2576 -0.1079 -0.7818
  113OSM    H6S11721   4.328   6.862  10.053 -1.8929 -0.1554  1.0222
  113OSM    H6T11722   4.352   6.716  10.149 -2.3095  1.5841  1.1964
  113OSM    C7S11723   4.522   6.782  10.020 -0.3111  0.5221  0.1390
  113OSM    H7S11724   4.596   6.735  10.088 -1.3281 -0.5402  0.5271
  113OSM    H7T11725   4.559   6.874   9.970 -0.5354  0.0685 -0.8849
  113OSM    C8S11726   4.487   6.675   9.909  0.0093  0.5326 -0.2771
  113OSM    H8S11727   4.397   6.712   9.855  0.3975  0.8852 -0.6918
  113OSM    H8T11728   4.473   6.582   9.968 -1.9945 -0.2664 -1.9498
  113OSM    C9S11729   4.607   6.633   9.824 -0.2327  0.1483 -0.1201
  113OSM    H9S11730   4.574   6.544   9.765 -1.9444 -0.9482  2.4307
  113OSM    H9T11731   4.688   6.595   9.890 -0.4831 -0.1341  0.0281
  113OSM   C10S11732   4.664   6.735   9.723  0.1441 -0.1107 -0.3028
  113OSM   H10S11733   4.765   6.706   9.687  0.4913 -0.6025  1.0718
  113OSM   H10T11734   4.682   6.823   9.789 -1.1769 -2.1796  2.8769
  113OSM   C11S11735   4.577   6.772   9.608 -0.2512 -0.5452  0.2931
  113OSM   H11S11736   4.617   6.858   9.551  1.2417 -3.5326 -3.4085
  113OSM   H11T11737   4.474   6.804   9.635 -0.6815 -1.1409 -0.6121
  113OSM   C12S11738   4.554   6.649   9.508  0.6689  0.7317 -0.1762
  113OSM   H12S11739   4.518   6.556   9.556  0.9949 -0.7056 -2.6487
  113OSM   H12T11740   4.648   6.626   9.453  0.2787 -0.8030 -0.2083
  113OSM   C13S11741   4.451   6.691   9.402  0.4551 -0.7188  0.3451
  113OSM   H13S11742   4.485   6.789   9.361  1.3513 -0.9627  0.5038
  113OSM   H13T11743   4.356   6.721   9.452 -0.4342  1.8711 -2.6675
  113OSM   C14S11744   4.426   6.586   9.293  0.8472  0.5437 -0.3775
  113OSM   H14S11745   4.415   6.486   9.341  1.1724  1.0234  0.7205
  113OSM   H14T11746   4.521   6.574   9.237  0.4678 -0.9280 -0.7308
  113OSM   C15S11747   4.300   6.624   9.210  0.4352  0.3147 -0.7298
  113OSM   H15S11748   4.294   6.735   9.210  0.3396  0.3229  0.3577
  113OSM   H15T11749   4.212   6.576   9.258  1.5659  0.4606  1.5927
  113OSM   C16S11750   4.317   6.567   9.065  0.0854  0.7048 -0.0042
  113OSM   H16S11751   4.368   6.470   9.086  0.5311  0.7414 -0.9222
  113OSM   H16T11752   4.394   6.628   9.014  0.8761 -1.4222 -1.4521
  113OSM   C17S11753   4.179   6.550   9.000  0.2854  0.6062 -0.1795
  113OSM   H17S11754   4.114   6.640   9.007 -0.9455 -0.2894  0.2155
  113OSM   H17T11755   4.123   6.468   9.050  0.3042  1.8781  1.9666
  113OSM   C18S11756   4.176   6.521   8.846  0.0940  0.4262  0.0598
  113OSM   H18S11757   4.219   6.421   8.822 -0.9337  0.7417 -3.4518
  113OSM   H18T11758   4.241   6.593   8.791  2.7594 -2.5829 -0.9083
  113OSM   H18U11759   4.074   6.520   8.801  0.0883  0.6644  0.0693
  113OSM    C1F11760   4.797   6.758  10.512 -0.0323 -0.0316  0.4456
  113OSM     OF11761   4.807   6.729  10.630 -0.0609  0.2979  0.5508
  113OSM    C2F11762   4.891   6.707  10.412  0.8398 -0.1332 -0.0220
  113OSM    H2F11763   4.958   6.637  10.466  1.2966  0.6340  0.4176
  113OSM    H2G11764   4.954   6.790  10.373 -1.2247  1.7158  0.4391
  113OSM    C3F11765   4.823   6.634  10.285 -0.0705 -0.0616  0.0884
  113OSM    H3F11766   4.905   6.615  10.212  0.7964 -1.6434  1.4475
  113OSM    H3G11767   4.752   6.696  10.226 -0.3421  0.2475  0.7390
  113OSM    C4F11768   4.761   6.499  10.321 -0.1734 -0.0248 -0.2817
  113OSM    H4F11769   4.682   6.531  10.392 -1.5060  0.8174 -2.1032
  113OSM    H4G11770   4.842   6.437  10.364  0.5110  1.4286  0.5702
  113OSM    C5F11771   4.696   6.445  10.191  0.5359  0.5325  0.0746
  113OSM    H5F11772   4.765   6.441  10.104 -1.1969  1.4642 -1.3705
  113OSM    H5G11773   4.617   6.514  10.155  1.3736  0.6334 -1.6404
  113OSM    C6F11774   4.650   6.300  10.208 -0.2169 -0.1466 -0.3112
  113OSM    H6F11775   4.567   6.303  10.282  0.7216  0.0620  0.7492
  113OSM    H6G11776   4.742   6.252  10.249 -1.0355 -1.4599  0.0382
  113OSM    C7F11777   4.624   6.228  10.079 -0.3634 -0.7250  0.5431
  113OSM    H7F11778   4.696   6.252   9.998  0.5791 -2.7055  0.7711
  113OSM    H7G11779   4.528   6.262  10.035  0.0413  1.4852  1.3030
  113OSM    C8F11780   4.608   6.076  10.088 -0.1087 -0.0667  0.4331
  113OSM    H8F11781   4.706   6.038  10.124  0.2020  0.4868  0.1878
  113OSM    H8G11782   4.587   6.043   9.984 -1.5343 -0.4855  0.8451
  113OSM    C9F11783   4.506   6.034  10.189 -0.6227  1.0507  0.3740
  113OSM    H9F11784   4.532   6.040  10.295  0.8712  0.4190  0.0509
  113OSM   C10F11785   4.382   5.984  10.157  0.1610 -0.3498  0.1210
  113OSM   H10F11786   4.312   5.960  10.239  0.8310  1.9377  1.3979
  113OSM   C11F11787   4.329   5.967  10.017 -0.0053  0.0698  0.2752
  113OSM   H11F11788   4.400   6.004   9.940 -0.4671  2.6357  1.0419
  113OSM   H11G11789   4.226   6.004   9.997 -0.6248 -1.7556 -0.0299
  113OSM   C12F11790   4.328   5.816   9.996  0.9324  0.3758 -0.7540
  113OSM   H12F11791   4.263   5.764  10.069  4.1491 -2.5899  0.1316
  113OSM   H12G11792   4.426   5.764  10.000  0.2012 -0.9223  3.3153
  113OSM   C13F11793   4.292   5.779   9.856  0.1476  1.2620 -0.4895
  113OSM   H13F11794   4.364   5.811   9.779 -2.4556  0.6387 -3.2771
  113OSM   H13G11795   4.198   5.831   9.829 -0.0258 -0.3661 -3.1202
  113OSM   C14F11796   4.277   5.630   9.835 -0.4141 -0.5626  0.2387
  113OSM   H14F11797   4.236   5.576   9.923 -2.3970 -0.6298 -0.6994
  113OSM   H14G11798   4.374   5.580   9.815  0.0629  0.6043 -0.4141
  113OSM   C15F11799   4.204   5.590   9.709 -1.0399 -0.2226 -0.0061
  113OSM   H15F11800   4.096   5.616   9.716 -0.4282  1.9987  1.8817
  113OSM   H15G11801   4.209   5.479   9.703 -1.9268 -0.4156  2.3099
  113OSM   C16F11802   4.275   5.639   9.580 -0.7194  0.2240  0.3851
  113OSM   H16F11803   4.380   5.674   9.595 -0.8904  0.7632  0.3536
  113OSM   H16G11804   4.218   5.732   9.556 -1.6485 -0.1529  1.1416
  113OSM   C17F11805   4.259   5.537   9.463 -0.2255 -0.3096 -0.5432
  113OSM   H17F11806   4.151   5.519   9.449  0.1003  0.2297 -4.0737
  113OSM   H17G11807   4.315   5.448   9.500  1.0474  0.4772 -0.5268
  113OSM   C18F11808   4.314   5.584   9.332  0.2444 -0.3094  0.0868
  113OSM   H18F11809   4.229   5.597   9.262  0.9846 -0.3384 -0.8259
  113OSM   H18G11810   4.359   5.496   9.283 -2.1602 -1.2489 -0.5143
  113OSM   H18H11811   4.376   5.675   9.348  0.5432 -0.9454  2.7251
  114OSM      N11812   6.396   5.589  11.578  0.2864  0.3443 -0.1282
  114OSM    C1511813   6.326   5.653  11.693  0.0740 -0.1821  0.3548
  114OSM   H15A11814   6.291   5.582  11.766 -0.2759 -0.2400  0.1293
  114OSM   H15B11815   6.258   5.724  11.649 -0.0538 -0.6629 -0.2256
  114OSM   H15C11816   6.396   5.715  11.748  1.1769 -0.1664 -1.0458
  114OSM    C1411817   6.455   5.694  11.487  0.4591 -0.9115  0.6336
  114OSM   H14A11818   6.488   5.781  11.543 -1.4005  1.2062 -1.4525
  114OSM   H14B11819   6.381   5.738  11.422  1.7654  0.8389  0.2953
  114OSM   H14C11820   6.536   5.660  11.425 -2.2670 -0.7797 -3.1408
  114OSM    C1311821   6.513   5.510  11.627 -0.0453 -0.2784 -0.3702
  114OSM   H13A11822   6.584   5.512  11.546 -0.7549  3.1591 -0.9964
  114OSM   H13B11823   6.497   5.405  11.644  0.4782 -0.5323 -1.4119
  114OSM   H13C11824   6.550   5.551  11.720  2.1113 -1.4771 -0.6737
  114OSM    C1211825   6.300   5.499  11.500 -0.4475  0.5560 -0.5779
  114OSM   H12A11826   6.247   5.429  11.563  1.4630 -1.3867 -1.0253
  114OSM   H12B11827   6.348   5.433  11.429 -1.5137  1.1255 -1.8421
  114OSM    C1111828   6.198   5.577  11.409 -0.2835  0.1562  0.0364
  114OSM   H11A11829   6.139   5.498  11.358  1.6828  0.0481 -2.2010
  114OSM   H11B11830   6.252   5.640  11.335 -3.0728  1.7630 -0.6966
  114OSM      P11831   5.984   5.616  11.559  0.1091 -0.2971  0.0590
  114OSM    O1311832   6.017   5.491  11.633  0.7800 -0.3183  0.1730
  114OSM    O1411833   5.917   5.727  11.639 -0.0966  0.3641 -0.2324
  114OSM    O1111834   5.895   5.580  11.425  0.2874  0.0653  0.2292
  114OSM    O1211835   6.118   5.666  11.489 -0.3914  0.5924 -0.3191
  114OSM    C1S11836   5.883   5.683  11.322  0.3511  0.0118 -0.4289
  114OSM    H1S11837   5.976   5.744  11.316  1.4671 -1.5873  0.3855
  114OSM    H1T11838   5.797   5.750  11.343 -0.8516 -0.6109 -3.1768
  114OSM     NF11839   5.886   5.726  11.077 -0.4670 -0.4554  0.7447
  114OSM    HNF11840   5.804   5.778  11.052  1.3634  1.7762 -0.8449
  114OSM    C2S11841   5.857   5.627  11.178  0.6139  0.9497  0.6073
  114OSM    H2S11842   5.934   5.548  11.167 -1.6817 -0.9474 -2.3839
  114OSM    C3S11843   5.714   5.568  11.162 -0.4879  0.1963 -0.2382
  114OSM    H3S11844   5.631   5.638  11.188 -0.6877 -0.1091 -0.0558
  114OSM     O311845   5.683   5.460  11.252  0.2893 -0.6525 -0.0081
  114OSM    HO311846   5.757   5.452  11.313 -0.5203 -0.2941  1.0481
  114OSM    C4S11847   5.689   5.513  11.025 -0.1255 -0.2957 -0.0895
  114OSM    H4S11848   5.743   5.418  11.013 -1.7277 -0.8935 -2.9246
  114OSM    C5S11849   5.612   5.556  10.921  0.3067  0.7034  0.0379
  114OSM    H5S11850   5.561   5.652  10.909  1.1563  1.0848 -0.6034
  114OSM    C6S11851   5.625   5.475  10.792 -0.0849 -0.1439  0.3501
  114OSM    H6S11852   5.529   5.469  10.736 -0.5845 -1.3761  1.3229
  114OSM    H6T11853   5.647   5.367  10.808  2.2372  0.0634 -1.3512
  114OSM    C7S11854   5.727   5.537  10.693 -0.4218 -0.7665  0.0360
  114OSM    H7S11855   5.737   5.468  10.607 -1.7951 -1.9576  0.8061
  114OSM    H7T11856   5.821   5.542  10.752 -0.5020 -2.4102  0.3291
  114OSM    C8S11857   5.704   5.680  10.645  0.4363  0.2033 -0.7681
  114OSM    H8S11858   5.799   5.721  10.604  2.3414 -1.8528  1.4399
  114OSM    H8T11859   5.678   5.738  10.736 -1.1012 -0.8899 -0.4918
  114OSM    C9S11860   5.581   5.687  10.546  0.1496 -0.0241 -0.6585
  114OSM    H9S11861   5.565   5.793  10.517 -0.8447 -0.2313 -0.8719
  114OSM    H9T11862   5.493   5.644  10.598  0.0166  0.2814 -0.6283
  114OSM   C10S11863   5.601   5.600  10.423  0.2062 -0.0468 -0.3810
  114OSM   H10S11864   5.597   5.491  10.447  0.5108  0.4960  2.3003
  114OSM   H10T11865   5.703   5.605  10.379 -0.7587  0.7508 -2.6017
  114OSM   C11S11866   5.503   5.632  10.315 -0.0222 -0.1851  0.8717
  114OSM   H11S11867   5.480   5.739  10.334 -1.1098 -0.2362 -0.0542
  114OSM   H11T11868   5.409   5.574  10.330 -0.2967 -0.9826 -3.1265
  114OSM   C12S11869   5.562   5.613  10.169 -1.0430  0.2107  0.6045
  114OSM   H12S11870   5.613   5.515  10.157  0.2234  0.6682  2.0861
  114OSM   H12T11871   5.639   5.693  10.174 -0.3941 -0.4138  0.7356
  114OSM   C13S11872   5.461   5.655  10.057  1.0004 -0.2892 -0.1738
  114OSM   H13S11873   5.434   5.763  10.058 -0.1709 -0.5657 -1.6580
  114OSM   H13T11874   5.364   5.602  10.067 -0.3028  2.0993  0.1617
  114OSM   C14S11875   5.512   5.620   9.910 -0.3824 -0.0175  0.4260
  114OSM   H14S11876   5.427   5.639   9.841  1.1833  0.3575 -1.4233
  114OSM   H14T11877   5.534   5.511   9.912 -0.8345 -0.1044  1.1458
  114OSM   C15S11878   5.631   5.691   9.859 -0.6574 -0.2620  0.2380
  114OSM   H15S11879   5.711   5.683   9.935 -2.4696  1.3214  2.3885
  114OSM   H15T11880   5.611   5.801   9.863 -0.6832 -0.2957  1.0225
  114OSM   C16S11881   5.680   5.638   9.721  0.5346  0.3369  0.1677
  114OSM   H16S11882   5.687   5.528   9.730 -1.6230  0.2412  1.0208
  114OSM   H16T11883   5.779   5.676   9.690  1.2473 -1.1717  0.5812
  114OSM   C17S11884   5.569   5.638   9.617 -0.2461 -0.0099 -0.2244
  114OSM   H17S11885   5.536   5.744   9.605 -0.5239 -0.0203  0.4435
  114OSM   H17T11886   5.481   5.574   9.639 -0.1735 -0.1772 -0.4218
  114OSM   C18S11887   5.631   5.582   9.492  0.1089 -0.5054  0.0174
  114OSM   H18S11888   5.546   5.565   9.423 -1.4486 -0.2442  1.8082
  114OSM   H18T11889   5.675   5.481   9.504 -1.2279 -1.0198  0.8416
  114OSM   H18U11890   5.710   5.652   9.459 -1.6230  2.2013  1.3416
  114OSM    C1F11891   6.009   5.773  11.043 -0.1852 -0.6915 -0.8952
  114OSM     OF11892   6.114   5.741  11.101 -0.1650 -0.1411 -0.2112
  114OSM    C2F11893   5.996   5.885  10.949  0.5512  0.1538 -0.4979
  114OSM    H2F11894   5.961   5.971  11.010  0.7804  0.1115 -0.3055
  114OSM    H2G11895   5.912   5.880  10.876 -1.0466 -0.2523  1.3384
  114OSM    C3F11896   6.135   5.920  10.887  0.4678  0.6755 -0.1585
  114OSM    H3F11897   6.206   5.925  10.972  0.7872 -1.6139 -0.2495
  114OSM    H3G11898   6.134   6.020  10.838  1.3829 -0.1566 -1.9141
  114OSM    C4F11899   6.193   5.816  10.797 -0.3445 -0.3153  0.3833
  114OSM    H4F11900   6.190   5.719  10.850  1.1551  0.3935  1.8245
  114OSM    H4G11901   6.301   5.835  10.781 -0.5443  1.2288  0.7475
  114OSM    C5F11902   6.117   5.817  10.667 -0.6232  0.0489 -0.2792
  114OSM    H5F11903   6.143   5.909  10.610 -0.3883  0.0231 -0.2152
  114OSM    H5G11904   6.006   5.812  10.669 -0.6148 -0.7307 -1.3296
  114OSM    C6F11905   6.165   5.698  10.580 -0.3588  0.5310 -0.2762
  114OSM    H6F11906   6.147   5.606  10.639  1.2365 -1.4247 -2.7294
  114OSM    H6G11907   6.272   5.689  10.552 -0.8699  1.1122 -2.5504
  114OSM    C7F11908   6.089   5.698  10.452  0.2209  0.1784 -0.1107
  114OSM    H7F11909   5.984   5.727  10.472  0.4546 -1.3207  3.6814
  114OSM    H7G11910   6.086   5.596  10.407  2.6413 -0.5622  1.2691
  114OSM    C8F11911   6.152   5.798  10.348 -0.0784  0.4181  0.6316
  114OSM    H8F11912   6.242   5.758  10.296 -0.0716  0.2582  0.7676
  114OSM    H8G11913   6.184   5.897  10.388  0.4208  0.5420 -0.0677
  114OSM    C9F11914   6.053   5.832  10.232  0.0169 -0.6479  0.0484
  114OSM    H9F11915   5.955   5.863  10.270  0.3938  0.1928  0.3512
  114OSM   C10F11916   6.057   5.815  10.096 -0.0193  0.7608  0.4678
  114OSM   H10F11917   5.978   5.860  10.033 -2.5034 -0.0188  2.9036
  114OSM   C11F11918   6.174   5.768  10.015  0.0445 -0.2025 -0.5472
  114OSM   H11F11919   6.157   5.662   9.986  2.6653 -1.5753  2.5110
  114OSM   H11G11920   6.272   5.756  10.066 -0.9827  1.2990  1.8985
  114OSM   C12F11921   6.202   5.855   9.893  0.5919 -0.3029  0.0420
  114OSM   H12F11922   6.297   5.821   9.847 -0.3501  0.6087 -2.6765
  114OSM   H12G11923   6.207   5.962   9.921  1.0138 -0.4501  0.5460
  114OSM   C13F11924   6.100   5.838   9.782 -0.2286 -0.1194  0.0226
  114OSM   H13F11925   6.029   5.923   9.780 -1.9921 -1.5764 -2.2239
  114OSM   H13G11926   6.040   5.745   9.792 -1.7999  0.9117  0.3771
  114OSM   C14F11927   6.165   5.829   9.643  0.0811  0.1685  0.3858
  114OSM   H14F11928   6.224   5.736   9.631  0.4661  0.2191  1.7427
  114OSM   H14G11929   6.235   5.916   9.646 -2.1801  1.9979  1.9345
  114OSM   C15F11930   6.064   5.833   9.521 -0.1378 -0.4971  0.8511
  114OSM   H15F11931   5.986   5.906   9.551 -1.2746 -1.7029  0.8936
  114OSM   H15G11932   6.011   5.736   9.513 -1.1760  0.1165  0.0863
  114OSM   C16F11933   6.122   5.884   9.388 -0.4101  0.6653 -0.7971
  114OSM   H16F11934   6.221   5.846   9.355 -1.5138  0.1492 -3.6379
  114OSM   H16G11935   6.143   5.993   9.387  2.7998  0.1232 -1.7250
  114OSM   C17F11936   6.030   5.848   9.269  0.3071  0.3605 -0.1063
  114OSM   H17F11937   6.025   5.925   9.189 -0.2315 -0.5706 -0.9912
  114OSM   H17G11938   5.924   5.849   9.304  0.7493 -0.0451  1.2629
  114OSM   C18F11939   6.072   5.715   9.210 -0.0272  0.7402 -0.0606
  114OSM   H18F11940   6.175   5.716   9.170  0.9418  0.9049  2.4041
  114OSM   H18G11941   6.014   5.686   9.120  1.6176  0.5541 -1.0820
  114OSM   H18H11942   6.063   5.635   9.287 -0.2057  0.4326 -0.3990
  115OSM      N11943   0.470   2.190   6.201 -0.5621 -0.6823 -0.0500
  115OSM    C1511944   0.390   2.074   6.152  0.0101 -0.7850  0.3143
  115OSM   H15A11945   0.289   2.076   6.192 -0.0033  1.2454  0.1919
  115OSM   H15B11946   0.432   1.978   6.179  0.4122 -0.4993  0.6957
  115OSM   H15C11947   0.377   2.066   6.045  1.8010 -0.1935  0.0429
  115OSM    C1411948   0.484   2.175   6.348 -0.1146 -0.3143  0.3590
  115OSM   H14A11949   0.572   2.119   6.375  0.4235  1.1076  1.6325
  115OSM   H14B11950   0.404   2.118   6.393 -2.1216  0.9107 -1.5384
  115OSM   H14C11951   0.488   2.272   6.396  0.5333 -0.0418 -0.2290
  115OSM    C1311952   0.603   2.212   6.131  0.6315  0.0614 -0.5224
  115OSM   H13A11953   0.673   2.132   6.153  1.5206  0.3863 -2.0801
  115OSM   H13B11954   0.625   2.313   6.162  0.2508  0.0963 -0.3652
  115OSM   H13C11955   0.592   2.227   6.025 -0.5058  0.5091 -0.3422
  115OSM    C1211956   0.388   2.325   6.162 -0.1256 -0.0846 -1.4118
  115OSM   H12A11957   0.306   2.326   6.232  0.1034 -0.0761 -1.1438
  115OSM   H12B11958   0.336   2.315   6.068 -2.0058  1.6761 -0.5840
  115OSM    C1111959   0.459   2.460   6.186  0.3072 -0.2956 -0.2320
  115OSM   H11A11960   0.373   2.528   6.169 -0.6630 -1.4566 -0.0335
  115OSM   H11B11961   0.544   2.463   6.114 -0.0844  0.0883 -0.6825
  115OSM      P11962   0.598   2.581   6.367  0.3873 -0.4644  0.0474
  115OSM    O1311963   0.716   2.591   6.285  0.1455  0.6132 -0.0718
  115OSM    O1411964   0.513   2.699   6.380 -0.3835 -0.2063  0.4266
  115OSM    O1111965   0.648   2.543   6.513 -0.4322 -0.0563  0.0146
  115OSM    O1211966   0.505   2.462   6.320  0.0644 -0.6435  0.1920
  115OSM    C1S11967   0.725   2.422   6.529 -0.2808 -0.1165  0.1808
  115OSM    H1S11968   0.830   2.445   6.499 -0.3903 -1.2284 -1.1022
  115OSM    H1T11969   0.689   2.336   6.469 -1.4707  0.9374 -0.6224
  115OSM     NF11970   0.835   2.270   6.693 -0.1226  0.3475  0.1150
  115OSM    HNF11971   0.797   2.178   6.683 -3.1419  1.5925 -0.3265
  115OSM    C2S11972   0.734   2.370   6.680  0.2786  0.1081  0.4726
  115OSM    H2S11973   0.767   2.463   6.732 -0.9629  1.2283 -0.7306
  115OSM    C3S11974   0.589   2.321   6.726 -0.1316  0.0204  0.4994
  115OSM    H3S11975   0.564   2.233   6.664 -0.5702  0.4882  0.0022
  115OSM     O311976   0.488   2.413   6.704  0.3797  0.5311  0.3151
  115OSM    HO311977   0.523   2.479   6.643  2.6630  0.5172  1.5578
  115OSM    C4S11978   0.589   2.286   6.871  0.1134  0.5490  0.7466
  115OSM    H4S11979   0.612   2.372   6.934 -0.8900  1.4892 -0.1439
  115OSM    C5S11980   0.553   2.175   6.938 -0.0410 -0.0188  0.4228
  115OSM    H5S11981   0.536   2.083   6.881 -0.7009  0.6054 -0.3875
  115OSM    C6S11982   0.554   2.167   7.089 -0.5604  0.5541 -0.4663
  115OSM    H6S11983   0.455   2.132   7.124  0.3292  0.7312  2.2835
  115OSM    H6T11984   0.572   2.268   7.131  1.1632  1.0719 -2.3699
  115OSM    C7S11985   0.651   2.059   7.143  0.2509 -0.7429 -0.5919
  115OSM    H7S11986   0.757   2.090   7.134  0.4259 -0.5079  1.7940
  115OSM    H7T11987   0.645   1.958   7.097 -0.3674 -1.0369  0.1167
  115OSM    C8S11988   0.627   2.018   7.294  0.6097 -0.2228  0.1034
  115OSM    H8S11989   0.530   1.965   7.289 -0.0267  0.8581  0.7517
  115OSM    H8T11990   0.613   2.105   7.361  2.8719  0.0983  0.1895
  115OSM    C9S11991   0.747   1.929   7.347 -0.3834 -0.3183  0.0279
  115OSM    H9S11992   0.843   1.984   7.355 -0.5499 -0.0343  0.1060
  115OSM    H9T11993   0.748   1.857   7.263  1.5485 -0.0197 -0.2280
  115OSM   C10S11994   0.723   1.858   7.480 -0.0859  0.4002 -0.2014
  115OSM   H10S11995   0.810   1.793   7.505  1.1020  1.8952 -0.3589
  115OSM   H10T11996   0.634   1.792   7.486  0.4591 -0.3466 -0.2926
  115OSM   C11S11997   0.726   1.968   7.588  0.0111  1.0491  0.3427
  115OSM   H11S11998   0.639   2.033   7.563 -0.8511  0.7211  2.3808
  115OSM   H11T11999   0.820   2.025   7.574  0.2105  0.8189  0.7463
  115OSM   C12S12000   0.712   1.916   7.731 -0.4445  0.9871  0.0213
  115OSM   H12S12001   0.802   1.851   7.738 -0.2005  1.0800 -2.0596
  115OSM   H12T12002   0.625   1.849   7.742  2.2199 -2.8749 -1.4328
  115OSM   C13S12003   0.727   2.028   7.836  0.1101 -1.3251 -0.4137
  115OSM   H13S12004   0.827   2.077   7.833 -1.1141  1.6233  3.1798
  115OSM   H13T12005   0.723   1.993   7.941 -1.4883 -1.6807 -0.5698
  115OSM   C14S12006   0.636   2.150   7.813  0.3881  0.2275 -0.0273
  115OSM   H14S12007   0.532   2.113   7.798  0.0199  1.6377 -1.1445
  115OSM   H14T12008   0.669   2.200   7.719  2.2952 -2.5275 -0.8597
  115OSM   C15S12009   0.636   2.253   7.926 -0.7012  0.8126 -0.0173
  115OSM   H15S12010   0.736   2.302   7.923 -0.1687 -0.2702 -0.5269
  115OSM   H15T12011   0.629   2.200   8.023 -0.9077  2.1735  0.7068
  115OSM   C16S12012   0.539   2.371   7.907  0.0697  0.3446  0.2159
  115OSM   H16S12013   0.434   2.335   7.899  0.2222 -0.4429  1.5474
  115OSM   H16T12014   0.555   2.408   7.803  0.2629 -1.2127 -0.3319
  115OSM   C17S12015   0.549   2.478   8.020  0.9628  0.2672  0.0337
  115OSM   H17S12016   0.643   2.532   7.995  0.1841  0.3925 -2.9047
  115OSM   H17T12017   0.550   2.448   8.126 -0.1539 -0.4442 -0.1488
  115OSM   C18S12018   0.439   2.577   8.006  0.1157  0.3487 -0.5021
  115OSM   H18S12019   0.420   2.631   8.101  1.7866  0.4705 -0.2322
  115OSM   H18T12020   0.343   2.525   7.982  1.0834 -1.1726 -1.1593
  115OSM   H18U12021   0.466   2.660   7.937  0.3455 -1.0469 -2.1296
  115OSM    C1F12022   0.965   2.297   6.698  0.2661 -0.3155  0.2990
  115OSM     OF12023   1.006   2.414   6.715 -0.5392  0.0899  0.1562
  115OSM    C2F12024   1.064   2.178   6.674  0.4131 -0.1587  0.3883
  115OSM    H2F12025   1.110   2.204   6.577 -1.4909 -0.7375 -0.6995
  115OSM    H2G12026   1.006   2.083   6.668 -1.7831  1.1532 -0.0059
  115OSM    C3F12027   1.150   2.171   6.795  0.1817 -0.0785 -0.3640
  115OSM    H3F12028   1.209   2.265   6.799  0.7429 -0.4394 -0.0093
  115OSM    H3G12029   1.218   2.085   6.781  0.5743  0.6867 -3.3715
  115OSM    C4F12030   1.072   2.137   6.923 -0.2352 -0.2224 -0.2831
  115OSM    H4F12031   1.011   2.045   6.909  0.0088 -0.2392 -1.2270
  115OSM    H4G12032   1.006   2.223   6.950 -0.0139  0.2898 -1.3503
  115OSM    C5F12033   1.155   2.119   7.050 -0.0227  0.4578 -1.8435
  115OSM    H5F12034   1.221   2.208   7.064 -2.6247  2.2149 -0.2572
  115OSM    H5G12035   1.209   2.022   7.055 -1.1275 -0.0789  1.2107
  115OSM    C6F12036   1.079   2.153   7.174 -0.1073  0.3418  0.3089
  115OSM    H6F12037   0.996   2.080   7.174  0.9874 -0.9296  0.0936
  115OSM    H6G12038   1.038   2.256   7.169 -4.0630 -1.1591 -0.0083
  115OSM    C7F12039   1.166   2.123   7.301  0.2261  0.2393 -0.4554
  115OSM    H7F12040   1.265   2.172   7.284  1.5155 -1.1235  2.6818
  115OSM    H7G12041   1.187   2.014   7.310 -0.2399  0.3471  2.4888
  115OSM    C8F12042   1.097   2.169   7.434 -0.6112  0.0249  0.2832
  115OSM    H8F12043   1.007   2.104   7.441 -0.2464 -0.4810  0.2984
  115OSM    H8G12044   1.070   2.277   7.424  1.9822  0.7431  0.4955
  115OSM    C9F12045   1.199   2.145   7.542 -0.5874 -0.0812 -0.4342
  115OSM    H9F12046   1.265   2.059   7.522 -0.3913 -0.2396  0.8528
  115OSM   C10F12047   1.211   2.212   7.662 -0.1270  0.2319 -1.0948
  115OSM   H10F12048   1.279   2.176   7.740 -0.5264  0.8388 -0.4545
  115OSM   C11F12049   1.118   2.324   7.708  0.0532 -0.4975 -0.0996
  115OSM   H11F12050   1.027   2.338   7.646  0.6313  2.0803 -0.4177
  115OSM   H11G12051   1.170   2.421   7.720 -1.3483  0.0779  1.5066
  115OSM   C12F12052   1.045   2.294   7.840  0.2966  0.1941  0.3965
  115OSM   H12F12053   1.003   2.192   7.831  3.1821 -1.2174  2.2583
  115OSM   H12G12054   0.963   2.369   7.854  0.3794  0.0035  1.9576
  115OSM   C13F12055   1.135   2.296   7.968 -0.1107  0.0789  0.4581
  115OSM   H13F12056   1.178   2.396   7.987 -0.8510  0.2413  1.3246
  115OSM   H13G12057   1.217   2.223   7.955  0.8208  1.4157 -1.3156
  115OSM   C14F12058   1.044   2.247   8.080 -0.9236 -0.1577  0.1763
  115OSM   H14F12059   1.011   2.141   8.076 -0.8861 -0.2999  2.9667
  115OSM   H14G12060   0.963   2.322   8.083 -1.6493 -0.9928  2.7325
  115OSM   C15F12061   1.120   2.245   8.213 -0.2251  0.3128 -0.8173
  115OSM   H15F12062   1.184   2.154   8.205  2.6074  2.0987  0.5568
  115OSM   H15G12063   1.042   2.220   8.288  0.1921  1.9984  0.1912
  115OSM   C16F12064   1.208   2.364   8.261  0.1936  0.0610  0.2239
  115OSM   H16F12065   1.141   2.453   8.263  0.4032  0.2589 -1.0838
  115OSM   H16G12066   1.283   2.383   8.182  1.3825  1.3379  1.6446
  115OSM   C17F12067   1.270   2.341   8.398  0.0834  0.5505  0.0189
  115OSM   H17F12068   1.312   2.239   8.404 -2.0752 -0.2553  2.4342
  115OSM   H17G12069   1.194   2.341   8.479  0.5587  0.3487  0.4668
  115OSM   C18F12070   1.374   2.447   8.444 -0.4006  0.8487 -0.1094
  115OSM   H18F12071   1.338   2.551   8.458  1.1675  1.3746  0.0574
  115OSM   H18G12072   1.456   2.458   8.370 -2.2683 -2.8178 -2.9178
  115OSM   H18H12073   1.406   2.415   8.545 -0.0429  1.6756  0.0394
  116OSM      N12074   6.659   6.487   6.279 -0.5857  1.1522 -0.3726
  116OSM    C1512075   6.654   6.350   6.224  0.2233  0.4740 -0.3378
  116OSM   H15A12076   6.693   6.345   6.124  0.3197 -2.4681 -0.2130
  116OSM   H15B12077   6.551   6.317   6.234 -0.2767  1.7297 -1.3101
  116OSM   H15C12078   6.716   6.282   6.281  1.3723 -0.0562 -2.2047
  116OSM    C1412079   6.593   6.505   6.411 -0.0870  0.2790  0.5410
  116OSM   H14A12080   6.632   6.585   6.473 -2.0297  3.2600 -1.9122
  116OSM   H14B12081   6.598   6.413   6.467 -1.2422 -0.1702 -0.0800
  116OSM   H14C12082   6.487   6.523   6.411 -0.2427 -0.6042  0.1066
  116OSM    C1312083   6.808   6.508   6.301  0.0427 -0.0626 -1.3393
  116OSM   H13A12084   6.866   6.533   6.214  3.2463  3.9841  1.6931
  116OSM   H13B12085   6.852   6.421   6.347  0.0122  0.9599  0.7210
  116OSM   H13C12086   6.824   6.590   6.370  1.5343 -1.2368 -0.2563
  116OSM    C1212087   6.602   6.590   6.181 -0.2472 -0.0718 -0.0886
  116OSM   H12A12088   6.661   6.596   6.091  2.4176  1.0372  1.6512
  116OSM   H12B12089   6.613   6.690   6.220 -0.2125 -1.3014  3.2935
  116OSM    C1112090   6.455   6.568   6.142  0.7174 -0.2706  0.4244
  116OSM   H11A12091   6.440   6.476   6.081  0.3313  0.2596 -0.2845
  116OSM   H11B12092   6.421   6.631   6.057 -3.2076 -1.6465  0.8901
  116OSM      P12093   6.294   6.715   6.290 -0.3566  0.5060  0.2010
  116OSM    O1312094   6.396   6.820   6.306  0.1096 -0.2928 -0.3561
  116OSM    O1412095   6.192   6.750   6.185  0.6902 -0.4285 -0.3682
  116OSM    O1112096   6.220   6.679   6.429  0.3993 -0.3838  0.0697
  116OSM    O1212097   6.361   6.574   6.250  0.1812 -0.8999 -0.0345
  116OSM    C1S12098   6.267   6.602   6.542  0.1748  0.4592  0.3974
  116OSM    H1S12099   6.367   6.558   6.523 -0.4255 -0.0017 -1.8903
  116OSM    H1T12100   6.191   6.521   6.546 -0.4300  1.0248  0.5087
  116OSM     NF12101   6.304   6.601   6.792  0.1541  0.3435  0.2992
  116OSM    HNF12102   6.235   6.557   6.848 -0.9884  0.6276 -0.8654
  116OSM    C2S12103   6.255   6.677   6.680 -0.0498  0.1265 -0.4392
  116OSM    H2S12104   6.333   6.756   6.670  2.0621 -1.8919 -0.4631
  116OSM    C3S12105   6.109   6.739   6.705 -0.3304  0.5553 -0.4112
  116OSM    H3S12106   6.045   6.648   6.709 -0.1154  0.3709 -1.0265
  116OSM     O312107   6.061   6.815   6.595  0.0003 -0.6282 -0.6063
  116OSM    HO312108   6.129   6.804   6.528  0.1324 -2.0454 -0.2491
  116OSM    C4S12109   6.109   6.822   6.830 -0.8673  0.9060  0.3447
  116OSM    H4S12110   6.167   6.915   6.826  0.0395  0.4142  1.9738
  116OSM    C5S12111   6.028   6.804   6.935  1.0485  0.3827  0.3031
  116OSM    H5S12112   5.954   6.722   6.931  0.8978  0.5164  0.3321
  116OSM    C6S12113   6.021   6.875   7.068 -0.5302  0.3347  0.9586
  116OSM    H6S12114   5.925   6.931   7.062 -0.1256  0.9934  0.4802
  116OSM    H6T12115   6.100   6.953   7.072 -0.3210  0.1108  1.1344
  116OSM    C7S12116   6.038   6.791   7.193  0.0805 -0.2548  0.5591
  116OSM    H7S12117   6.136   6.740   7.183  0.1477  0.4105 -2.9424
  116OSM    H7T12118   5.959   6.713   7.182  0.0037  0.0824 -1.5455
  116OSM    C8S12119   6.012   6.868   7.316  0.1609 -0.2024 -0.0224
  116OSM    H8S12120   5.928   6.936   7.291 -0.7327 -1.1991  0.2187
  116OSM    H8T12121   6.101   6.932   7.338 -0.6974  0.9296  0.1864
  116OSM    C9S12122   5.984   6.787   7.444 -0.9973 -0.3251 -0.3398
  116OSM    H9S12123   6.070   6.721   7.471 -0.6180 -0.4215 -1.7446
  116OSM    H9T12124   5.895   6.724   7.424 -0.5768 -0.9345 -0.3216
  116OSM   C10S12125   5.975   6.878   7.573  0.0059  0.5405 -0.3605
  116OSM   H10S12126   5.881   6.939   7.574 -0.9059 -0.8453  0.2562
  116OSM   H10T12127   6.064   6.944   7.575  0.1123  0.3970  2.8234
  116OSM   C11S12128   5.956   6.811   7.710 -0.2790 -0.3030  1.1166
  116OSM   H11S12129   6.037   6.735   7.724  0.1674 -0.3869 -1.5054
  116OSM   H11T12130   5.864   6.750   7.707  1.1880 -2.5848  0.6671
  116OSM   C12S12131   5.964   6.910   7.818 -0.2336  0.1065 -0.2819
  116OSM   H12S12132   5.901   6.997   7.791 -0.4135  0.3655  0.9522
  116OSM   H12T12133   6.067   6.951   7.822  0.5277 -1.8328  0.5179
  116OSM   C13S12134   5.934   6.833   7.948  0.1603  0.7223 -0.4696
  116OSM   H13S12135   6.011   6.753   7.952  0.6139  1.1221 -0.9851
  116OSM   H13T12136   5.834   6.787   7.934  0.2516  0.6427 -0.8606
  116OSM   C14S12137   5.943   6.921   8.081 -0.2549  0.1749  0.3176
  116OSM   H14S12138   5.862   6.996   8.070  0.3973  0.8071 -0.2463
  116OSM   H14T12139   6.032   6.986   8.073  1.0081 -1.7107 -1.4721
  116OSM   C15S12140   5.948   6.831   8.203  0.2081  0.6379 -0.4103
  116OSM   H15S12141   6.038   6.768   8.219  0.0207  0.6896  0.9397
  116OSM   H15T12142   5.860   6.764   8.195 -0.3997  1.3089  0.5640
  116OSM   C16S12143   5.918   6.925   8.328  0.1105 -0.2525 -0.2959
  116OSM   H16S12144   6.015   6.974   8.351  0.8820 -2.4991  1.4205
  116OSM   H16T12145   5.902   6.866   8.421  0.7254  1.8492  1.1834
  116OSM   C17S12146   5.820   7.040   8.320 -0.4048  0.4628  0.7159
  116OSM   H17S12147   5.723   6.992   8.293 -0.1238 -0.5768  1.5343
  116OSM   H17T12148   5.849   7.116   8.243 -0.2873 -0.4872 -0.1925
  116OSM   C18S12149   5.793   7.115   8.453  1.0143  0.1676 -0.2697
  116OSM   H18S12150   5.713   7.190   8.438 -0.0223 -0.9012 -0.0932
  116OSM   H18T12151   5.888   7.164   8.486  0.9041 -0.9218  1.7210
  116OSM   H18U12152   5.764   7.048   8.537  0.8675 -1.6145 -1.7258
  116OSM    C1F12153   6.434   6.566   6.813 -0.4983  0.0225 -0.4246
  116OSM     OF12154   6.520   6.597   6.729  0.1186  0.3895  0.6025
  116OSM    C2F12155   6.482   6.484   6.933  0.4201 -0.3736 -0.2679
  116OSM    H2F12156   6.455   6.379   6.909 -0.4307  0.0677 -1.2831
  116OSM    H2G12157   6.417   6.518   7.018  1.3225  0.2525  0.1788
  116OSM    C3F12158   6.626   6.495   6.969  0.1883 -0.6871  0.6717
  116OSM    H3F12159   6.660   6.601   6.969 -1.9767  0.0226  0.2006
  116OSM    H3G12160   6.697   6.464   6.890 -0.1481  0.7901 -0.2228
  116OSM    C4F12161   6.663   6.426   7.103  0.2810  1.1602  0.2808
  116OSM    H4F12162   6.769   6.392   7.112  0.1045  0.2356 -0.9550
  116OSM    H4G12163   6.609   6.330   7.119  0.4857  0.3440 -3.4111
  116OSM    C5F12164   6.630   6.523   7.218 -0.3052  0.3234  0.0943
  116OSM    H5F12165   6.521   6.543   7.223 -0.2085  0.4436  1.9906
  116OSM    H5G12166   6.680   6.620   7.198 -0.6046  0.5230  0.3281
  116OSM    C6F12167   6.690   6.473   7.346 -0.5145  0.2854  0.5554
  116OSM    H6F12168   6.798   6.453   7.333 -1.1870 -1.6531 -2.5564
  116OSM    H6G12169   6.650   6.371   7.365  0.3871 -0.3425 -0.8310
  116OSM    C7F12170   6.664   6.572   7.472  0.7329 -0.3852 -0.2725
  116OSM    H7F12171   6.556   6.600   7.471  1.0833  1.0301  0.0929
  116OSM    H7G12172   6.711   6.669   7.445  0.1775 -0.3711 -1.2187
  116OSM    C8F12173   6.714   6.532   7.607  0.2093 -0.0330 -0.1869
  116OSM    H8F12174   6.821   6.504   7.601  0.9425  2.6576 -0.0823
  116OSM    H8G12175   6.660   6.438   7.634  0.7404  0.5103  3.0273
  116OSM    C9F12176   6.689   6.642   7.705  0.0380  0.2777 -1.2522
  116OSM    H9F12177   6.734   6.739   7.680  3.5848 -1.4012 -1.6117
  116OSM   C10F12178   6.626   6.643   7.821  0.1021  0.1196  0.2035
  116OSM   H10F12179   6.606   6.732   7.883 -0.5601  0.2402 -0.1708
  116OSM   C11F12180   6.577   6.515   7.879  0.7015  0.3272  0.0822
  116OSM   H11F12181   6.639   6.428   7.849  0.8295 -1.3810  4.8004
  116OSM   H11G12182   6.471   6.502   7.849  0.0551  2.0367  1.5372
  116OSM   C12F12183   6.571   6.522   8.035  0.4329  0.6163 -0.0248
  116OSM   H12F12184   6.515   6.606   8.081  0.5674  1.2512 -1.0034
  116OSM   H12G12185   6.676   6.517   8.073 -0.2016 -2.1022  1.4868
  116OSM   C13F12186   6.504   6.399   8.095  0.2837 -0.3723  0.3728
  116OSM   H13F12187   6.565   6.308   8.079  0.1744 -0.1576 -1.3931
  116OSM   H13G12188   6.406   6.379   8.047  0.0152  0.3707  0.6040
  116OSM   C14F12189   6.473   6.411   8.242 -0.3821 -0.3487 -0.5491
  116OSM   H14F12190   6.403   6.497   8.251 -1.3932 -1.3001  0.9633
  116OSM   H14G12191   6.559   6.433   8.309 -0.5741 -3.6236  0.8288
  116OSM   C15F12192   6.384   6.295   8.293  0.1653 -0.2313 -0.1505
  116OSM   H15F12193   6.438   6.198   8.302 -0.2035 -0.2601  1.9449
  116OSM   H15G12194   6.301   6.291   8.219 -1.3892 -0.4126  1.5596
  116OSM   C16F12195   6.338   6.328   8.425  0.0589 -0.3128  0.3472
  116OSM   H16F12196   6.284   6.425   8.434  0.3391 -0.1223 -0.0062
  116OSM   H16G12197   6.426   6.336   8.492  0.5896 -4.0292  0.2239
  116OSM   C17F12198   6.256   6.226   8.504 -0.0598 -0.1932 -0.0217
  116OSM   H17F12199   6.315   6.132   8.508 -1.3035 -0.9418  0.8692
  116OSM   H17G12200   6.158   6.215   8.452  0.5889  0.0886 -1.3412
  116OSM   C18F12201   6.227   6.268   8.647  0.2958  0.1074 -0.4256
  116OSM   H18F12202   6.155   6.197   8.693  1.4159 -0.5986  0.2429
  116OSM   H18G12203   6.179   6.369   8.646  1.2464  0.5841  0.6029
  116OSM   H18H12204   6.318   6.283   8.709  0.1409  0.5626 -0.3021
  117OSM      N12205   5.160   2.303   6.351 -0.0429  0.4100 -1.2409
  117OSM    C1512206   5.219   2.440   6.320  0.2226 -0.1986  0.2718
  117OSM   H15A12207   5.190   2.460   6.218 -0.4590  0.3055  0.5642
  117OSM   H15B12208   5.326   2.432   6.331  0.1360  0.8583  1.9986
  117OSM   H15C12209   5.178   2.520   6.379  1.6481  0.0387  0.9622
  117OSM    C1412210   5.209   2.196   6.258 -0.1397 -0.0269 -0.4129
  117OSM   H14A12211   5.196   2.211   6.152  2.5079 -1.5882 -1.0160
  117OSM   H14B12212   5.152   2.108   6.284  0.6770 -0.0782  1.2643
  117OSM   H14C12213   5.313   2.179   6.280  0.0073 -0.0641 -1.1399
  117OSM    C1312214   5.212   2.265   6.486 -0.1850  0.6534  0.4929
  117OSM   H13A12215   5.184   2.339   6.559 -0.7990  1.1213 -0.2029
  117OSM   H13B12216   5.319   2.256   6.475 -0.4612 -1.6433 -0.6344
  117OSM   H13C12217   5.183   2.164   6.511  1.1285  0.2125  0.2702
  117OSM    C1212218   5.005   2.313   6.350  0.2316 -0.3185  0.3467
  117OSM   H12A12219   4.969   2.324   6.249 -0.2906 -2.4165  0.2858
  117OSM   H12B12220   4.981   2.408   6.396  1.4538 -0.1149  0.5811
  117OSM    C1112221   4.921   2.205   6.432 -0.7287 -0.1601 -0.2308
  117OSM   H11A12222   4.825   2.258   6.448  0.6172  1.6921  2.0977
  117OSM   H11B12223   4.964   2.172   6.529 -0.6704 -0.9358 -0.5141
  117OSM      P12224   4.855   2.040   6.226 -0.2255  0.0024 -0.3624
  117OSM    O1312225   4.820   2.160   6.149 -0.3554 -0.2212 -0.4366
  117OSM    O1412226   4.946   1.948   6.155 -0.3444 -0.4487  0.4794
  117OSM    O1112227   4.727   1.959   6.276  0.3637 -0.2373  0.3190
  117OSM    O1212228   4.921   2.085   6.357 -0.3924 -0.2113 -0.0513
  117OSM    C1S12229   4.743   1.845   6.368  0.1350 -0.3620  0.4678
  117OSM    H1S12230   4.842   1.798   6.353  1.3289  2.1820  0.0477
  117OSM    H1T12231   4.661   1.778   6.333 -1.6724  2.7632 -1.5662
  117OSM     NF12232   4.763   1.768   6.590 -0.3446 -0.1649 -0.4635
  117OSM    HNF12233   4.686   1.709   6.611  0.1848 -0.3036  1.1897
  117OSM    C2S12234   4.720   1.883   6.517 -0.1070  0.1866  0.4792
  117OSM    H2S12235   4.776   1.974   6.548  0.5205  0.2529 -0.8209
  117OSM    C3S12236   4.571   1.913   6.539  0.5385  0.1184  0.1699
  117OSM    H3S12237   4.516   1.824   6.503  0.1399 -0.2119  1.5871
  117OSM     O312238   4.528   2.018   6.451 -0.1711  0.1384  0.7106
  117OSM    HO312239   4.597   2.026   6.386 -0.8777  0.3402 -0.0291
  117OSM    C4S12240   4.529   1.929   6.677 -0.5568 -0.3108 -0.2840
  117OSM    H4S12241   4.494   1.837   6.727 -3.6627  0.9090 -0.0755
  117OSM    C5S12242   4.543   2.039   6.756 -0.5848 -0.2025 -0.1148
  117OSM    H5S12243   4.574   2.139   6.724  0.5308  0.0687  1.7364
  117OSM    C6S12244   4.502   2.029   6.900 -0.6867  0.3517  0.8925
  117OSM    H6S12245   4.445   1.935   6.911  2.9227 -1.8041  2.0700
  117OSM    H6T12246   4.423   2.101   6.929 -2.0141 -0.6897 -0.1043
  117OSM    C7S12247   4.609   2.052   7.013  0.4808  0.0921 -0.5645
  117OSM    H7S12248   4.665   2.148   7.008 -0.5756  0.6863 -1.2828
  117OSM    H7T12249   4.680   1.967   7.010 -0.8450 -1.0078 -2.2287
  117OSM    C8S12250   4.535   2.054   7.148  0.0388 -0.8400 -0.3583
  117OSM    H8S12251   4.441   1.996   7.137 -1.9581  2.2231 -0.1737
  117OSM    H8T12252   4.509   2.160   7.169 -0.7821 -1.2444  0.7182
  117OSM    C9S12253   4.609   1.999   7.263  0.5444 -0.3084  0.2652
  117OSM    H9S12254   4.711   2.041   7.272  0.2529  0.7347 -1.2340
  117OSM    H9T12255   4.613   1.891   7.238 -1.3108 -0.5036  0.7327
  117OSM   C10S12256   4.552   2.020   7.402  0.1729  0.0589  0.4202
  117OSM   H10S12257   4.444   1.993   7.397 -0.2750  2.1713 -1.8480
  117OSM   H10T12258   4.552   2.125   7.436 -3.2981  0.4513 -0.5989
  117OSM   C11S12259   4.613   1.929   7.506  0.1014 -0.3737  0.0637
  117OSM   H11S12260   4.709   1.974   7.539  0.2816 -1.8152  1.5586
  117OSM   H11T12261   4.620   1.827   7.463 -0.6985 -0.2751 -0.3198
  117OSM   C12S12262   4.514   1.923   7.631 -0.6143  0.2695 -0.6693
  117OSM   H12S12263   4.429   1.861   7.597  0.6160 -0.9587 -1.5719
  117OSM   H12T12264   4.481   2.026   7.658  1.0821  0.8771 -0.8019
  117OSM   C13S12265   4.568   1.865   7.755 -1.0063 -0.2901 -0.1416
  117OSM   H13S12266   4.622   1.768   7.747 -2.0019 -1.3140  4.2297
  117OSM   H13T12267   4.486   1.835   7.823 -1.8295  1.4773 -0.3334
  117OSM   C14S12268   4.658   1.965   7.827 -0.3665  0.0924 -0.0674
  117OSM   H14S12269   4.595   2.050   7.860  1.4514  1.2345  0.5332
  117OSM   H14T12270   4.731   2.008   7.755 -0.6807  1.3455  0.3419
  117OSM   C15S12271   4.722   1.917   7.964  0.4526  0.0485  0.7705
  117OSM   H15S12272   4.806   1.846   7.946  1.1545  1.3505 -1.2713
  117OSM   H15T12273   4.663   1.865   8.042  2.9284  0.7288  3.1943
  117OSM   C16S12274   4.789   2.045   8.035 -0.1739 -0.0034 -0.3740
  117OSM   H16S12275   4.701   2.108   8.057  1.0767  1.3491  0.8228
  117OSM   H16T12276   4.859   2.090   7.962 -0.4516  0.4514 -0.3585
  117OSM   C17S12277   4.878   2.020   8.157 -0.0150 -0.1839  0.0161
  117OSM   H17S12278   4.912   2.115   8.204  0.7681  0.2736 -1.4326
  117OSM   H17T12279   4.966   1.960   8.124 -0.7452 -1.5597  0.5570
  117OSM   C18S12280   4.810   1.922   8.261 -0.4930 -0.0290 -0.7414
  117OSM   H18S12281   4.802   1.819   8.220  0.5353 -0.8002  0.9644
  117OSM   H18T12282   4.716   1.969   8.298  0.6316  3.0257 -1.5713
  117OSM   H18U12283   4.878   1.917   8.348 -2.2336 -2.2939  0.5425
  117OSM    C1F12284   4.892   1.740   6.607  0.6471 -0.5205  0.6223
  117OSM     OF12285   4.983   1.813   6.567  0.0442  0.2986  0.7000
  117OSM    C2F12286   4.922   1.609   6.684 -0.3442  0.4064  0.1311
  117OSM    H2F12287   4.982   1.545   6.615 -1.5599 -2.0896  1.3342
  117OSM    H2G12288   4.822   1.563   6.694  0.1712 -0.8109 -0.2862
  117OSM    C3F12289   4.997   1.621   6.820  0.0761  0.1861  0.1180
  117OSM    H3F12290   5.097   1.665   6.800 -0.1726 -0.5553 -2.9955
  117OSM    H3G12291   5.018   1.521   6.863  1.4045  0.1901 -0.4982
  117OSM    C4F12292   4.931   1.712   6.918  0.1960  0.8224 -0.3599
  117OSM    H4F12293   4.931   1.816   6.881 -1.6691  0.4617 -1.4594
  117OSM    H4G12294   4.981   1.716   7.017  3.2588 -1.3529 -1.7476
  117OSM    C5F12295   4.783   1.676   6.955 -0.1049 -0.1511  0.5380
  117OSM    H5F12296   4.732   1.735   6.876 -2.7852  0.9920  3.0380
  117OSM    H5G12297   4.761   1.732   7.048 -0.2593  1.0799 -0.2213
  117OSM    C6F12298   4.756   1.526   6.960 -0.5802  0.1118 -0.1877
  117OSM    H6F12299   4.792   1.465   6.873  0.2088 -0.9315  0.8551
  117OSM    H6G12300   4.647   1.505   6.959 -1.1171  2.4293  2.8390
  117OSM    C7F12301   4.815   1.464   7.091  0.1849 -0.3864  0.7679
  117OSM    H7F12302   4.807   1.550   7.162  0.4684  1.8120 -1.7699
  117OSM    H7G12303   4.918   1.426   7.074  0.4514  1.3000 -1.6232
  117OSM    C8F12304   4.723   1.349   7.151 -0.0308 -0.4994  0.3925
  117OSM    H8F12305   4.617   1.373   7.131  0.1384  0.1830  0.2902
  117OSM    H8G12306   4.731   1.359   7.262 -1.4466 -0.5744  0.5079
  117OSM    C9F12307   4.746   1.208   7.096  0.2645  0.2028  0.0488
  117OSM    H9F12308   4.754   1.199   6.987  1.2634  1.9587 -0.0464
  117OSM   C10F12309   4.772   1.101   7.168  1.0200  0.2429 -0.2011
  117OSM   H10F12310   4.789   1.005   7.117 -2.3951 -1.1153  1.0582
  117OSM   C11F12311   4.794   1.089   7.320  0.2821  0.6098 -0.1554
  117OSM   H11F12312   4.878   1.154   7.354  0.2590 -0.3516  1.8132
  117OSM   H11G12313   4.840   0.991   7.344 -0.0257  0.4847 -0.0690
  117OSM   C12F12314   4.671   1.103   7.423 -0.2310 -0.7784  0.1955
  117OSM   H12F12315   4.592   1.028   7.401  1.3469 -3.3020  2.7844
  117OSM   H12G12316   4.614   1.196   7.401  0.6456 -0.3433 -0.2386
  117OSM   C13F12317   4.707   1.078   7.568  0.1197 -0.3446 -0.8010
  117OSM   H13F12318   4.785   1.157   7.582  1.3428 -0.9548 -3.8195
  117OSM   H13G12319   4.744   0.974   7.583  3.3302  0.7263 -0.8433
  117OSM   C14F12320   4.592   1.106   7.668  0.8563  0.2633  0.5093
  117OSM   H14F12321   4.513   1.028   7.662 -0.4429  1.3157  3.2447
  117OSM   H14G12322   4.550   1.208   7.655 -1.7727 -0.6965  1.2405
  117OSM   C15F12323   4.636   1.087   7.816  0.0219 -0.0123  0.4189
  117OSM   H15F12324   4.713   1.162   7.842  0.7190 -1.6531  3.2602
  117OSM   H15G12325   4.685   0.990   7.838 -2.4242 -0.8977  2.1975
  117OSM   C16F12326   4.526   1.124   7.917 -0.4519  0.6603  0.5179
  117OSM   H16F12327   4.441   1.056   7.897 -0.7716  0.9839  0.7488
  117OSM   H16G12328   4.486   1.226   7.896 -0.9423  0.1915 -0.8202
  117OSM   C17F12329   4.570   1.100   8.060  0.5661 -0.0928 -0.0045
  117OSM   H17F12330   4.621   1.002   8.073  1.1875  0.0668 -1.2258
  117OSM   H17G12331   4.642   1.179   8.091  2.3477 -1.2067 -1.2432
  117OSM   C18F12332   4.451   1.100   8.156  0.3066  0.9629 -0.0312
  117OSM   H18F12333   4.389   1.190   8.139 -1.3470  0.8854  4.8098
  117OSM   H18G12334   4.491   1.108   8.259 -1.6912 -0.6984  0.9003
  117OSM   H18H12335   4.388   1.008   8.149  1.2272  0.3566 -0.4471
  118OSM      N12336   1.131   3.774   5.910 -0.1987 -0.1049  1.1063
  118OSM    C1512337   1.005   3.808   5.855 -0.1344  0.3039 -0.2226
  118OSM   H15A12338   1.016   3.891   5.787 -0.8372  1.6737  1.2918
  118OSM   H15B12339   0.937   3.824   5.937  0.6658  0.2646  0.4569
  118OSM   H15C12340   0.961   3.727   5.800 -2.3540 -0.0321  1.9556
  118OSM    C1412341   1.222   3.720   5.797  0.0869  0.4461 -0.6831
  118OSM   H14A12342   1.171   3.635   5.754 -0.2212  0.7041 -0.8323
  118OSM   H14B12343   1.317   3.690   5.837 -0.6089 -1.3300 -0.3307
  118OSM   H14C12344   1.250   3.790   5.720  3.0878 -0.3900 -0.4175
  118OSM    C1312345   1.194   3.900   5.961  0.1666  0.2687  0.5063
  118OSM   H13A12346   1.205   3.982   5.892 -1.2139 -0.6348 -0.8112
  118OSM   H13B12347   1.292   3.881   6.003 -0.7396 -0.6242  2.2788
  118OSM   H13C12348   1.133   3.947   6.037  1.5781  1.2087  1.0822
  118OSM    C1212349   1.114   3.667   6.020  0.1914 -0.5187 -0.1253
  118OSM   H12A12350   1.212   3.626   6.038 -0.1232 -1.3084 -0.2142
  118OSM   H12B12351   1.052   3.586   5.985  0.9067 -1.3893  0.6169
  118OSM    C1112352   1.059   3.710   6.161  0.3003  0.0683 -0.0778
  118OSM   H11A12353   1.142   3.772   6.202  0.5439 -1.5792  1.9759
  118OSM   H11B12354   1.050   3.618   6.223  2.4475 -0.1097  0.0111
  118OSM      P12355   0.890   3.891   6.244 -0.2254  0.1003 -0.0205
  118OSM    O1312356   0.999   3.936   6.326 -0.1746 -0.0350  0.0646
  118OSM    O1412357   0.821   3.993   6.165  0.8082 -0.0117 -0.5830
  118OSM    O1112358   0.787   3.816   6.334  0.2408 -0.6404  0.5181
  118OSM    O1212359   0.933   3.786   6.144 -0.2637  0.2896 -0.2828
  118OSM    C1S12360   0.826   3.711   6.425 -0.2899  0.3664  0.5678
  118OSM    H1S12361   0.925   3.669   6.396  0.1988  0.8258  1.5255
  118OSM    H1T12362   0.749   3.631   6.424 -0.3391  0.3792  2.0919
  118OSM     NF12363   0.893   3.662   6.655 -0.0172 -0.0216  0.3482
  118OSM    HNF12364   0.824   3.639   6.724 -0.7429  0.4332 -0.2178
  118OSM    C2S12365   0.845   3.763   6.573 -0.0309 -0.4102  0.5057
  118OSM    H2S12366   0.925   3.840   6.576 -0.3532 -0.0133 -0.7924
  118OSM    C3S12367   0.724   3.831   6.631 -0.5967 -0.2627 -0.2797
  118OSM    H3S12368   0.638   3.760   6.638  0.1300 -0.9948  1.3445
  118OSM     O312369   0.672   3.932   6.537 -0.1920  0.1511 -0.6590
  118OSM    HO312370   0.710   3.906   6.452  3.1798  0.6827  0.6082
  118OSM    C4S12371   0.756   3.887   6.770  0.8577 -0.0002 -0.3037
  118OSM    H4S12372   0.741   3.811   6.847 -0.0760  0.9278  0.4411
  118OSM    C5S12373   0.805   4.008   6.792  0.5359  0.2246  0.6847
  118OSM    H5S12374   0.825   4.074   6.706  0.0053  1.9291  1.8345
  118OSM    C6S12375   0.850   4.068   6.926 -0.4719 -0.4017 -0.3886
  118OSM    H6S12376   0.800   4.166   6.935 -2.2045 -1.3032 -0.0783
  118OSM    H6T12377   0.960   4.077   6.939 -0.4502 -1.1208 -0.0204
  118OSM    C7S12378   0.809   3.988   7.055 -0.4645  0.0447  0.1904
  118OSM    H7S12379   0.872   3.897   7.062 -0.6014 -0.0652 -0.0086
  118OSM    H7T12380   0.700   3.967   7.059 -0.3338 -0.6453  0.1070
  118OSM    C8S12381   0.848   4.083   7.169 -0.0261  0.9620  0.3351
  118OSM    H8S12382   0.807   4.183   7.142  2.0629  1.3339 -1.5690
  118OSM    H8T12383   0.957   4.094   7.189 -0.0488  0.5530  0.6740
  118OSM    C9S12384   0.779   4.055   7.298  0.5058 -0.7895 -0.6037
  118OSM    H9S12385   0.798   3.949   7.327 -0.4316 -0.7374  0.2396
  118OSM    H9T12386   0.670   4.059   7.275  0.3250  1.3674  0.4943
  118OSM   C10S12387   0.823   4.148   7.409 -0.0183 -0.0690 -0.7180
  118OSM   H10S12388   0.766   4.242   7.393 -1.3279 -1.0062 -1.5979
  118OSM   H10T12389   0.931   4.175   7.403  0.0374  1.3599  4.7071
  118OSM   C11S12390   0.780   4.098   7.547  0.2399 -0.0462 -0.4169
  118OSM   H11S12391   0.832   4.001   7.560  0.3191 -0.2262 -2.0333
  118OSM   H11T12392   0.673   4.070   7.560  1.3644 -3.1673  2.9207
  118OSM   C12S12393   0.814   4.202   7.662  0.3344 -0.0973 -0.0140
  118OSM   H12S12394   0.922   4.223   7.653  0.2522  0.3084 -0.0335
  118OSM   H12T12395   0.778   4.141   7.748 -0.4434 -0.9721 -0.9387
  118OSM   C13S12396   0.738   4.330   7.643  0.7482 -0.4309 -0.3002
  118OSM   H13S12397   0.628   4.321   7.644  0.7408 -0.2743  0.2022
  118OSM   H13T12398   0.758   4.371   7.541  2.8363 -0.3474  0.1267
  118OSM   C14S12399   0.790   4.441   7.729 -0.7707  0.5030 -0.1584
  118OSM   H14S12400   0.759   4.542   7.695  2.3582  1.8574  0.8035
  118OSM   H14T12401   0.900   4.449   7.710 -1.2008 -0.1632 -3.1434
  118OSM   C15S12402   0.750   4.427   7.879 -0.0812 -0.3729 -0.2304
  118OSM   H15S12403   0.798   4.331   7.908 -0.4951 -0.5010  0.0375
  118OSM   H15T12404   0.642   4.424   7.905 -0.2748 -1.6195 -1.1122
  118OSM   C16S12405   0.814   4.533   7.966 -0.8848 -0.1228 -0.1673
  118OSM   H16S12406   0.757   4.628   7.952 -0.9576 -0.3984 -1.9390
  118OSM   H16T12407   0.921   4.545   7.938  0.1037 -2.3347  2.4360
  118OSM   C17S12408   0.816   4.492   8.117 -0.3805 -0.3305  0.6172
  118OSM   H17S12409   0.869   4.397   8.138 -0.0815 -1.2647 -3.8325
  118OSM   H17T12410   0.712   4.461   8.139 -0.4982 -0.7879 -0.5559
  118OSM   C18S12411   0.871   4.604   8.210  0.6008  0.2350  0.3592
  118OSM   H18S12412   0.801   4.689   8.209  1.7166  1.1668  0.1665
  118OSM   H18T12413   0.967   4.624   8.158  0.3794 -1.0695 -0.5878
  118OSM   H18U12414   0.894   4.556   8.307 -2.1688  2.2102  2.0557
  118OSM    C1F12415   1.011   3.609   6.649 -0.6532 -0.5955 -0.0031
  118OSM     OF12416   1.106   3.641   6.578  0.4960  0.0321 -0.5058
  118OSM    C2F12417   1.035   3.493   6.740 -0.7314 -0.4761 -0.3008
  118OSM    H2F12418   1.017   3.392   6.697 -1.0591 -0.5638  0.0386
  118OSM    H2G12419   0.967   3.504   6.827 -0.3563 -0.8577  0.0493
  118OSM    C3F12420   1.171   3.504   6.804  0.1700 -0.2152  0.0990
  118OSM    H3F12421   1.251   3.492   6.728  0.2447  1.3717 -0.0943
  118OSM    H3G12422   1.177   3.416   6.871 -0.6374 -0.7601 -0.5348
  118OSM    C4F12423   1.197   3.626   6.888 -0.6473 -0.2677  0.3185
  118OSM    H4F12424   1.120   3.643   6.967 -1.1585  1.8840 -0.5996
  118OSM    H4G12425   1.200   3.715   6.822  2.7674  0.1156  0.8730
  118OSM    C5F12426   1.343   3.633   6.930 -1.1544  0.7142  0.4440
  118OSM    H5F12427   1.404   3.609   6.841  0.2308  0.0612  1.5409
  118OSM    H5G12428   1.361   3.552   7.004  0.5296  1.1971  0.5689
  118OSM    C6F12429   1.404   3.757   6.992 -1.0377 -0.2418 -0.0360
  118OSM    H6F12430   1.434   3.846   6.933  0.9077  0.0245  1.3068
  118OSM    H6G12431   1.507   3.727   7.022  0.1102  2.2241 -1.3874
  118OSM    C7F12432   1.318   3.789   7.115 -0.9647 -0.0350  0.5191
  118OSM    H7F12433   1.287   3.700   7.174  0.1452 -1.1816 -0.5934
  118OSM    H7G12434   1.225   3.842   7.085 -1.1995  1.5303  3.7874
  118OSM    C8F12435   1.387   3.879   7.217  0.8380  0.6984 -1.3270
  118OSM    H8F12436   1.491   3.839   7.213  1.1424  1.4170 -0.7181
  118OSM    H8G12437   1.361   3.849   7.321  3.6452  0.7244 -0.5684
  118OSM    C9F12438   1.383   4.027   7.196  0.2479 -0.4612  0.1437
  118OSM    H9F12439   1.432   4.059   7.102 -1.1671 -0.2379 -0.5372
  118OSM   C10F12440   1.324   4.113   7.285  0.6149  0.2353 -0.4701
  118OSM   H10F12441   1.312   4.221   7.270 -1.8630  0.3555  2.0206
  118OSM   C11F12442   1.262   4.073   7.417 -0.0721  0.5634 -0.5984
  118OSM   H11F12443   1.214   3.973   7.420 -2.0116  1.4795 -0.3649
  118OSM   H11G12444   1.182   4.146   7.443  1.3065  2.7788 -2.4181
  118OSM   C12F12445   1.369   4.077   7.529 -0.8438 -0.6314  0.0518
  118OSM   H12F12446   1.402   4.182   7.542  0.6637 -1.0525 -0.2323
  118OSM   H12G12447   1.466   4.031   7.499 -0.1859  1.2962 -0.8859
  118OSM   C13F12448   1.316   4.027   7.663 -0.1563  0.0720  0.0066
  118OSM   H13F12449   1.397   4.019   7.739 -1.5219  0.8731  1.5773
  118OSM   H13G12450   1.285   3.923   7.638  2.9846 -1.5819  2.6943
  118OSM   C14F12451   1.202   4.099   7.731  0.0087 -0.0776  0.2076
  118OSM   H14F12452   1.120   4.113   7.657  0.3370 -1.0082 -0.3347
  118OSM   H14G12453   1.227   4.203   7.763 -1.5839  0.3845  0.0233
  118OSM   C15F12454   1.138   4.029   7.862  0.8281 -0.5080 -0.6271
  118OSM   H15F12455   1.224   3.998   7.926  1.1357  1.6077  0.0172
  118OSM   H15G12456   1.092   3.936   7.824 -2.2145  0.5859  0.2719
  118OSM   C16F12457   1.039   4.127   7.933  0.8211 -0.0873  0.2737
  118OSM   H16F12458   0.948   4.151   7.874 -0.2718  0.0930  2.0037
  118OSM   H16G12459   1.095   4.222   7.950  1.0427 -0.5292  2.1137
  118OSM   C17F12460   0.996   4.067   8.068  0.1756 -0.5137 -0.1905
  118OSM   H17F12461   1.009   4.140   8.151 -0.2528 -0.3475 -0.2756
  118OSM   H17G12462   1.059   3.977   8.090 -1.1441 -1.7215 -1.2681
  118OSM   C18F12463   0.847   4.026   8.060  0.2043  0.1444 -0.1370
  118OSM   H18F12464   0.845   3.950   7.979  1.4695 -0.0769  0.0293
  118OSM   H18G12465   0.769   4.101   8.034 -1.7787 -1.1982  1.6924
  118OSM   H18H12466   0.825   3.970   8.154 -0.8723 -0.8117 -0.9434
  119OSM      N12467   2.474   2.794   5.832  0.4466 -0.6428  0.5917
  119OSM    C1512468   2.470   2.653   5.870 -0.8247 -0.0561 -0.5368
  119OSM   H15A12469   2.486   2.576   5.795  0.2607 -0.1852 -0.1807
  119OSM   H15B12470   2.382   2.615   5.919  0.5156 -0.5472  1.5830
  119OSM   H15C12471   2.544   2.643   5.948 -0.9503  3.3933  0.0599
  119OSM    C1412472   2.608   2.808   5.763 -0.1884  0.0491 -0.4713
  119OSM   H14A12473   2.612   2.737   5.681 -1.6826 -1.1568  0.4764
  119OSM   H14B12474   2.686   2.785   5.834 -1.6259 -0.2366  1.0361
  119OSM   H14C12475   2.636   2.904   5.721 -1.4671 -0.4099 -2.4451
  119OSM    C1312476   2.358   2.823   5.742  0.4152 -0.1560  0.6961
  119OSM   H13A12477   2.267   2.829   5.799  0.1091 -0.6982  0.2651
  119OSM   H13B12478   2.358   2.749   5.664 -2.7081  0.3232  0.1882
  119OSM   H13C12479   2.368   2.921   5.698 -0.1830  0.2378  1.4115
  119OSM    C1212480   2.463   2.885   5.949  0.1944 -0.4923  0.1585
  119OSM   H12A12481   2.538   2.853   6.020  0.1835  0.3763  0.5682
  119OSM   H12B12482   2.368   2.869   5.998 -1.2020  3.6307 -0.9510
  119OSM    C1112483   2.468   3.043   5.938  0.2182 -0.6520  0.2884
  119OSM   H11A12484   2.574   3.063   5.912  0.4252  1.2694  2.4866
  119OSM   H11B12485   2.440   3.090   6.034  0.7925 -0.6466  0.4526
  119OSM      P12486   2.240   3.141   5.856  0.3565 -0.3028  0.1064
  119OSM    O1312487   2.186   3.239   5.757  0.4292 -0.1666 -0.5997
  119OSM    O1412488   2.159   3.019   5.860 -0.4520 -0.1307  0.1405
  119OSM    O1112489   2.239   3.214   6.003  0.2986 -0.5869  0.4904
  119OSM    O1212490   2.392   3.098   5.829  0.4111  0.4211  0.5227
  119OSM    C1S12491   2.178   3.153   6.117 -0.2915 -0.7696 -0.5141
  119OSM    H1S12492   2.203   3.046   6.127 -1.1772 -0.9384 -0.1101
  119OSM    H1T12493   2.069   3.169   6.107 -0.1229  2.0924  1.5693
  119OSM     NF12494   2.134   3.174   6.364  0.6194  0.4391 -0.2808
  119OSM    HNF12495   2.044   3.214   6.378  1.4493  1.9154  0.9991
  119OSM    C2S12496   2.213   3.230   6.256 -0.0150 -0.8576 -0.3873
  119OSM    H2S12497   2.322   3.210   6.269  0.1237 -1.3448 -2.1269
  119OSM    C3S12498   2.190   3.384   6.242 -0.1521  0.1240 -1.0932
  119OSM    H3S12499   2.081   3.403   6.232 -0.1051  1.2311  0.2835
  119OSM     O312500   2.256   3.449   6.133 -1.0675  0.0624  0.0846
  119OSM    HO312501   2.292   3.376   6.083 -1.1805  0.4800 -0.6034
  119OSM    C4S12502   2.229   3.451   6.369 -0.2981  0.2777 -0.0351
  119OSM    H4S12503   2.150   3.449   6.446 -0.2264 -2.3996  0.0224
  119OSM    C5S12504   2.341   3.521   6.396 -0.6884 -0.0660 -0.0577
  119OSM    H5S12505   2.422   3.534   6.324  0.8735 -2.2517  1.2449
  119OSM    C6S12506   2.384   3.589   6.515 -0.3035 -0.2623 -0.5279
  119OSM    H6S12507   2.406   3.696   6.492 -1.4717  0.2540  0.6329
  119OSM    H6T12508   2.474   3.547   6.565  0.6589  0.6982 -1.4272
  119OSM    C7S12509   2.285   3.591   6.637 -0.5369  0.0880  0.8339
  119OSM    H7S12510   2.267   3.496   6.690  0.0143  0.6874  2.1067
  119OSM    H7T12511   2.187   3.632   6.603 -0.8567 -1.7152 -0.4852
  119OSM    C8S12512   2.344   3.681   6.749  0.1669  0.6053  0.1266
  119OSM    H8S12513   2.374   3.779   6.706  0.0300  1.6395  2.3391
  119OSM    H8T12514   2.445   3.648   6.782  1.6686  2.2407 -2.6690
  119OSM    C9S12515   2.264   3.715   6.876  0.2007 -0.6175  0.3158
  119OSM    H9S12516   2.264   3.623   6.938 -0.0130 -2.7946 -2.8299
  119OSM    H9T12517   2.163   3.740   6.835 -0.6046 -4.2378 -0.0941
  119OSM   C10S12518   2.328   3.823   6.973 -0.3624  0.0875  0.3292
  119OSM   H10S12519   2.337   3.918   6.917 -1.0905 -1.2584 -2.1663
  119OSM   H10T12520   2.427   3.784   7.005 -1.2024 -2.7550 -0.3183
  119OSM   C11S12521   2.249   3.857   7.103 -0.4772  0.2007 -0.3148
  119OSM   H11S12522   2.142   3.875   7.079 -0.9816 -0.8014  1.0775
  119OSM   H11T12523   2.300   3.950   7.134  1.7082 -0.8904 -0.5588
  119OSM   C12S12524   2.251   3.757   7.210  0.5631  0.6183 -0.4202
  119OSM   H12S12525   2.347   3.700   7.208  1.0424  1.3549  0.8127
  119OSM   H12T12526   2.167   3.689   7.183  1.8969 -0.3984 -2.1820
  119OSM   C13S12527   2.253   3.829   7.347 -0.1312  0.9398  0.3026
  119OSM   H13S12528   2.172   3.905   7.352 -0.1135  0.8652  2.0752
  119OSM   H13T12529   2.348   3.887   7.354  0.7879 -0.6720  1.3882
  119OSM   C14S12530   2.234   3.723   7.453  0.0689  0.1979  0.0825
  119OSM   H14S12531   2.305   3.639   7.442 -1.7841 -1.3229 -0.6212
  119OSM   H14T12532   2.135   3.677   7.430 -0.5958  0.8176  1.6173
  119OSM   C15S12533   2.242   3.773   7.599  0.7444 -0.2628 -0.2843
  119OSM   H15S12534   2.180   3.863   7.616 -1.9928 -2.1423 -0.1196
  119OSM   H15T12535   2.349   3.804   7.603  0.8584 -0.1745 -2.8647
  119OSM   C16S12536   2.224   3.664   7.699  0.2035  0.3648 -0.2417
  119OSM   H16S12537   2.306   3.594   7.675 -1.2296 -2.0911  1.7046
  119OSM   H16T12538   2.125   3.613   7.701  0.3459  0.0851 -0.2724
  119OSM   C17S12539   2.238   3.718   7.838  0.0410  0.3334 -0.7790
  119OSM   H17S12540   2.171   3.807   7.846  0.8465  1.1464 -2.6840
  119OSM   H17T12541   2.339   3.757   7.863 -0.7164  3.0814 -1.7451
  119OSM   C18S12542   2.198   3.620   7.947 -0.0466  0.1347 -0.1375
  119OSM   H18S12543   2.223   3.671   8.043 -2.0500 -0.7391  0.8866
  119OSM   H18T12544   2.247   3.521   7.938 -0.3466  0.0218 -0.5691
  119OSM   H18U12545   2.088   3.605   7.955  0.2277 -1.0474  1.5395
  119OSM    C1F12546   2.164   3.055   6.416 -0.7567  0.2468  0.2007
  119OSM     OF12547   2.274   3.006   6.386 -0.1308 -0.2045  0.1926
  119OSM    C2F12548   2.066   2.987   6.499 -0.1666 -0.5963  0.0635
  119OSM    H2F12549   2.088   2.879   6.508 -1.0548 -0.9285 -1.5146
  119OSM    H2G12550   1.974   2.983   6.436  0.0536  0.0283 -0.3006
  119OSM    C3F12551   2.032   3.059   6.628 -0.2609  0.1510 -0.0081
  119OSM    H3F12552   1.936   3.011   6.658 -0.5812  0.4010 -0.6272
  119OSM    H3G12553   2.015   3.167   6.610 -1.1650  0.6058  3.1687
  119OSM    C4F12554   2.116   3.015   6.750  0.1069  0.4445 -0.8858
  119OSM    H4F12555   2.223   3.043   6.737  0.9716 -2.0017  0.6380
  119OSM    H4G12556   2.119   2.905   6.764  2.3309  0.2080 -2.9817
  119OSM    C5F12557   2.057   3.079   6.875 -0.4688  0.8255 -0.3156
  119OSM    H5F12558   1.967   3.024   6.909  0.6397  0.4213  2.0541
  119OSM    H5G12559   2.019   3.182   6.855 -1.0949  0.7460  0.4328
  119OSM    C6F12560   2.162   3.087   6.986 -0.5008 -0.4839 -0.1919
  119OSM    H6F12561   2.222   3.178   6.965  0.5015 -0.5159  2.4445
  119OSM    H6G12562   2.227   2.997   6.977  3.7108  2.2339  1.4068
  119OSM    C7F12563   2.096   3.096   7.123 -0.1486  0.1582 -1.0813
  119OSM    H7F12564   2.057   2.994   7.147  0.8788  0.5801  2.7209
  119OSM    H7G12565   2.006   3.160   7.115 -0.2235  0.6621  2.9334
  119OSM    C8F12566   2.191   3.129   7.244  0.1796  0.0567 -0.0136
  119OSM    H8F12567   2.280   3.062   7.237 -0.6926 -1.3270  1.8878
  119OSM    H8G12568   2.144   3.103   7.341  1.5010 -0.8991  0.3883
  119OSM    C9F12569   2.241   3.275   7.254  0.1888  0.2195 -0.6782
  119OSM    H9F12570   2.300   3.315   7.170 -1.8992  2.8128 -0.9772
  119OSM   C10F12571   2.243   3.360   7.357  0.4189 -0.6196  0.2782
  119OSM   H10F12572   2.273   3.466   7.350  0.6762 -0.7523 -0.6995
  119OSM   C11F12573   2.178   3.328   7.493 -0.0793  0.0232 -0.5663
  119OSM   H11F12574   2.234   3.391   7.565 -0.4588  0.2961 -0.5096
  119OSM   H11G12575   2.201   3.224   7.523  0.1043  0.8459  2.2159
  119OSM   C12F12576   2.024   3.354   7.487  0.2522 -0.9216 -0.1358
  119OSM   H12F12577   1.978   3.311   7.395 -2.9031  3.8109 -0.9450
  119OSM   H12G12578   2.009   3.464   7.477  0.8713 -0.6649  1.5732
  119OSM   C13F12579   1.961   3.301   7.616 -1.1040 -0.4913 -0.1976
  119OSM   H13F12580   1.988   3.367   7.702  0.7099 -1.8923  0.3510
  119OSM   H13G12581   2.005   3.202   7.639  0.3198  0.2285  0.2580
  119OSM   C14F12582   1.811   3.265   7.604 -0.3112 -0.3796 -0.1570
  119OSM   H14F12583   1.793   3.228   7.501  0.3434 -1.4336  0.0918
  119OSM   H14G12584   1.750   3.357   7.616  2.6316  1.5166  0.7214
  119OSM   C15F12585   1.766   3.166   7.712  0.1762 -0.5989  0.0356
  119OSM   H15F12586   1.808   3.067   7.682  1.5632  0.3541 -1.2585
  119OSM   H15G12587   1.656   3.176   7.700  0.3672  1.8370  0.1567
  119OSM   C16F12588   1.790   3.204   7.854 -0.1157 -0.2195 -0.4945
  119OSM   H16F12589   1.899   3.226   7.862 -0.2559 -0.1691  1.7595
  119OSM   H16G12590   1.773   3.119   7.924 -2.5944  1.1148  0.6195
  119OSM   C17F12591   1.728   3.336   7.904  0.4968 -0.1565  0.5639
  119OSM   H17F12592   1.617   3.336   7.894  0.6037  1.1187 -0.8538
  119OSM   H17G12593   1.769   3.425   7.851  1.9485 -1.2442 -0.1559
  119OSM   C18F12594   1.745   3.364   8.049 -0.4215 -0.0285 -0.4875
  119OSM   H18F12595   1.841   3.417   8.066 -0.0082 -0.4652 -1.4266
  119OSM   H18G12596   1.742   3.274   8.115 -0.0423  0.3008 -0.0155
  119OSM   H18H12597   1.667   3.439   8.077 -0.8556 -0.1177 -1.4533
  120OSM      N12598   6.097   0.866   6.355 -0.2638 -0.2190  0.3877
  120OSM    C1512599   6.189   0.823   6.243  0.4944 -0.6547  0.2614
  120OSM   H15A12600   6.138   0.826   6.148 -2.1049 -0.8337  1.6224
  120OSM   H15B12601   6.219   0.719   6.248  0.0955 -0.7884 -0.0771
  120OSM   H15C12602   6.284   0.875   6.241  1.0288 -1.6479 -1.4670
  120OSM    C1412603   6.140   0.996   6.410  0.0315 -0.4708 -0.1669
  120OSM   H14A12604   6.217   0.975   6.483  0.8624 -0.0714 -0.9334
  120OSM   H14B12605   6.062   1.047   6.466  1.0064 -0.3576  1.1300
  120OSM   H14C12606   6.172   1.059   6.329 -1.0348  0.2325 -0.0536
  120OSM    C1312607   5.960   0.888   6.301  0.2674 -0.0353  0.3307
  120OSM   H13A12608   5.936   0.810   6.230  2.6878 -1.4149  0.9655
  120OSM   H13B12609   5.949   0.982   6.249  1.5777 -0.9284 -1.6522
  120OSM   H13C12610   5.878   0.888   6.371 -0.4532 -0.7062 -0.5078
  120OSM    C1212611   6.086   0.757   6.460  0.3076 -0.0366  0.1600
  120OSM   H12A12612   6.058   0.669   6.404 -1.1723  0.0783  0.6990
  120OSM   H12B12613   5.995   0.768   6.518 -0.7702  0.2272 -1.5658
  120OSM    C1112614   6.200   0.732   6.552  0.3244  0.3974 -0.8013
  120OSM   H11A12615   6.167   0.666   6.635 -0.1841 -0.5926 -1.7771
  120OSM   H11B12616   6.242   0.824   6.598  0.6569 -0.5475  0.8334
  120OSM      P12617   6.312   0.517   6.460 -0.0931 -0.0457 -0.3719
  120OSM    O1312618   6.177   0.482   6.420  0.1940 -0.4434 -0.4186
  120OSM    O1412619   6.415   0.483   6.361  0.1944  0.0942  0.2033
  120OSM    O1112620   6.350   0.454   6.595 -0.6899 -0.4228  0.1763
  120OSM    O1212621   6.312   0.671   6.480 -0.1174  0.2337 -0.0812
  120OSM    C1S12622   6.467   0.509   6.667  0.2178 -0.3161  0.3479
  120OSM    H1S12623   6.451   0.616   6.694 -2.4895 -0.4619 -0.5522
  120OSM    H1T12624   6.561   0.506   6.607  0.0922 -1.5092  0.2019
  120OSM     NF12625   6.616   0.501   6.864 -0.1747 -0.1370 -0.4875
  120OSM    HNF12626   6.702   0.454   6.847  0.3091 -0.1551  1.7503
  120OSM    C2S12627   6.507   0.434   6.793 -0.0195 -0.3921  0.0265
  120OSM    H2S12628   6.413   0.432   6.854  0.7359 -0.9238  1.1939
  120OSM    C3S12629   6.533   0.282   6.753  0.4977 -0.3893 -0.0876
  120OSM    H3S12630   6.633   0.267   6.706  2.3683  1.3172  3.1465
  120OSM     O312631   6.434   0.214   6.673  0.1160 -0.5059 -0.1923
  120OSM    HO312632   6.357   0.272   6.668 -0.4681 -1.3349 -0.9200
  120OSM    C4S12633   6.550   0.204   6.873  0.4558 -0.0306 -1.0159
  120OSM    H4S12634   6.655   0.180   6.895  0.3792  0.2711 -0.3208
  120OSM    C5S12635   6.455   0.151   6.962  0.0331 -0.7029  0.0568
  120OSM    H5S12636   6.348   0.175   6.952  0.5939  2.5119  1.1845
  120OSM    C6S12637   6.477   0.064   7.082 -0.2647  0.3795  0.0696
  120OSM    H6S12638   6.587   0.049   7.097 -0.1275 -1.2705 -2.2561
  120OSM    H6T12639   6.439  -0.040   7.071 -2.5965  1.1904  0.2628
  120OSM    C7S12640   6.414   0.127   7.212  0.1685 -0.2738  0.1408
  120OSM    H7S12641   6.306   0.144   7.194 -0.2763 -2.5425  0.5396
  120OSM    H7T12642   6.460   0.227   7.230  2.8315 -1.5823  0.9354
  120OSM    C8S12643   6.427   0.036   7.332  0.1316  0.7074 -0.2756
  120OSM    H8S12644   6.532   0.016   7.363 -1.1465 -1.1674  3.1474
  120OSM    H8T12645   6.372  -0.060   7.313 -4.9895  3.4067 -0.0328
  120OSM    C9S12646   6.369   0.105   7.453  0.7852 -0.5775  0.2217
  120OSM    H9S12647   6.261   0.083   7.439  0.1015  1.7004  1.5936
  120OSM    H9T12648   6.394   0.214   7.460  2.8699 -1.0438  0.5299
  120OSM   C10S12649   6.419   0.044   7.585  0.4816  0.3089 -0.1781
  120OSM   H10S12650   6.528   0.061   7.600  0.0645  1.9363  1.2199
  120OSM   H10T12651   6.407  -0.065   7.572 -0.7720  0.6215 -1.8100
  120OSM   C11S12652   6.346   0.078   7.716  0.1686  0.0172  0.3831
  120OSM   H11S12653   6.364  -0.014   7.776  0.0869 -1.5348 -1.8798
  120OSM   H11T12654   6.236   0.086   7.702  0.2591 -0.5967 -0.7303
  120OSM   C12S12655   6.394   0.200   7.795  0.5230 -0.1818  0.0851
  120OSM   H12S12656   6.377   0.290   7.733  0.8720  0.7182  1.2672
  120OSM   H12T12657   6.505   0.198   7.797  0.5337  0.1822 -0.0542
  120OSM   C13S12658   6.346   0.221   7.939  1.0053  0.0357  0.0356
  120OSM   H13S12659   6.236   0.210   7.932  1.3513 -3.9638 -0.2563
  120OSM   H13T12660   6.367   0.326   7.968  2.2693 -0.2630  0.2425
  120OSM   C14S12661   6.407   0.119   8.036 -0.2538 -0.0251  0.0351
  120OSM   H14S12662   6.507   0.152   8.071  1.2428 -3.2831 -1.0434
  120OSM   H14T12663   6.411   0.017   7.992 -0.0569 -0.3079  0.7024
  120OSM   C15S12664   6.329   0.100   8.167 -0.2394  0.1081 -0.6796
  120OSM   H15S12665   6.220   0.084   8.155 -0.5013  1.3928 -0.0691
  120OSM   H15T12666   6.352   0.193   8.225 -2.5331  0.0724  0.3184
  120OSM   C16S12667   6.387  -0.003   8.260  0.2915  0.3530 -0.3785
  120OSM   H16S12668   6.493   0.022   8.279  0.3318 -0.1259  0.0263
  120OSM   H16T12669   6.387  -0.108   8.225 -0.0600 -0.2711  1.4471
  120OSM   C17S12670   6.323   0.016   8.400 -0.3901  0.0657  0.1562
  120OSM   H17S12671   6.214  -0.006   8.406 -0.6202  0.8383 -0.9802
  120OSM   H17T12672   6.324   0.124   8.428 -2.0221 -0.3300  1.8996
  120OSM   C18S12673   6.396  -0.072   8.495  0.9114  0.3051 -0.1157
  120OSM   H18S12674   6.502  -0.040   8.503  1.0216  0.2109 -1.1427
  120OSM   H18T12675   6.394  -0.181   8.475 -1.4595  0.2696  0.1412
  120OSM   H18U12676   6.341  -0.067   8.591  0.3393 -1.1019 -0.3560
  120OSM    C1F12677   6.610   0.614   6.933  0.6953  0.7377  0.6565
  120OSM     OF12678   6.502   0.665   6.966 -0.1425 -0.2535 -0.3416
  120OSM    C2F12679   6.737   0.682   6.959  0.1263 -0.2444  0.1008
  120OSM    H2F12680   6.719   0.773   6.899 -1.3928 -1.2191 -0.9799
  120OSM    H2G12681   6.827   0.636   6.914 -0.4433  0.8962 -2.2413
  120OSM    C3F12682   6.778   0.695   7.108  0.0436  0.2081  0.1769
  120OSM    H3F12683   6.690   0.722   7.170  0.4372  1.2448  0.3067
  120OSM    H3G12684   6.853   0.777   7.102  1.9470 -1.4615  0.7706
  120OSM    C4F12685   6.829   0.568   7.158 -0.3603  0.4888  0.4622
  120OSM    H4F12686   6.907   0.547   7.081 -0.8283  2.2011 -0.5077
  120OSM    H4G12687   6.759   0.483   7.139 -1.3033  1.3640 -0.0367
  120OSM    C5F12688   6.873   0.568   7.302 -0.1738  1.0732  0.8560
  120OSM    H5F12689   6.789   0.612   7.360  0.3375  1.1082  1.5661
  120OSM    H5G12690   6.955   0.641   7.314 -0.2369  1.0656  1.3335
  120OSM    C6F12691   6.910   0.431   7.357 -0.1601  0.0123 -0.4698
  120OSM    H6F12692   6.981   0.395   7.280  0.8540  0.6235  0.1680
  120OSM    H6G12693   6.820   0.366   7.356  1.2470 -1.9987 -0.5375
  120OSM    C7F12694   6.964   0.441   7.501 -0.6165  0.8273  0.7299
  120OSM    H7F12695   6.911   0.501   7.578 -0.9321 -0.4435  1.5083
  120OSM    H7G12696   7.061   0.493   7.484 -1.0030  1.0080 -0.9638
  120OSM    C8F12697   7.002   0.303   7.555 -0.1419  0.4346 -0.4822
  120OSM    H8F12698   7.063   0.308   7.648 -1.0576  1.6092  0.0761
  120OSM    H8G12699   7.068   0.259   7.478  0.0930  0.3813 -0.2501
  120OSM    C9F12700   6.871   0.228   7.580  0.2469 -0.5799  0.1081
  120OSM    H9F12701   6.800   0.229   7.496  1.4612  0.0836 -0.9316
  120OSM   C10F12702   6.834   0.171   7.692 -1.0731 -0.1261 -0.2395
  120OSM   H10F12703   6.733   0.128   7.697 -0.3473 -1.8464 -0.0089
  120OSM   C11F12704   6.922   0.156   7.818  0.1472  0.4575 -0.8288
  120OSM   H11F12705   7.029   0.184   7.805 -0.1992  1.0641 -2.5745
  120OSM   H11G12706   6.916   0.048   7.842  1.5441  1.2160  3.2728
  120OSM   C12F12707   6.852   0.232   7.924 -0.2074  0.3174 -0.3576
  120OSM   H12F12708   6.742   0.219   7.912 -0.0110 -0.6304 -1.1795
  120OSM   H12G12709   6.864   0.342   7.912 -0.9177  0.4747  0.2609
  120OSM   C13F12710   6.900   0.195   8.069 -0.6577  0.4197  0.5289
  120OSM   H13F12711   7.003   0.231   8.090  1.3296 -4.1603 -0.8174
  120OSM   H13G12712   6.902   0.084   8.074 -0.5799  0.4904  3.2676
  120OSM   C14F12713   6.808   0.243   8.188  0.0353 -0.1475  0.1714
  120OSM   H14F12714   6.714   0.185   8.177 -0.6298  0.6840  1.3658
  120OSM   H14G12715   6.797   0.350   8.161 -1.3106 -0.7319 -1.7183
  120OSM   C15F12716   6.856   0.225   8.330 -0.5080  0.1352  0.5394
  120OSM   H15F12717   6.951   0.281   8.343 -0.7821  1.4605 -2.5622
  120OSM   H15G12718   6.874   0.116   8.338  1.4892  0.3196 -1.0055
  120OSM   C16F12719   6.755   0.275   8.432  0.8075 -0.4480 -0.6223
  120OSM   H16F12720   6.669   0.205   8.440  0.0647  0.4029 -1.0701
  120OSM   H16G12721   6.726   0.378   8.401  2.3061 -0.0090 -0.6100
  120OSM   C17F12722   6.813   0.271   8.575  0.2895  0.1857 -0.4070
  120OSM   H17F12723   6.834   0.379   8.591 -1.1016  0.5213 -0.7708
  120OSM   H17G12724   6.909   0.218   8.559 -0.1825 -0.0283 -2.7049
  120OSM   C18F12725   6.737   0.190   8.681 -0.0621 -0.2840  0.2047
  120OSM   H18F12726   6.761   0.225   8.783 -3.2265  0.8102  0.6083
  120OSM   H18G12727   6.769   0.084   8.666  2.9625  0.7701 -1.1964
  120OSM   H18H12728   6.628   0.201   8.666  0.1984  2.1026 -0.0575
  121OSM      N12729   1.169   1.808   5.780  0.1842  0.6925  0.5948
  121OSM    C1512730   1.018   1.801   5.784  0.7306 -0.0456 -0.0563
  121OSM   H15A12731   0.983   1.894   5.744  1.6667 -0.1663 -1.2010
  121OSM   H15B12732   0.995   1.805   5.889  0.6526 -0.0521 -0.0741
  121OSM   H15C12733   0.983   1.718   5.724 -0.0737  0.6932 -0.6175
  121OSM    C1412734   1.222   1.769   5.641  0.0735 -0.0529 -0.2574
  121OSM   H14A12735   1.180   1.833   5.565  2.2572  1.9880  0.1940
  121OSM   H14B12736   1.195   1.666   5.623 -1.9729  0.2675  0.8284
  121OSM   H14C12737   1.329   1.779   5.639  0.1685 -0.7203  0.8987
  121OSM    C1312738   1.209   1.950   5.805  0.8599  0.6078 -0.0154
  121OSM   H13A12739   1.158   2.014   5.733 -1.2447 -2.1331 -1.0803
  121OSM   H13B12740   1.316   1.960   5.805  1.1864 -2.5860 -0.0940
  121OSM   H13C12741   1.178   1.979   5.904  0.1357  0.2313 -0.1245
  121OSM    C1212742   1.226   1.711   5.887 -0.5450 -0.5186 -0.3807
  121OSM   H12A12743   1.333   1.726   5.893 -0.1421 -3.0401 -0.7259
  121OSM   H12B12744   1.209   1.611   5.851 -1.3444 -0.7826  0.7034
  121OSM    C1112745   1.164   1.698   6.026 -0.5059  1.0594 -0.1739
  121OSM   H11A12746   1.207   1.617   6.088  0.3551 -0.3090 -2.4649
  121OSM   H11B12747   1.060   1.662   6.006  0.4884 -2.2822  0.2763
  121OSM      P12748   1.122   1.857   6.235  0.1472  0.1168 -0.2761
  121OSM    O1312749   1.148   2.001   6.261  0.1453  0.1391  0.0874
  121OSM    O1412750   0.986   1.809   6.271 -0.3957  0.2079  0.4555
  121OSM    O1112751   1.223   1.778   6.333 -0.2902 -0.1500  0.4161
  121OSM    O1212752   1.166   1.825   6.089 -0.6174  0.3179 -0.9998
  121OSM    C1S12753   1.366   1.808   6.349 -0.2659  0.1703  0.0125
  121OSM    H1S12754   1.401   1.867   6.262 -0.5413 -0.1638 -0.3238
  121OSM    H1T12755   1.415   1.709   6.358  0.8913  0.6513 -0.9083
  121OSM     NF12756   1.537   1.922   6.484 -0.0729  1.4138 -0.0568
  121OSM    HNF12757   1.588   1.868   6.550 -1.5146 -2.4734 -1.9621
  121OSM    C2S12758   1.397   1.878   6.484 -0.1686 -0.1712 -0.8301
  121OSM    H2S12759   1.333   1.970   6.484 -0.5933 -0.4449  0.9773
  121OSM    C3S12760   1.353   1.794   6.607  0.5958 -0.2138  0.5247
  121OSM    H3S12761   1.396   1.691   6.606 -0.4982 -0.6957  1.9275
  121OSM     O312762   1.213   1.776   6.617 -0.2632 -0.4892 -0.9015
  121OSM    HO312763   1.168   1.793   6.534 -0.6094 -1.3140 -0.8895
  121OSM    C4S12764   1.398   1.864   6.735  0.6220 -0.0674 -0.3333
  121OSM    H4S12765   1.388   1.974   6.733  0.1907 -0.0800  1.2146
  121OSM    C5S12766   1.449   1.810   6.848  1.5569  0.1655  0.1405
  121OSM    H5S12767   1.449   1.700   6.845 -0.2497  0.1779 -0.4873
  121OSM    C6S12768   1.497   1.890   6.968 -0.2996 -0.9041  0.0528
  121OSM    H6S12769   1.451   1.991   6.977  0.3675 -0.6301  0.4553
  121OSM    H6T12770   1.606   1.909   6.954 -0.8479  2.1740 -0.5096
  121OSM    C7S12771   1.489   1.807   7.093 -0.1319  0.3862 -0.2277
  121OSM    H7S12772   1.541   1.710   7.077 -0.6138  0.6372 -3.9340
  121OSM    H7T12773   1.380   1.788   7.106  0.2670 -2.0652 -0.1633
  121OSM    C8S12774   1.543   1.884   7.207  0.1076  0.0576 -0.1274
  121OSM    H8S12775   1.497   1.986   7.203 -2.2448 -0.9756 -0.3139
  121OSM    H8T12776   1.653   1.897   7.197 -0.0546  1.0662 -0.6562
  121OSM    C9S12777   1.508   1.820   7.345  0.4206  0.7572  0.1000
  121OSM    H9S12778   1.571   1.729   7.349 -1.2281 -0.3824  0.4408
  121OSM    H9T12779   1.403   1.786   7.362  1.0457 -2.5071 -2.0247
  121OSM   C10S12780   1.544   1.912   7.462  0.8417 -0.2165  0.6981
  121OSM   H10S12781   1.505   2.012   7.431 -0.4498 -0.6694  0.8280
  121OSM   H10T12782   1.654   1.926   7.455  0.9631 -2.0478 -1.7122
  121OSM   C11S12783   1.482   1.858   7.589 -0.2445 -0.4496 -0.6071
  121OSM   H11S12784   1.514   1.754   7.611  0.9527  0.2421  1.0437
  121OSM   H11T12785   1.372   1.864   7.578 -0.4683 -2.6163  0.1944
  121OSM   C12S12786   1.524   1.937   7.718 -0.5319 -0.0862 -0.0805
  121OSM   H12S12787   1.532   2.045   7.698  1.0907  0.2782  2.3165
  121OSM   H12T12788   1.626   1.906   7.748  0.1686 -1.2980 -3.5034
  121OSM   C13S12789   1.435   1.892   7.835  0.0667 -0.5557  0.4495
  121OSM   H13S12790   1.425   1.783   7.820 -1.3982 -0.4647  0.6785
  121OSM   H13T12791   1.328   1.922   7.831  0.3349  0.6904  1.9908
  121OSM   C14S12792   1.504   1.917   7.969 -0.5872 -0.2929 -0.8007
  121OSM   H14S12793   1.590   1.985   7.954  0.8807 -1.6495  1.2663
  121OSM   H14T12794   1.540   1.821   8.011 -1.1403 -0.0219  0.3067
  121OSM   C15S12795   1.412   1.964   8.084  0.0558 -0.6845 -0.4022
  121OSM   H15S12796   1.368   1.876   8.137 -0.1796  0.4743  1.3732
  121OSM   H15T12797   1.323   2.022   8.052 -0.6577  0.2384  3.0330
  121OSM   C16S12798   1.496   2.055   8.181  0.1351 -0.3653  0.1364
  121OSM   H16S12799   1.422   2.096   8.253  0.8600  0.3722  0.4799
  121OSM   H16T12800   1.543   2.134   8.118 -1.6784  0.2994 -0.3954
  121OSM   C17S12801   1.608   1.987   8.257 -0.0983 -0.5555  0.4228
  121OSM   H17S12802   1.700   2.021   8.207 -1.4290  1.0577 -0.9840
  121OSM   H17T12803   1.602   1.879   8.233  1.6196 -0.5544 -0.0110
  121OSM   C18S12804   1.609   1.995   8.411 -1.1689 -0.4753 -0.3780
  121OSM   H18S12805   1.514   1.962   8.458 -0.6950  0.9240  1.6267
  121OSM   H18T12806   1.640   2.094   8.450 -0.4596 -1.4093  1.4963
  121OSM   H18U12807   1.686   1.921   8.441 -2.6615 -1.2851  1.5772
  121OSM    C1F12808   1.599   2.024   6.417  0.6356  0.3541 -0.1069
  121OSM     OF12809   1.559   2.068   6.307 -0.1953 -0.0943  0.0002
  121OSM    C2F12810   1.717   2.074   6.503 -0.3054  0.0176  0.1643
  121OSM    H2F12811   1.813   2.060   6.448 -0.4016  0.2939 -0.0777
  121OSM    H2G12812   1.727   2.011   6.594  0.0150  0.4940  0.4608
  121OSM    C3F12813   1.725   2.227   6.538 -0.7243  0.3748 -0.1684
  121OSM    H3F12814   1.716   2.288   6.445 -0.3405  0.7580  0.0454
  121OSM    H3G12815   1.829   2.247   6.571 -0.4732 -0.1859 -0.6070
  121OSM    C4F12816   1.624   2.272   6.642 -0.1334  0.3099 -0.1626
  121OSM    H4F12817   1.518   2.254   6.614  0.6043 -0.1981 -2.7988
  121OSM    H4G12818   1.632   2.383   6.634 -2.7345  0.7221  2.1136
  121OSM    C5F12819   1.631   2.206   6.781  0.5144 -0.7497 -0.6711
  121OSM    H5F12820   1.619   2.097   6.763 -0.6429 -1.3131  3.1377
  121OSM    H5G12821   1.538   2.252   6.821  0.9892  0.1968 -0.6269
  121OSM    C6F12822   1.743   2.255   6.876 -0.4162  0.8732  0.9047
  121OSM    H6F12823   1.728   2.365   6.884 -1.5058  0.7215  0.9839
  121OSM    H6G12824   1.840   2.234   6.827 -0.3394  1.6248  0.7287
  121OSM    C7F12825   1.740   2.173   7.004  0.3196 -0.1082 -0.4293
  121OSM    H7F12826   1.750   2.063   6.987  1.4079  0.2245 -2.0708
  121OSM    H7G12827   1.640   2.194   7.046  1.4129  1.5509  1.4341
  121OSM    C8F12828   1.851   2.209   7.106  0.1869 -0.2555 -0.0374
  121OSM    H8F12829   1.844   2.318   7.122  0.7732 -0.3055  0.5909
  121OSM    H8G12830   1.953   2.193   7.065 -0.3084 -3.5038 -0.1657
  121OSM    C9F12831   1.821   2.140   7.240 -0.2089 -0.7134  0.4183
  121OSM    H9F12832   1.854   2.035   7.246  0.0675 -0.6610 -0.1252
  121OSM   C10F12833   1.775   2.196   7.355  0.2722 -0.5772  0.3599
  121OSM   H10F12834   1.785   2.133   7.445  1.7721 -1.6779 -0.5415
  121OSM   C11F12835   1.744   2.344   7.383 -0.6301  0.1057  0.2644
  121OSM   H11F12836   1.769   2.412   7.298  0.3769 -1.0715 -0.4023
  121OSM   H11G12837   1.801   2.381   7.470 -0.8131  0.0377  0.4121
  121OSM   C12F12838   1.594   2.374   7.396  0.3191  0.1463  0.3133
  121OSM   H12F12839   1.547   2.327   7.306  1.9210 -1.6724  0.3832
  121OSM   H12G12840   1.575   2.483   7.391  2.1001  0.3663 -2.7614
  121OSM   C13F12841   1.537   2.307   7.525 -0.5770 -1.2475 -0.2640
  121OSM   H13F12842   1.586   2.208   7.538 -1.8169 -1.9044 -0.5103
  121OSM   H13G12843   1.427   2.306   7.511 -0.9406  0.9085  2.0406
  121OSM   C14F12844   1.577   2.382   7.655  0.4824 -0.3724 -0.8830
  121OSM   H14F12845   1.562   2.490   7.634 -0.7615 -0.4654 -0.4706
  121OSM   H14G12846   1.684   2.355   7.667  0.4130 -0.4743 -0.4749
  121OSM   C15F12847   1.490   2.348   7.776 -0.0026  0.2116 -0.4627
  121OSM   H15F12848   1.492   2.237   7.776 -0.1365  0.2082 -0.6463
  121OSM   H15G12849   1.384   2.376   7.759 -1.0647 -2.8874  0.6092
  121OSM   C16F12850   1.537   2.421   7.910  0.2906  0.0653  0.1615
  121OSM   H16F12851   1.450   2.419   7.979  1.1996  0.5902  1.3288
  121OSM   H16G12852   1.555   2.530   7.900 -0.2260  0.2746  1.4470
  121OSM   C17F12853   1.656   2.353   7.979 -0.0301 -0.2969  0.6136
  121OSM   H17F12854   1.751   2.378   7.927 -0.2563  0.4194  0.5517
  121OSM   H17G12855   1.645   2.242   7.975 -0.0324 -0.3148  1.0033
  121OSM   C18F12856   1.679   2.388   8.128 -0.0811 -0.4114  0.4112
  121OSM   H18F12857   1.760   2.324   8.171  1.0927  0.2339 -0.7951
  121OSM   H18G12858   1.593   2.380   8.197 -0.2741  1.9543  0.4905
  121OSM   H18H12859   1.709   2.495   8.123 -0.8344 -0.2616 -1.0775
  122OSM      N12860   6.766   3.682   5.765  0.4409 -0.0365  0.3406
  122OSM    C1512861   6.803   3.548   5.804  0.0846 -0.4456  0.4821
  122OSM   H15A12862   6.886   3.552   5.873  0.8808 -1.2463 -0.4222
  122OSM   H15B12863   6.841   3.488   5.723  0.8597 -1.6083  1.6822
  122OSM   H15C12864   6.726   3.490   5.853 -0.0098 -0.4837  0.2876
  122OSM    C1412865   6.877   3.768   5.710 -0.5946 -1.1196  0.7868
  122OSM   H14A12866   6.942   3.812   5.785 -1.2103 -0.7284  1.0953
  122OSM   H14B12867   6.831   3.856   5.667  0.5178  0.0049  1.8494
  122OSM   H14C12868   6.936   3.713   5.638 -0.4679  0.3143 -0.2346
  122OSM    C1312869   6.675   3.666   5.644 -0.3525 -0.6428  0.0813
  122OSM   H13A12870   6.616   3.754   5.621 -0.0602 -0.6093 -0.5520
  122OSM   H13B12871   6.612   3.578   5.650  0.2358 -0.8972  2.8563
  122OSM   H13C12872   6.737   3.645   5.558  0.1327  0.1039  0.2487
  122OSM    C1212873   6.680   3.751   5.870 -0.0609 -0.5748 -0.1308
  122OSM   H12A12874   6.580   3.710   5.872 -1.6340  3.1423  1.0462
  122OSM   H12B12875   6.653   3.849   5.835  0.8594  0.1119  1.0748
  122OSM    C1112876   6.740   3.775   6.014  0.3026  0.4787 -0.2591
  122OSM   H11A12877   6.789   3.677   6.034  0.1708 -0.5285 -4.5123
  122OSM   H11B12878   6.666   3.807   6.090  0.3002  1.9000 -0.8457
  122OSM      P12879   6.815   4.017   5.983 -0.0481 -0.1027  0.2727
  122OSM    O1312880   6.934   4.089   5.945  0.1222 -0.1576  0.0511
  122OSM    O1412881   6.693   4.049   5.906  0.7292  0.2825 -0.0559
  122OSM    O1112882   6.782   4.045   6.137 -0.7292 -0.0150  0.6313
  122OSM    O1212883   6.851   3.865   6.001 -0.4456 -0.0362  0.3867
  122OSM    C1S12884   6.888   4.020   6.239 -0.4132  0.1304  0.2116
  122OSM    H1S12885   6.971   4.091   6.223 -0.6754  0.3063 -0.3758
  122OSM    H1T12886   6.922   3.915   6.226  0.0987  0.3082  0.0929
  122OSM     NF12887   6.959   4.041   6.478 -0.6118 -0.2905 -0.1847
  122OSM    HNF12888   6.953   3.975   6.552  2.0263  0.0710  0.4010
  122OSM    C2S12889   6.843   4.051   6.383  0.0162 -0.2391  0.2334
  122OSM    H2S12890   6.812   4.157   6.394 -2.0947 -0.8649  0.4960
  122OSM    C3S12891   6.722   3.960   6.409  0.1264  0.5781 -0.0651
  122OSM    H3S12892   6.748   3.853   6.398  0.2297  0.7451 -1.4863
  122OSM     O312893   6.603   3.984   6.331 -0.2334 -0.4429  0.1150
  122OSM    HO312894   6.640   4.024   6.252 -2.3023 -2.6080 -2.0384
  122OSM    C4S12895   6.684   3.971   6.557  0.9961  0.6584  0.4469
  122OSM    H4S12896   6.732   3.901   6.626  1.0745  1.1869  0.9305
  122OSM    C5S12897   6.604   4.066   6.605  0.2631  0.1020 -0.9597
  122OSM    H5S12898   6.551   4.132   6.535 -0.1707 -1.0190 -1.7058
  122OSM    C6S12899   6.560   4.083   6.748 -0.4702  0.6577  0.1847
  122OSM    H6S12900   6.450   4.069   6.754 -1.0049  3.4527 -1.8015
  122OSM    H6T12901   6.591   4.186   6.779 -1.8938  0.9857  0.5611
  122OSM    C7S12902   6.615   3.978   6.850 -0.1880 -0.0299  0.4691
  122OSM    H7S12903   6.723   3.958   6.832  0.0480  1.1016  0.6275
  122OSM    H7T12904   6.556   3.884   6.843  0.6938 -0.5682  0.0005
  122OSM    C8S12905   6.602   4.039   6.988  0.2545  0.3989  0.0615
  122OSM    H8S12906   6.496   4.063   7.010  0.1046 -0.0217 -0.2023
  122OSM    H8T12907   6.665   4.131   6.989  1.2658 -0.2785 -0.0000
  122OSM    C9S12908   6.651   3.952   7.114  0.0777 -0.0532  0.1323
  122OSM    H9S12909   6.755   3.921   7.093 -0.0589 -0.0902 -0.5296
  122OSM    H9T12910   6.580   3.867   7.126  1.1026 -1.0889 -1.0173
  122OSM   C10S12911   6.623   4.018   7.251 -0.5185  0.2362  0.3255
  122OSM   H10S12912   6.514   4.036   7.263 -0.7415 -1.6570  1.2105
  122OSM   H10T12913   6.685   4.111   7.256 -1.6512  0.9400  1.6900
  122OSM   C11S12914   6.665   3.936   7.375  0.4336 -0.4804  0.1042
  122OSM   H11S12915   6.776   3.930   7.380  0.4795 -0.3851 -0.7734
  122OSM   H11T12916   6.632   3.835   7.342  1.6336 -0.1823 -2.0984
  122OSM   C12S12917   6.607   3.977   7.513  0.1768 -0.3871  0.1620
  122OSM   H12S12918   6.505   4.014   7.488  0.1437 -1.9625 -2.1686
  122OSM   H12T12919   6.664   4.065   7.552 -2.1574  1.8010 -1.1989
  122OSM   C13S12920   6.624   3.873   7.618 -0.3725  0.5910  0.0805
  122OSM   H13S12921   6.732   3.851   7.633 -0.5820 -1.0672 -0.6431
  122OSM   H13T12922   6.573   3.784   7.574  1.5804 -0.3551 -0.3744
  122OSM   C14S12923   6.574   3.916   7.757  0.1838  0.0407 -0.4128
  122OSM   H14S12924   6.463   3.909   7.758 -0.1212  3.7741  2.5872
  122OSM   H14T12925   6.586   4.020   7.793  0.6881 -0.3692  0.6259
  122OSM   C15S12926   6.610   3.813   7.873 -0.2171  0.5212 -0.1223
  122OSM   H15S12927   6.711   3.768   7.863  2.0857  5.4691 -0.5749
  122OSM   H15T12928   6.536   3.730   7.874 -1.5949  1.6690 -2.0769
  122OSM   C16S12929   6.604   3.880   8.011 -0.0479  0.3133  0.2261
  122OSM   H16S12930   6.612   3.799   8.086  0.2996  1.5371  1.5389
  122OSM   H16T12931   6.506   3.930   7.998  0.9140  1.6557 -2.2737
  122OSM   C17S12932   6.707   3.984   8.047 -0.6200  0.3617  0.3776
  122OSM   H17S12933   6.778   3.992   7.962 -2.1243 -1.4670 -1.1161
  122OSM   H17T12934   6.763   3.948   8.135  1.7495 -1.5015 -1.8160
  122OSM   C18S12935   6.648   4.122   8.072  0.7449  0.0400  0.2643
  122OSM   H18S12936   6.607   4.155   7.973 -1.4688 -0.2565  1.0521
  122OSM   H18T12937   6.719   4.198   8.113  2.1129  0.2780 -2.4131
  122OSM   H18U12938   6.561   4.105   8.138 -0.0373  4.8923  0.6759
  122OSM    C1F12939   7.066   4.122   6.479 -0.0374  0.7199 -0.1263
  122OSM     OF12940   7.080   4.214   6.397  0.1664 -0.2362 -0.4057
  122OSM    C2F12941   7.163   4.088   6.584  1.0247 -0.5649  0.3917
  122OSM    H2F12942   7.249   4.043   6.531  1.0416  1.7021 -1.6137
  122OSM    H2G12943   7.116   4.017   6.655  1.3830 -0.0680  1.1364
  122OSM    C3F12944   7.214   4.214   6.662 -0.5336  0.3983  0.2667
  122OSM    H3F12945   7.138   4.281   6.707  0.7001  0.6505  2.0787
  122OSM    H3G12946   7.280   4.268   6.590  1.0716 -2.7867 -0.7268
  122OSM    C4F12947   7.315   4.184   6.775 -1.0879  1.0423 -0.0706
  122OSM    H4F12948   7.411   4.146   6.734 -1.9072  1.0017 -2.0137
  122OSM    H4G12949   7.266   4.105   6.836  3.3184  0.2065  2.6651
  122OSM    C5F12950   7.354   4.308   6.858  0.3694 -0.6588  0.7807
  122OSM    H5F12951   7.389   4.281   6.959 -1.0566  0.2302  1.5373
  122OSM    H5G12952   7.268   4.376   6.876  0.2785 -0.1586 -1.3347
  122OSM    C6F12953   7.462   4.384   6.783 -0.5212  0.6230 -0.2416
  122OSM    H6F12954   7.423   4.453   6.705 -0.1903 -0.2250 -1.1704
  122OSM    H6G12955   7.533   4.315   6.732 -1.9293 -0.3552 -0.9153
  122OSM    C7F12956   7.544   4.470   6.883 -0.6648 -0.3051  0.6211
  122OSM    H7F12957   7.579   4.399   6.961  2.0807  1.0030  0.6510
  122OSM    H7G12958   7.467   4.528   6.937 -0.8036  0.7583 -0.7053
  122OSM    C8F12959   7.644   4.562   6.827 -0.0238 -0.0632  0.7016
  122OSM    H8F12960   7.672   4.618   6.919 -0.6396  0.9220  0.2887
  122OSM    H8G12961   7.602   4.632   6.751 -1.3004 -1.3025  0.2384
  122OSM    C9F12962   7.760   4.486   6.775  0.2808 -0.1929  0.2118
  122OSM    H9F12963   7.731   4.417   6.694 -1.0797  0.0656  0.4711
  122OSM   C10F12964   7.888   4.493   6.812  0.4508 -0.0120  0.0832
  122OSM   H10F12965   7.952   4.423   6.757  0.0797  1.0660 -1.7848
  122OSM   C11F12966   7.955   4.583   6.913  0.0034 -0.2692 -0.3635
  122OSM   H11F12967   7.896   4.675   6.933 -1.6794 -1.5117  0.4231
  122OSM   H11G12968   8.061   4.610   6.892 -0.4866  0.5418 -1.8490
  122OSM   C12F12969   7.967   4.518   7.055 -0.3626  0.3410 -0.3616
  122OSM   H12F12970   8.029   4.588   7.115 -1.9016  1.5739 -0.1873
  122OSM   H12G12971   8.001   4.413   7.044  1.4887  0.6592  1.8494
  122OSM   C13F12972   7.843   4.531   7.140  0.5387  0.5513 -0.5388
  122OSM   H13F12973   7.766   4.476   7.082  0.3686  2.6460 -2.3404
  122OSM   H13G12974   7.799   4.631   7.160 -1.3125 -0.9570  3.3819
  122OSM   C14F12975   7.858   4.469   7.276 -0.0849  0.2870 -0.2695
  122OSM   H14F12976   7.894   4.366   7.254  0.4662  0.0247  1.7544
  122OSM   H14G12977   7.762   4.463   7.332  0.3913  1.8061  0.7267
  122OSM   C15F12978   7.953   4.553   7.374  0.1317  0.1558  0.5449
  122OSM   H15F12979   7.912   4.656   7.380  1.0166  0.6808 -1.8139
  122OSM   H15G12980   8.046   4.548   7.314  0.4356  0.6481  0.9746
  122OSM   C16F12981   7.979   4.493   7.507 -0.0864 -0.5684  0.5846
  122OSM   H16F12982   8.036   4.399   7.492  2.7524  1.2780 -0.6092
  122OSM   H16G12983   7.883   4.472   7.560 -0.9358 -2.8975 -1.7172
  122OSM   C17F12984   8.053   4.574   7.605  0.7763  0.5151 -0.2182
  122OSM   H17F12985   8.009   4.675   7.619  1.9610  1.1751 -1.1430
  122OSM   H17G12986   8.156   4.594   7.570  0.4138  2.5659 -0.2251
  122OSM   C18F12987   8.077   4.506   7.741  0.4253  0.3518 -0.5284
  122OSM   H18F12988   7.978   4.483   7.786  0.9470  1.0108  1.0058
  122OSM   H18G12989   8.134   4.575   7.808 -0.4785  1.3022 -0.7394
  122OSM   H18H12990   8.135   4.412   7.731  0.6334  0.3861  0.2660
  123OSM      N12991   5.779   6.558   6.478 -1.3742  0.4689 -0.1208
  123OSM    C1512992   5.807   6.418   6.524 -0.1485 -0.5535 -0.8826
  123OSM   H15A12993   5.901   6.406   6.574  0.7594 -0.8416 -2.6353
  123OSM   H15B12994   5.802   6.361   6.432 -0.4789  0.5069 -1.5332
  123OSM   H15C12995   5.723   6.373   6.576  0.5309 -2.9695 -1.8063
  123OSM    C1412996   5.755   6.647   6.595  0.1583 -0.0351 -0.1537
  123OSM   H14A12997   5.840   6.636   6.660  0.8186 -2.3007 -1.3532
  123OSM   H14B12998   5.666   6.620   6.649  0.8230 -0.0728  0.9374
  123OSM   H14C12999   5.757   6.751   6.565  1.0450  0.1133  0.4040
  123OSM    C1313000   5.893   6.604   6.397  0.3375 -0.7575 -0.2507
  123OSM   H13A13001   5.880   6.707   6.367  1.8545 -0.5038 -0.0723
  123OSM   H13B13002   5.897   6.546   6.306 -0.7467  1.7776 -1.9647
  123OSM   H13C13003   5.985   6.606   6.454  1.0898 -0.2437 -1.4536
  123OSM    C1213004   5.654   6.556   6.387  0.1555 -0.1707  0.7886
  123OSM   H12A13005   5.682   6.523   6.288  1.4091  1.6263  0.5254
  123OSM   H12B13006   5.621   6.659   6.377 -4.1479 -1.4227  1.2591
  123OSM    C1113007   5.534   6.474   6.427  0.1955 -0.5807  0.1538
  123OSM   H11A13008   5.566   6.368   6.435 -0.3687 -0.9290 -2.1114
  123OSM   H11B13009   5.459   6.492   6.347 -0.2893  0.3291  0.7918
  123OSM      P13010   5.364   6.589   6.584  0.8873  0.0704 -0.0184
  123OSM    O1313011   5.294   6.643   6.462  0.4830  0.9933  0.6453
  123OSM    O1413012   5.278   6.497   6.663 -0.3902  0.4880  0.3103
  123OSM    O1113013   5.408   6.711   6.678 -0.1595  0.0504  0.1968
  123OSM    O1213014   5.494   6.513   6.554 -0.0572 -0.3352 -0.3611
  123OSM    C1S13015   5.468   6.673   6.800  0.6381  0.7378 -0.1244
  123OSM    H1S13016   5.576   6.696   6.786  0.3412  1.4101 -1.2961
  123OSM    H1T13017   5.465   6.565   6.828 -0.9432  0.3759 -1.6591
  123OSM     NF13018   5.485   6.693   7.037  0.2084  0.4033  0.1085
  123OSM    HNF13019   5.426   6.658   7.109  0.2580 -1.7344 -0.8808
  123OSM    C2S13020   5.423   6.754   6.921 -0.2304  0.3349  0.1358
  123OSM    H2S13021   5.473   6.852   6.907  1.7932 -0.9647 -2.1945
  123OSM    C3S13022   5.268   6.791   6.923  0.9055 -0.1490 -0.1792
  123OSM    H3S13023   5.216   6.692   6.923  2.6374 -1.0824  0.8507
  123OSM     O313024   5.219   6.848   6.806  0.3917  0.0551  0.4293
  123OSM    HO313025   5.286   6.820   6.743  1.0694  0.1788  1.0924
  123OSM    C4S13026   5.222   6.860   7.054 -0.2416 -0.1226 -0.4963
  123OSM    H4S13027   5.220   6.785   7.134  0.0814 -1.0765 -1.3698
  123OSM    C5S13028   5.197   6.993   7.072 -0.4696  0.1395 -0.9406
  123OSM    H5S13029   5.210   7.050   6.978 -1.7064  1.2637 -0.4456
  123OSM    C6S13030   5.146   7.063   7.197 -0.1156 -0.5153  0.5906
  123OSM    H6S13031   5.085   7.150   7.166 -0.6914 -0.9425  0.5245
  123OSM    H6T13032   5.229   7.078   7.270  2.0986 -3.8746 -1.0891
  123OSM    C7S13033   5.037   6.985   7.282  0.4125 -0.4064  0.3610
  123OSM    H7S13034   5.071   6.882   7.307  1.7202 -0.2733 -0.8096
  123OSM    H7T13035   4.949   6.975   7.215  0.5868 -1.5663  0.2821
  123OSM    C8S13036   5.001   7.075   7.410 -0.4802 -0.3283  0.2285
  123OSM    H8S13037   4.926   7.154   7.387 -0.7275 -0.5974  0.1186
  123OSM    H8T13038   5.095   7.124   7.445 -0.3787  0.6693 -1.3803
  123OSM    C9S13039   4.941   6.990   7.529 -0.9054  0.2929  0.1693
  123OSM    H9S13040   5.006   6.901   7.540 -0.4594  0.4702 -0.9326
  123OSM    H9T13041   4.844   6.950   7.491 -0.0779 -0.1334 -1.5318
  123OSM   C10S13042   4.926   7.070   7.664  0.0859  0.0583 -0.1356
  123OSM   H10S13043   4.854   7.152   7.640 -0.7460 -1.0575 -1.5376
  123OSM   H10T13044   5.018   7.115   7.705 -1.2109  1.8654  0.8541
  123OSM   C11S13045   4.879   6.982   7.779  0.1848 -0.0393  0.8495
  123OSM   H11S13046   4.961   6.922   7.823  0.5860 -1.3437 -1.6224
  123OSM   H11T13047   4.809   6.909   7.733  0.4220  1.4547 -1.9696
  123OSM   C12S13048   4.800   7.068   7.886 -0.0157  0.5665 -0.3436
  123OSM   H12S13049   4.731   7.127   7.822 -0.0953  1.7286  0.7927
  123OSM   H12T13050   4.872   7.111   7.959 -0.3324 -1.3223  1.1277
  123OSM   C13S13051   4.720   6.983   7.988  0.4646 -0.2558 -0.2579
  123OSM   H13S13052   4.782   6.941   8.070 -1.2888  1.4631  1.9815
  123OSM   H13T13053   4.661   6.906   7.933  0.6975  0.3935 -1.4286
  123OSM   C14S13054   4.607   7.062   8.055 -0.1355  0.3398  0.1367
  123OSM   H14S13055   4.537   7.091   7.973 -2.0133 -1.2845  1.1314
  123OSM   H14T13056   4.653   7.158   8.088 -0.1646  1.5251 -3.0644
  123OSM   C15S13057   4.517   6.985   8.164  1.1703 -0.4460 -0.1288
  123OSM   H15S13058   4.494   6.882   8.130 -1.8746 -0.2120  1.0089
  123OSM   H15T13059   4.416   7.032   8.160  1.1075 -0.6515 -1.2690
  123OSM   C16S13060   4.591   6.964   8.294  1.1843  0.0321 -0.1852
  123OSM   H16S13061   4.644   7.051   8.339  3.7278 -1.6408  0.0930
  123OSM   H16T13062   4.674   6.895   8.269  1.5285  0.6539 -0.8025
  123OSM   C17S13063   4.504   6.891   8.391 -0.5529  0.3187 -1.0973
  123OSM   H17S13064   4.473   6.797   8.341  1.5109  0.0169 -1.8437
  123OSM   H17T13065   4.416   6.954   8.417  0.5386  2.2472 -1.9593
  123OSM   C18S13066   4.587   6.858   8.514 -0.4250 -0.2814 -0.2900
  123OSM   H18S13067   4.579   6.936   8.593 -1.8382  1.2892 -1.9164
  123OSM   H18T13068   4.691   6.833   8.487 -0.8281 -0.2308 -1.9544
  123OSM   H18U13069   4.548   6.764   8.557  1.1847  1.0102  4.2335
  123OSM    C1F13070   5.623   6.698   7.058  0.3346 -0.3623 -0.1943
  123OSM     OF13071   5.697   6.768   6.988 -0.1326  0.5276  0.3853
  123OSM    C2F13072   5.674   6.624   7.181 -0.1771 -0.0259 -0.3376
  123OSM    H2F13073   5.779   6.594   7.161 -0.2572  0.3116 -1.2775
  123OSM    H2G13074   5.604   6.540   7.201  0.7310 -0.3434  1.6561
  123OSM    C3F13075   5.649   6.713   7.303  0.3064 -0.2703  0.1058
  123OSM    H3F13076   5.560   6.780   7.303  0.0896 -0.5263 -1.6039
  123OSM    H3G13077   5.730   6.787   7.320  1.6924 -1.1383 -2.3506
  123OSM    C4F13078   5.618   6.631   7.429  0.1396  0.0143  0.7469
  123OSM    H4F13079   5.703   6.568   7.465 -0.0148 -1.6353 -1.6258
  123OSM    H4G13080   5.518   6.584   7.417 -0.7330  2.0738 -0.1469
  123OSM    C5F13081   5.598   6.716   7.553 -0.2712 -0.0250  0.2538
  123OSM    H5F13082   5.524   6.796   7.529  1.4915  2.0323  1.5487
  123OSM    H5G13083   5.692   6.769   7.576  0.1897 -0.5413 -0.4213
  123OSM    C6F13084   5.538   6.632   7.668 -0.4454  0.1159 -0.1462
  123OSM    H6F13085   5.614   6.552   7.676 -0.8895 -0.0982  2.3952
  123OSM    H6G13086   5.446   6.580   7.634 -0.9086 -1.0140  2.6582
  123OSM    C7F13087   5.508   6.707   7.799 -0.3592 -0.4181 -0.5145
  123OSM    H7F13088   5.452   6.799   7.770  3.0650  2.5849  2.0314
  123OSM    H7G13089   5.610   6.728   7.839 -1.4929 -0.1010  2.2934
  123OSM    C8F13090   5.433   6.620   7.903 -0.5166  0.0937  0.4706
  123OSM    H8F13091   5.345   6.582   7.847 -0.0601  1.6452 -1.3456
  123OSM    H8G13092   5.395   6.662   7.999 -2.1464 -1.2437  0.4354
  123OSM    C9F13093   5.514   6.503   7.944  0.4239  0.3008 -0.1823
  123OSM    H9F13094   5.538   6.425   7.871 -0.4592  1.4267 -1.6986
  123OSM   C10F13095   5.571   6.486   8.065 -0.8387 -0.4134 -0.1838
  123OSM   H10F13096   5.645   6.407   8.087 -0.1670  0.9207  2.5636
  123OSM   C11F13097   5.566   6.576   8.183  0.5410  0.0271  0.8124
  123OSM   H11F13098   5.509   6.670   8.166  1.5091  0.6789  1.1185
  123OSM   H11G13099   5.668   6.608   8.214  1.4903 -1.0844 -1.0609
  123OSM   C12F13100   5.510   6.501   8.296 -0.4405  0.7057  0.1669
  123OSM   H12F13101   5.496   6.570   8.382 -0.2227  0.1042  0.6886
  123OSM   H12G13102   5.585   6.422   8.317  3.2359  3.3478 -2.3545
  123OSM   C13F13103   5.369   6.451   8.265  0.0880  0.6574 -0.1479
  123OSM   H13F13104   5.379   6.359   8.204 -1.1677  0.5355 -0.1949
  123OSM   H13G13105   5.314   6.536   8.218  1.2380  0.8988 -1.0659
  123OSM   C14F13106   5.287   6.400   8.383 -0.7278  0.2225 -0.5929
  123OSM   H14F13107   5.189   6.372   8.339 -0.3906  0.8791 -1.8178
  123OSM   H14G13108   5.267   6.480   8.457  0.7338 -1.0647  1.2265
  123OSM   C15F13109   5.360   6.293   8.456  0.6619 -0.9590 -0.0287
  123OSM   H15F13110   5.468   6.313   8.470  0.4815  0.3106 -0.3476
  123OSM   H15G13111   5.343   6.195   8.406 -1.0411 -1.0866  0.7658
  123OSM   C16F13112   5.315   6.268   8.604  1.0008  0.2908  0.0553
  123OSM   H16F13113   5.215   6.219   8.598 -0.3784  3.2579 -2.8099
  123OSM   H16G13114   5.301   6.373   8.636 -0.5633  0.2028 -0.3203
  123OSM   C17F13115   5.413   6.194   8.695 -0.3018 -0.8653  0.4476
  123OSM   H17F13116   5.509   6.246   8.714 -1.3747  0.1011  3.3697
  123OSM   H17G13117   5.436   6.096   8.647  1.4708  0.0255 -0.5682
  123OSM   C18F13118   5.355   6.162   8.829 -0.2957 -0.3475  0.0459
  123OSM   H18F13119   5.418   6.084   8.878 -1.3554 -0.4382  1.2977
  123OSM   H18G13120   5.251   6.126   8.816  0.1400 -1.6305 -0.0137
  123OSM   H18H13121   5.342   6.243   8.904  0.9820  0.0265 -0.1183
  124OSM      N13122   6.513   2.599   6.331  0.3868  0.1461 -0.0576
  124OSM    C1513123   6.389   2.689   6.314  0.0368 -0.3375 -1.2808
  124OSM   H15A13124   6.329   2.678   6.403  1.6500  0.8933  0.0072
  124OSM   H15B13125   6.343   2.680   6.217  0.5087  0.5966 -1.6021
  124OSM   H15C13126   6.428   2.790   6.323 -1.0031 -0.0223 -0.1569
  124OSM    C1413127   6.600   2.634   6.217  0.2989 -0.1813 -0.4880
  124OSM   H14A13128   6.618   2.740   6.207  0.9088 -0.2294  0.0636
  124OSM   H14B13129   6.552   2.606   6.124  1.7479 -2.3881 -0.6249
  124OSM   H14C13130   6.686   2.569   6.224 -0.8199 -1.7056 -0.4559
  124OSM    C1313131   6.583   2.641   6.458 -0.6407 -0.5686  0.5467
  124OSM   H13A13132   6.680   2.593   6.461  0.3287  1.0551 -2.6342
  124OSM   H13B13133   6.531   2.607   6.546  0.6173  0.1417  1.5884
  124OSM   H13C13134   6.597   2.748   6.458 -0.0574 -0.6404  0.3311
  124OSM    C1213135   6.486   2.449   6.333  0.3826  0.3051 -0.2831
  124OSM   H12A13136   6.436   2.426   6.240  1.2654  1.7191 -1.1188
  124OSM   H12B13137   6.414   2.423   6.409  1.2617 -0.3441  0.3570
  124OSM    C1113138   6.608   2.357   6.359  1.0013 -0.2711 -0.0778
  124OSM   H11A13139   6.557   2.260   6.371 -0.4109  0.7334  2.2815
  124OSM   H11B13140   6.659   2.387   6.453  2.8876 -0.3635 -1.0465
  124OSM      P13141   6.844   2.307   6.237  0.1370  0.0072  0.0064
  124OSM    O1313142   6.835   2.184   6.154  0.0496  0.3748 -0.4647
  124OSM    O1413143   6.922   2.415   6.178  0.5026  0.0432 -0.1952
  124OSM    O1113144   6.898   2.264   6.373 -0.3036  0.7857 -0.4540
  124OSM    O1213145   6.696   2.353   6.246  0.3695  0.1562 -0.1170
  124OSM    C1S13146   6.983   2.359   6.447 -0.0205 -0.6460 -0.8294
  124OSM    H1S13147   6.940   2.461   6.442 -0.0910 -0.6317  0.0952
  124OSM    H1T13148   7.091   2.368   6.424  0.3744  1.1909  1.6078
  124OSM     NF13149   7.019   2.429   6.676 -0.7000 -0.2317  0.1745
  124OSM    HNF13150   7.117   2.430   6.693 -0.7213  1.6345  0.3599
  124OSM    C2S13151   6.977   2.318   6.596 -0.3641  0.2122  0.0409
  124OSM    H2S13152   6.871   2.304   6.626 -0.2822 -0.9794 -0.2189
  124OSM    C3S13153   7.062   2.191   6.620 -0.2115  0.0456  0.0075
  124OSM    H3S13154   7.169   2.204   6.593  0.2356 -0.6163  1.4157
  124OSM     O313155   7.025   2.070   6.550 -0.3841 -0.5456 -0.5717
  124OSM    HO313156   6.964   2.092   6.479 -1.0309 -2.6242 -0.6908
  124OSM    C4S13157   7.054   2.164   6.771  0.5853  0.5374  0.5093
  124OSM    H4S13158   7.130   2.222   6.825  1.6037 -2.1291  2.0418
  124OSM    C5S13159   6.963   2.088   6.836 -0.1524 -0.2894  0.6800
  124OSM    H5S13160   6.886   2.031   6.783 -0.2433 -0.5366  1.0805
  124OSM    C6S13161   6.953   2.082   6.984  0.1440 -0.1171  0.0280
  124OSM    H6S13162   7.044   2.114   7.040 -0.8441  0.0434  1.5846
  124OSM    H6T13163   6.925   1.986   7.032  1.0274 -0.1424  0.5123
  124OSM    C7S13164   6.828   2.178   7.017  0.8503 -0.2053 -0.3431
  124OSM    H7S13165   6.733   2.133   6.979  0.1195  1.6438 -0.7322
  124OSM    H7T13166   6.842   2.276   6.967 -0.7566  0.1577 -0.1021
  124OSM    C8S13167   6.801   2.201   7.170  0.9349  0.9129  0.3022
  124OSM    H8S13168   6.889   2.250   7.218  0.5354  1.7614  0.1675
  124OSM    H8T13169   6.787   2.101   7.218 -1.2958  0.0706 -2.0108
  124OSM    C9S13170   6.671   2.276   7.209  0.0397 -0.1670  0.3097
  124OSM    H9S13171   6.588   2.230   7.151 -0.3259  0.2759  0.4836
  124OSM    H9T13172   6.679   2.386   7.193 -0.6355 -0.3070 -1.0942
  124OSM   C10S13173   6.639   2.266   7.364  0.5397 -0.1958  0.2093
  124OSM   H10S13174   6.682   2.173   7.408  0.8297  0.1600  0.6717
  124OSM   H10T13175   6.528   2.261   7.378  0.8817 -2.0880  2.6779
  124OSM   C11S13176   6.686   2.389   7.449  0.7505  0.1442  0.5158
  124OSM   H11S13177   6.657   2.477   7.389 -0.0625 -0.7719 -0.4588
  124OSM   H11T13178   6.797   2.398   7.450  0.8842 -1.3503  1.0565
  124OSM   C12S13179   6.627   2.396   7.586  0.6955  0.4053  0.1965
  124OSM   H12S13180   6.638   2.292   7.624  0.5618 -0.7259 -2.6848
  124OSM   H12T13181   6.519   2.424   7.582  0.2027 -1.4870 -0.6702
  124OSM   C13S13182   6.693   2.497   7.672  0.0873  0.2097 -0.4300
  124OSM   H13S13183   6.678   2.598   7.629  0.2512 -0.2595 -1.5952
  124OSM   H13T13184   6.804   2.485   7.678  0.3402  2.5627  0.0351
  124OSM   C14S13185   6.632   2.515   7.809 -0.1765 -0.2788 -0.3515
  124OSM   H14S13186   6.535   2.567   7.793 -0.3335 -0.2618  0.6162
  124OSM   H14T13187   6.708   2.572   7.866  1.2147  0.5979 -2.9852
  124OSM   C15S13188   6.595   2.385   7.882 -0.3347 -0.7849 -0.3529
  124OSM   H15S13189   6.680   2.315   7.868  1.0038  0.2538  2.1347
  124OSM   H15T13190   6.506   2.341   7.832 -1.5920  1.1706  0.0794
  124OSM   C16S13191   6.574   2.410   8.038 -0.4244  0.1928  0.6058
  124OSM   H16S13192   6.477   2.462   8.050 -0.6729 -0.1084 -0.0698
  124OSM   H16T13193   6.657   2.475   8.072  2.7796 -1.8529 -2.8692
  124OSM   C17S13194   6.597   2.272   8.103 -0.1562  0.1974 -0.4405
  124OSM   H17S13195   6.603   2.299   8.211  0.7602  1.3662 -0.7682
  124OSM   H17T13196   6.700   2.232   8.096  0.0970  0.7282  0.1721
  124OSM   C18S13197   6.494   2.173   8.075  0.1532 -0.7926  0.3649
  124OSM   H18S13198   6.500   2.091   8.149 -2.8436 -0.8520  0.6095
  124OSM   H18T13199   6.508   2.133   7.972  0.1924  0.3710 -0.0913
  124OSM   H18U13200   6.394   2.222   8.077 -0.2229 -1.5598  0.5894
  124OSM    C1F13201   6.955   2.551   6.679  0.4380 -0.3032 -0.3610
  124OSM     OF13202   6.837   2.549   6.644 -0.2689  0.5904 -0.7927
  124OSM    C2F13203   7.028   2.671   6.712  0.0795  0.1491  0.1571
  124OSM    H2F13204   6.956   2.756   6.718 -0.5901 -0.1967 -2.4738
  124OSM    H2G13205   7.084   2.693   6.619 -0.8823 -0.9808 -0.6932
  124OSM    C3F13206   7.109   2.661   6.839 -1.1846 -0.3806 -0.4283
  124OSM    H3F13207   7.145   2.758   6.880 -0.7367 -1.6690  2.3540
  124OSM    H3G13208   7.198   2.596   6.819 -0.1422  0.4313  1.4439
  124OSM    C4F13209   7.040   2.604   6.963 -0.1467  0.8564  0.3196
  124OSM    H4F13210   7.118   2.576   7.036 -1.7046 -1.5755  1.0820
  124OSM    H4G13211   6.989   2.509   6.939 -0.9799  0.6625  2.7134
  124OSM    C5F13212   6.936   2.702   7.012  0.3654 -0.2432 -0.5072
  124OSM    H5F13213   6.872   2.724   6.924 -0.9005  0.5135  0.5834
  124OSM    H5G13214   6.983   2.798   7.040 -0.8517  0.1426  0.2445
  124OSM    C6F13215   6.837   2.656   7.117  0.1040  0.4390 -0.3667
  124OSM    H6F13216   6.875   2.615   7.213 -0.9294  1.6520  0.5865
  124OSM    H6G13217   6.778   2.576   7.066  1.1312  0.3203 -1.3727
  124OSM    C7F13218   6.737   2.767   7.152 -0.1331 -0.1497  0.5710
  124OSM    H7F13219   6.686   2.784   7.055  0.9949 -1.1688 -0.2259
  124OSM    H7G13220   6.799   2.855   7.180  0.9394  0.7300 -4.1549
  124OSM    C8F13221   6.626   2.741   7.260  0.4368 -0.3089  0.9574
  124OSM    H8F13222   6.671   2.724   7.360  0.1039 -0.7181  1.0403
  124OSM    H8G13223   6.581   2.641   7.245  0.0853  0.3180 -2.5315
  124OSM    C9F13224   6.533   2.857   7.237 -0.6306  0.9377  0.2455
  124OSM    H9F13225   6.473   2.849   7.145  0.3824  1.8954 -0.5113
  124OSM   C10F13226   6.524   2.958   7.317  0.4490  0.2956 -0.0161
  124OSM   H10F13227   6.473   3.051   7.287 -0.3694 -0.3231 -0.5414
  124OSM   C11F13228   6.602   2.970   7.446 -0.9466 -0.3327 -0.0807
  124OSM   H11F13229   6.643   3.073   7.455 -0.3320 -0.4220 -1.6752
  124OSM   H11G13230   6.683   2.896   7.465 -1.1255 -0.7817 -1.0492
  124OSM   C12F13231   6.498   2.964   7.559 -0.0712  0.3075  0.3353
  124OSM   H12F13232   6.441   2.868   7.562  2.4133 -1.2263  0.1451
  124OSM   H12G13233   6.426   3.048   7.551 -0.7067 -0.3373 -0.6811
  124OSM   C13F13234   6.557   2.955   7.704 -0.2742  0.1365  0.6181
  124OSM   H13F13235   6.603   3.056   7.719  0.8880 -0.5282  1.6135
  124OSM   H13G13236   6.636   2.878   7.699  0.4355  0.9453 -1.5302
  124OSM   C14F13237   6.465   2.905   7.813  0.5195  0.3474 -0.5288
  124OSM   H14F13238   6.428   2.806   7.781 -1.3627  1.2667 -1.2666
  124OSM   H14G13239   6.376   2.971   7.809  0.6972  0.6007 -0.3303
  124OSM   C15F13240   6.518   2.907   7.959  0.3854  0.6840 -0.2640
  124OSM   H15F13241   6.528   3.006   8.009  1.3107 -0.9727  3.0178
  124OSM   H15G13242   6.619   2.860   7.955  0.8523  1.7726 -1.5656
  124OSM   C16F13243   6.416   2.840   8.060 -0.5417 -0.1427 -0.7728
  124OSM   H16F13244   6.396   2.736   8.029 -0.6487 -0.7411  1.2502
  124OSM   H16G13245   6.324   2.903   8.050  0.0217  0.5752 -1.5677
  124OSM   C17F13246   6.474   2.829   8.210 -0.5168  0.2919  0.0372
  124OSM   H17F13247   6.500   2.935   8.235  0.1200 -0.1624  1.3261
  124OSM   H17G13248   6.564   2.766   8.194 -0.1385  1.0059 -0.6745
  124OSM   C18F13249   6.368   2.767   8.300 -0.0403  0.0866 -0.3378
  124OSM   H18F13250   6.367   2.656   8.297  2.7673 -0.0095  0.8882
  124OSM   H18G13251   6.273   2.819   8.275 -0.3392  0.0042  0.6043
  124OSM   H18H13252   6.392   2.788   8.407 -0.1400 -0.2650 -0.2449
  125OSM      N13253   2.537   1.303   5.971  0.4061  0.6492  0.2358
  125OSM    C1513254   2.660   1.388   5.997 -0.4104  0.0191  0.4616
  125OSM   H15A13255   2.724   1.366   6.081 -1.1527  1.7639  1.5094
  125OSM   H15B13256   2.630   1.489   6.021  0.5880 -0.0480  2.0793
  125OSM   H15C13257   2.715   1.394   5.904  1.4393  2.7780  1.6484
  125OSM    C1413258   2.482   1.339   5.834 -0.1255 -0.0156 -0.0250
  125OSM   H14A13259   2.402   1.280   5.792  0.2652 -1.3394  1.0745
  125OSM   H14B13260   2.556   1.359   5.757  1.5938 -0.0793  1.5647
  125OSM   H14C13261   2.438   1.437   5.848 -0.1861 -0.2755  1.7327
  125OSM    C1313262   2.574   1.162   5.980  0.4311 -0.6794  0.2859
  125OSM   H13A13263   2.649   1.127   5.911  1.0081 -0.4675  0.7883
  125OSM   H13B13264   2.486   1.100   5.968 -1.1262  1.7870 -1.4667
  125OSM   H13C13265   2.612   1.150   6.081  1.9383  3.0223  0.2491
  125OSM    C1213266   2.434   1.344   6.076  0.3782 -0.0203  0.1629
  125OSM   H12A13267   2.402   1.444   6.051  0.4072  0.7348  2.9878
  125OSM   H12B13268   2.481   1.341   6.174 -0.9984 -1.9259  0.7979
  125OSM    C1113269   2.302   1.267   6.094  0.3174 -0.1524  0.0166
  125OSM   H11A13270   2.271   1.240   5.990 -2.3212 -0.4645  0.8567
  125OSM   H11B13271   2.220   1.324   6.141 -1.1815 -0.3345 -2.3090
  125OSM      P13272   2.351   1.141   6.318  0.0010 -0.2769 -0.6061
  125OSM    O1313273   2.250   1.049   6.375  0.0623 -0.3423 -0.5211
  125OSM    O1413274   2.491   1.104   6.342 -0.0271 -0.0836 -0.4408
  125OSM    O1113275   2.324   1.287   6.372  0.7100  0.6594  0.2636
  125OSM    O1213276   2.318   1.144   6.163  0.3255  0.4986 -0.3866
  125OSM    C1S13277   2.304   1.301   6.517 -0.4410 -0.1581 -0.3777
  125OSM    H1S13278   2.392   1.259   6.570 -1.0225  0.1166  0.8201
  125OSM    H1T13279   2.205   1.256   6.540 -1.2504  1.5765 -0.3932
  125OSM     NF13280   2.303   1.439   6.712 -0.5943 -0.6938  0.0954
  125OSM    HNF13281   2.224   1.463   6.766  1.9283 -1.8713  4.6038
  125OSM    C2S13282   2.293   1.450   6.567  0.1739  0.3941 -0.0186
  125OSM    H2S13283   2.377   1.510   6.525  1.7474 -2.7506 -1.5540
  125OSM    C3S13284   2.160   1.513   6.513  0.4595  0.8962  0.2631
  125OSM    H3S13285   2.073   1.467   6.565  0.1884 -1.5807 -2.2266
  125OSM     O313286   2.129   1.486   6.375 -0.1368  0.0969  0.1192
  125OSM    HO313287   2.209   1.456   6.332 -0.2956 -0.2782  0.0799
  125OSM    C4S13288   2.146   1.656   6.539 -0.0685  0.1503  0.4507
  125OSM    H4S13289   2.226   1.713   6.490 -0.8226  1.5737  0.8371
  125OSM    C5S13290   2.057   1.726   6.608  1.0428 -0.2904 -0.2017
  125OSM    H5S13291   1.988   1.672   6.674  1.0373  1.1331  0.9868
  125OSM    C6S13292   2.068   1.876   6.621 -0.5251 -0.4594  0.5844
  125OSM    H6S13293   2.018   1.899   6.717 -0.5895 -0.0323  0.4489
  125OSM    H6T13294   2.011   1.934   6.546 -2.0744 -1.7669  0.7431
  125OSM    C7S13295   2.214   1.930   6.618  0.5167  0.3712 -0.2043
  125OSM    H7S13296   2.255   1.921   6.516 -0.1080 -4.2178 -0.1844
  125OSM    H7T13297   2.283   1.866   6.676  1.3975  0.2319 -1.4063
  125OSM    C8S13298   2.217   2.075   6.656 -0.4739  0.2315 -0.1280
  125OSM    H8S13299   2.159   2.143   6.590 -0.8912 -0.2879 -0.2935
  125OSM    H8T13300   2.318   2.120   6.645 -0.1081  0.3117  3.1296
  125OSM    C9S13301   2.181   2.109   6.798  0.0586  0.4634  0.0772
  125OSM    H9S13302   2.072   2.097   6.813  0.3369 -0.9778  1.0920
  125OSM    H9T13303   2.205   2.216   6.817  0.0847  0.5606 -0.5215
  125OSM   C10S13304   2.252   2.015   6.896 -0.4170 -0.5688 -0.2088
  125OSM   H10S13305   2.363   2.020   6.901 -0.4089  2.4336 -2.3018
  125OSM   H10T13306   2.226   1.909   6.877  0.3889 -0.3187 -2.8823
  125OSM   C11S13307   2.203   2.060   7.035  0.2867  0.0466 -0.5145
  125OSM   H11S13308   2.100   2.020   7.039  0.4141 -0.0463  2.2859
  125OSM   H11T13309   2.207   2.171   7.042  0.5102 -0.0400  0.8976
  125OSM   C12S13310   2.279   1.982   7.148 -0.7134  0.1073  0.2339
  125OSM   H12S13311   2.377   2.033   7.157 -0.4668 -0.4218  0.5602
  125OSM   H12T13312   2.288   1.877   7.114  0.3367 -0.2500  1.5703
  125OSM   C13S13313   2.220   1.983   7.287 -0.0811 -0.1602 -0.0810
  125OSM   H13S13314   2.282   1.924   7.358 -1.3213  0.7455  1.8052
  125OSM   H13T13315   2.118   1.939   7.284  0.0656 -0.4790 -0.4496
  125OSM   C14S13316   2.216   2.124   7.346  0.6359 -0.7791 -0.6214
  125OSM   H14S13317   2.166   2.183   7.267  0.8036  0.8210  0.4473
  125OSM   H14T13318   2.320   2.158   7.364  0.3775 -0.1072 -0.3882
  125OSM   C15S13319   2.149   2.132   7.483  0.4189  0.4269  0.8879
  125OSM   H15S13320   2.190   2.063   7.560 -1.1157  0.7907  2.0682
  125OSM   H15T13321   2.051   2.081   7.474  2.0696 -2.9624  1.3060
  125OSM   C16S13322   2.133   2.273   7.531  1.0436  0.3304 -0.5556
  125OSM   H16S13323   2.046   2.331   7.492  0.4758 -0.0812  0.0880
  125OSM   H16T13324   2.224   2.331   7.506  0.6155  1.0900 -0.3685
  125OSM   C17S13325   2.119   2.289   7.689 -0.0493  0.0167 -0.1770
  125OSM   H17S13326   2.114   2.397   7.717  1.4789  0.2726 -0.8537
  125OSM   H17T13327   2.205   2.243   7.742  1.2219 -1.7046 -3.6170
  125OSM   C18S13328   1.994   2.230   7.739  0.2283 -0.2029 -0.3042
  125OSM   H18S13329   2.009   2.121   7.724  2.1545 -0.2144  1.5043
  125OSM   H18T13330   1.902   2.266   7.688 -0.4229 -0.5230  0.6213
  125OSM   H18U13331   1.985   2.254   7.847  1.2473  1.1474 -0.5047
  125OSM    C1F13332   2.414   1.415   6.779 -0.0201 -0.1654  0.5086
  125OSM     OF13333   2.517   1.396   6.716 -0.4649  0.2268  0.1486
  125OSM    C2F13334   2.397   1.413   6.933 -0.5511 -0.5729 -0.0435
  125OSM    H2F13335   2.331   1.330   6.964 -0.0055 -0.1862  2.2731
  125OSM    H2G13336   2.345   1.506   6.965  0.8654 -0.3265  1.6287
  125OSM    C3F13337   2.538   1.411   6.997 -0.2526  0.3274  0.0761
  125OSM    H3F13338   2.587   1.498   6.949  0.9651  1.3273  3.0116
  125OSM    H3G13339   2.582   1.312   6.971  0.8612  0.3984  1.6813
  125OSM    C4F13340   2.538   1.430   7.148  0.2335  0.6406  0.3151
  125OSM    H4F13341   2.522   1.540   7.154  0.7091  0.6830  0.7935
  125OSM    H4G13342   2.639   1.404   7.185 -0.4503  2.3157  3.5241
  125OSM    C5F13343   2.434   1.347   7.224  0.9436 -0.9590  0.1959
  125OSM    H5F13344   2.449   1.243   7.186 -1.8119 -0.8309 -1.3883
  125OSM    H5G13345   2.329   1.377   7.203  0.6239 -0.0542  2.9246
  125OSM    C6F13346   2.455   1.348   7.374  0.8401 -0.2961 -0.5940
  125OSM    H6F13347   2.471   1.453   7.408  1.7725 -1.4321  2.6215
  125OSM    H6G13348   2.552   1.300   7.398  1.1309  1.3696  1.6669
  125OSM    C7F13349   2.341   1.285   7.454  0.1098 -0.6921 -0.3117
  125OSM    H7F13350   2.341   1.176   7.430 -0.9390 -0.6495 -0.4915
  125OSM    H7G13351   2.246   1.327   7.417  1.2553 -0.3368 -2.9212
  125OSM    C8F13352   2.348   1.297   7.608 -0.1437  0.0650  0.0626
  125OSM    H8F13353   2.258   1.249   7.653 -0.5357  0.8501  0.1275
  125OSM    H8G13354   2.363   1.404   7.634 -0.0929 -0.1626  1.0018
  125OSM    C9F13355   2.465   1.221   7.659 -0.3702 -0.1781 -0.4188
  125OSM    H9F13356   2.503   1.141   7.594  1.5565  2.2141 -2.3612
  125OSM   C10F13357   2.525   1.237   7.776  0.1066  0.2667  0.6269
  125OSM   H10F13358   2.612   1.180   7.810 -1.7544 -1.8621  1.9429
  125OSM   C11F13359   2.477   1.336   7.878  0.2892 -0.3011 -0.2732
  125OSM   H11F13360   2.444   1.275   7.965  1.1630  1.2363  1.1681
  125OSM   H11G13361   2.390   1.399   7.852  1.4712  1.9582  1.0501
  125OSM   C12F13362   2.588   1.431   7.913  0.2957 -0.2668  0.1264
  125OSM   H12F13363   2.606   1.489   7.820  0.7674 -0.4489  0.1005
  125OSM   H12G13364   2.678   1.370   7.937  0.4430  0.5995  1.8715
  125OSM   C13F13365   2.575   1.511   8.037  0.1294 -0.1156  0.5453
  125OSM   H13F13366   2.489   1.581   8.024 -0.0927 -0.4409  0.2368
  125OSM   H13G13367   2.663   1.578   8.052 -1.5769  1.8631  2.0720
  125OSM   C14F13368   2.557   1.432   8.163 -1.0175 -0.5299 -0.2090
  125OSM   H14F13369   2.633   1.351   8.166 -0.1949  0.1568 -1.9509
  125OSM   H14G13370   2.458   1.381   8.166 -1.6696  0.7101 -0.3720
  125OSM   C15F13371   2.561   1.533   8.277 -0.4106 -0.7026  0.4628
  125OSM   H15F13372   2.533   1.477   8.368 -1.0167 -2.4404 -0.7645
  125OSM   H15G13373   2.492   1.620   8.274 -0.7680 -1.0115 -1.4004
  125OSM   C16F13374   2.704   1.597   8.306 -0.3986 -0.2292  0.2558
  125OSM   H16F13375   2.746   1.646   8.216 -0.5729  0.9796  0.8114
  125OSM   H16G13376   2.761   1.508   8.338 -1.9801 -1.2769  0.2024
  125OSM   C17F13377   2.695   1.710   8.412 -0.5660  0.0399  0.0761
  125OSM   H17F13378   2.637   1.674   8.500  0.1752  0.9562  0.9551
  125OSM   H17G13379   2.631   1.793   8.376 -1.2987  0.1493  1.5986
  125OSM   C18F13380   2.826   1.769   8.467 -0.2797  0.0840 -0.0741
  125OSM   H18F13381   2.891   1.691   8.511 -1.3719 -1.0215 -0.3765
  125OSM   H18G13382   2.803   1.822   8.562 -1.1203 -1.2707  0.4944
  125OSM   H18H13383   2.880   1.828   8.390  1.0698 -0.4056  0.5008
  126OSM      N13384   6.191   5.890   6.307 -0.1607  0.6744 -0.0292
  126OSM    C1513385   6.255   5.901   6.173  0.7083 -0.4135 -0.1060
  126OSM   H15A13386   6.313   5.992   6.173 -1.8943  1.3097  2.3462
  126OSM   H15B13387   6.174   5.908   6.102 -1.0804  1.3991  2.0240
  126OSM   H15C13388   6.319   5.816   6.152 -1.6879 -2.0241 -1.0901
  126OSM    C1413389   6.122   5.758   6.313 -0.7473 -0.3726 -0.6525
  126OSM   H14A13390   6.025   5.761   6.267 -0.8491  0.7711 -0.3915
  126OSM   H14B13391   6.112   5.731   6.417 -0.7247 -0.1736 -0.5982
  126OSM   H14C13392   6.185   5.681   6.271  1.4968  1.3680 -0.5889
  126OSM    C1313393   6.290   5.894   6.414 -0.6034 -1.2619 -0.8990
  126OSM   H13A13394   6.343   5.800   6.415 -0.3984 -1.2024 -2.8733
  126OSM   H13B13395   6.239   5.920   6.505 -0.9294 -0.1251 -1.3923
  126OSM   H13C13396   6.364   5.971   6.399 -0.5494 -1.3783 -1.2541
  126OSM    C1213397   6.094   6.005   6.320  0.5015 -1.2329  0.3093
  126OSM   H12A13398   6.010   5.993   6.254 -0.4931 -0.0503  1.3498
  126OSM   H12B13399   6.143   6.100   6.309 -1.2362 -0.0662  2.2031
  126OSM    C1113400   6.015   6.018   6.460 -0.6430 -0.6617 -0.7768
  126OSM   H11A13401   5.954   5.927   6.476  0.5206 -1.1303  1.0508
  126OSM   H11B13402   5.941   6.100   6.450 -0.3815 -0.5161 -1.5509
  126OSM      P13403   6.144   6.198   6.588  0.0152  0.1750 -0.0754
  126OSM    O1313404   6.259   6.200   6.679  0.2115  0.2520  0.1098
  126OSM    O1413405   6.159   6.273   6.459  0.0274 -0.0070  0.3463
  126OSM    O1113406   6.019   6.267   6.666  0.2837 -0.9269 -0.4979
  126OSM    O1213407   6.112   6.042   6.564  0.6903  0.0489  0.5287
  126OSM    C1S13408   5.948   6.195   6.763 -0.4461 -0.5225 -0.5089
  126OSM    H1S13409   5.955   6.089   6.731  0.4349 -0.4765 -0.5015
  126OSM    H1T13410   5.839   6.215   6.762 -0.1027  1.3884 -1.3743
  126OSM     NF13411   5.969   6.115   6.994 -0.3223 -0.5976 -0.5282
  126OSM    HNF13412   5.890   6.139   7.049  0.7086  2.7432 -0.4074
  126OSM    C2S13413   6.008   6.222   6.903 -0.5572 -0.2927  0.1403
  126OSM    H2S13414   6.119   6.218   6.897 -0.5543  0.9967 -0.6972
  126OSM    C3S13415   5.958   6.362   6.955 -0.0871 -0.2281 -0.4231
  126OSM    H3S13416   5.847   6.367   6.954 -0.0924 -0.3478 -0.5062
  126OSM     O313417   6.005   6.467   6.864 -0.1007 -0.5024 -0.2537
  126OSM    HO313418   6.032   6.426   6.782  2.4853  3.3135 -1.4659
  126OSM    C4S13419   6.002   6.386   7.096 -0.1981 -0.6362 -0.5951
  126OSM    H4S13420   5.929   6.358   7.173 -0.1425 -0.4157 -0.4606
  126OSM    C5S13421   6.130   6.436   7.119  0.5718 -0.2337  0.5440
  126OSM    H5S13422   6.202   6.436   7.037  2.0898  0.3312  1.8531
  126OSM    C6S13423   6.192   6.460   7.263 -0.3829  0.8099 -0.1859
  126OSM    H6S13424   6.236   6.561   7.273  0.6455  0.2407  1.2918
  126OSM    H6T13425   6.284   6.398   7.264  0.2629  1.7481  1.4899
  126OSM    C7S13426   6.102   6.436   7.388 -0.6580  0.6376  0.1237
  126OSM    H7S13427   6.055   6.336   7.383  1.0775 -0.2134  0.4412
  126OSM    H7T13428   6.026   6.516   7.379 -0.2304  1.5299  3.6219
  126OSM    C8S13429   6.176   6.431   7.522  0.5325  0.2104  0.0731
  126OSM    H8S13430   6.243   6.519   7.532  0.7156  0.0817 -0.0172
  126OSM    H8T13431   6.238   6.340   7.516  0.7716  0.3763  0.0418
  126OSM    C9S13432   6.075   6.409   7.637 -0.4161  0.8283 -0.1247
  126OSM    H9S13433   6.033   6.307   7.624  0.4173  0.0046  3.3167
  126OSM    H9T13434   5.992   6.482   7.624 -1.5817 -0.9398 -3.0360
  126OSM   C10S13435   6.133   6.405   7.777 -0.2033 -0.0430  0.0348
  126OSM   H10S13436   6.207   6.488   7.781  0.8379 -0.9947  0.9384
  126OSM   H10T13437   6.188   6.312   7.801  1.5670  1.0311  0.2254
  126OSM   C11S13438   6.021   6.431   7.876 -0.2912  0.5156 -0.9028
  126OSM   H11S13439   5.933   6.374   7.838 -0.3731 -0.4493  0.6846
  126OSM   H11T13440   5.995   6.538   7.887  1.2082  0.8337 -0.3223
  126OSM   C12S13441   6.050   6.367   8.017 -0.1045 -0.1063  0.4519
  126OSM   H12S13442   6.132   6.431   8.057  0.5617 -0.6846  0.0191
  126OSM   H12T13443   6.082   6.263   7.991  0.3135  0.1479 -0.0663
  126OSM   C13S13444   5.924   6.371   8.114 -0.0990  0.3679  0.8197
  126OSM   H13S13445   5.839   6.322   8.062  1.2470 -2.2789  1.0451
  126OSM   H13T13446   5.908   6.480   8.131  1.2856  1.0445 -1.9088
  126OSM   C14S13447   5.957   6.299   8.243 -0.2881 -0.4543 -0.6728
  126OSM   H14S13448   6.016   6.366   8.310 -0.1913  0.4109 -1.6014
  126OSM   H14T13449   6.025   6.216   8.215  3.8467  2.4937  0.1327
  126OSM   C15S13450   5.827   6.242   8.306  0.2442 -0.0080  0.0822
  126OSM   H15S13451   5.778   6.181   8.227  1.2618 -1.4840  0.5743
  126OSM   H15T13452   5.751   6.315   8.339 -0.4011 -0.4544 -0.4077
  126OSM   C16S13453   5.861   6.151   8.425 -0.2503  0.2553  0.3970
  126OSM   H16S13454   5.772   6.114   8.480 -0.3354 -0.2813 -0.0909
  126OSM   H16T13455   5.921   6.203   8.503 -1.3539  2.6200 -0.2934
  126OSM   C17S13456   5.926   6.018   8.397  0.3554  0.1833  0.9907
  126OSM   H17S13457   5.955   5.983   8.499  1.4335  0.1153  0.6656
  126OSM   H17T13458   6.012   6.027   8.328 -0.9345 -0.5437 -0.7286
  126OSM   C18S13459   5.829   5.914   8.347 -0.9133 -0.6682 -1.2505
  126OSM   H18S13460   5.784   5.954   8.254 -0.1853  2.1863 -0.4173
  126OSM   H18T13461   5.744   5.894   8.416  1.0682 -2.4307  0.7842
  126OSM   H18U13462   5.883   5.820   8.320  1.6646  0.0898  1.0150
  126OSM    C1F13463   6.019   5.985   6.995  0.4258 -0.5484  0.6602
  126OSM     OF13464   6.093   5.938   6.912 -0.0813  0.1405 -0.4065
  126OSM    C2F13465   5.967   5.895   7.104  0.4463  0.0195 -0.0435
  126OSM    H2F13466   5.864   5.867   7.074 -0.3057  2.2953  0.3460
  126OSM    H2G13467   5.936   5.956   7.192 -5.2428 -0.0379 -1.8014
  126OSM    C3F13468   6.042   5.767   7.151  0.2193 -0.0825  0.4440
  126OSM    H3F13469   6.141   5.781   7.199  0.4506 -1.0178  0.2668
  126OSM    H3G13470   6.053   5.719   7.051 -0.6428 -0.0872  0.3487
  126OSM    C4F13471   5.954   5.674   7.243  0.1580 -0.4424 -0.1387
  126OSM    H4F13472   6.012   5.581   7.262  0.7773 -0.7312 -3.1588
  126OSM    H4G13473   5.867   5.646   7.179 -0.3528  1.2897 -0.2086
  126OSM    C5F13474   5.896   5.737   7.369 -0.1848 -0.5273  0.3456
  126OSM    H5F13475   5.814   5.812   7.355 -0.0333 -0.2323  1.0143
  126OSM    H5G13476   5.962   5.814   7.414  0.3019 -0.6900 -0.0956
  126OSM    C6F13477   5.845   5.643   7.480  0.1179  0.4202 -0.3060
  126OSM    H6F13478   5.918   5.568   7.518 -2.0326 -2.1586 -1.0847
  126OSM    H6G13479   5.761   5.576   7.451 -0.7387 -0.3858  3.7352
  126OSM    C7F13480   5.785   5.721   7.598 -0.7524  0.3385  0.4586
  126OSM    H7F13481   5.692   5.764   7.557 -0.7513 -0.9968 -1.0089
  126OSM    H7G13482   5.866   5.796   7.611  0.3163 -0.3944 -1.6564
  126OSM    C8F13483   5.767   5.643   7.724  0.1267  0.0204 -0.1288
  126OSM    H8F13484   5.856   5.576   7.730 -0.0679 -0.0343  2.7711
  126OSM    H8G13485   5.680   5.574   7.712  1.5987 -1.9810  0.2978
  126OSM    C9F13486   5.771   5.713   7.857  0.3934  0.3695  0.2227
  126OSM    H9F13487   5.830   5.806   7.862  1.0126 -0.0209  0.2501
  126OSM   C10F13488   5.749   5.648   7.974 -0.0849 -0.3679  0.2502
  126OSM   H10F13489   5.758   5.706   8.067  1.7985  2.2331 -1.4603
  126OSM   C11F13490   5.703   5.511   8.001 -0.4965  0.7988  0.0022
  126OSM   H11F13491   5.784   5.440   8.031 -0.8285  0.6735  0.6193
  126OSM   H11G13492   5.655   5.457   7.917 -0.3919  0.0697  0.4012
  126OSM   C12F13493   5.628   5.522   8.136 -0.5445 -1.3926  0.1879
  126OSM   H12F13494   5.540   5.584   8.109  0.0558  0.1209  1.6324
  126OSM   H12G13495   5.696   5.576   8.204  0.0548 -0.4266 -1.1532
  126OSM   C13F13496   5.582   5.384   8.189 -0.4141 -0.4248 -0.0168
  126OSM   H13F13497   5.669   5.317   8.208  0.8914  1.5818  1.2409
  126OSM   H13G13498   5.523   5.340   8.105 -0.0755  0.1700 -0.5719
  126OSM   C14F13499   5.512   5.399   8.318 -0.1278 -0.1084 -0.0007
  126OSM   H14F13500   5.437   5.481   8.311 -0.3658 -0.2233  1.1155
  126OSM   H14G13501   5.588   5.431   8.392  1.9892 -0.4248 -2.0005
  126OSM   C15F13502   5.452   5.272   8.376 -1.2279  0.6267  0.3124
  126OSM   H15F13503   5.531   5.214   8.428 -0.0603  1.5700 -0.4017
  126OSM   H15G13504   5.414   5.210   8.292  3.0737 -1.4590 -0.2396
  126OSM   C16F13505   5.355   5.305   8.477 -0.1033 -0.6095 -0.0539
  126OSM   H16F13506   5.260   5.346   8.435 -0.8507  0.1086  2.2698
  126OSM   H16G13507   5.401   5.377   8.548  2.8975 -1.1886 -1.3317
  126OSM   C17F13508   5.312   5.193   8.567 -0.0545 -0.9685 -0.1675
  126OSM   H17F13509   5.296   5.103   8.503 -0.3251 -0.5695 -0.6667
  126OSM   H17G13510   5.215   5.215   8.618 -0.1881  1.7347 -1.5313
  126OSM   C18F13511   5.414   5.152   8.675  0.4375 -0.1915 -0.0735
  126OSM   H18F13512   5.377   5.065   8.733  0.1339 -0.0292 -0.0213
  126OSM   H18G13513   5.432   5.242   8.738  2.2242 -1.1446  0.8463
  126OSM   H18H13514   5.511   5.120   8.631 -1.1978 -1.4699 -2.8237
  127OSM      N13515   4.887   6.745   6.660  0.1903  0.2432  0.2167
  127OSM    C1513516   4.898   6.893   6.647 -0.2784 -0.3435  1.1531
  127OSM   H15A13517   5.000   6.927   6.651 -0.3546  0.3964 -1.7355
  127OSM   H15B13518   4.843   6.955   6.716 -0.3343  1.3598 -0.4015
  127OSM   H15C13519   4.866   6.922   6.548  1.7652  1.2323  0.9205
  127OSM    C1413520   4.964   6.676   6.555 -0.0915 -0.0198 -0.0656
  127OSM   H14A13521   4.948   6.570   6.545  0.1703  0.0413 -1.2029
  127OSM   H14B13522   5.070   6.690   6.572  0.3457 -1.7008 -1.2817
  127OSM   H14C13523   4.934   6.707   6.456  0.6505  0.2831 -0.2016
  127OSM    C1313524   4.944   6.720   6.792 -0.5270 -0.2520  0.1714
  127OSM   H13A13525   4.967   6.616   6.812  0.5753 -0.1148 -0.3330
  127OSM   H13B13526   4.888   6.755   6.877 -0.6533 -1.7197  0.7114
  127OSM   H13C13527   5.036   6.776   6.798 -0.0468 -0.7335 -2.1002
  127OSM    C1213528   4.739   6.705   6.647  0.6957  0.5058  0.2165
  127OSM   H12A13529   4.690   6.761   6.725 -0.8134  2.6511 -2.1865
  127OSM   H12B13530   4.727   6.603   6.678  0.5342  1.2533  2.7088
  127OSM    C1113531   4.665   6.729   6.517  0.3670 -0.4017  0.6560
  127OSM   H11A13532   4.567   6.680   6.533  0.1245  0.0477  0.5286
  127OSM   H11B13533   4.724   6.680   6.435  0.0584  0.5909 -0.1678
  127OSM      P13534   4.559   6.923   6.379 -0.1768 -0.4240 -0.1792
  127OSM    O1313535   4.621   7.049   6.331  0.7870  0.6733 -0.2561
  127OSM    O1413536   4.513   6.814   6.286 -0.2446 -0.1201  0.0067
  127OSM    O1113537   4.434   6.968   6.467  0.4555 -0.2313 -0.0187
  127OSM    O1213538   4.661   6.868   6.480  0.0776  0.1472  0.0341
  127OSM    C1S13539   4.442   6.981   6.611  0.0116  0.4986  0.2454
  127OSM    H1S13540   4.498   6.895   6.654  2.0422  0.3940 -2.5132
  127OSM    H1T13541   4.337   6.984   6.649  0.0473  1.1545  0.2917
  127OSM     NF13542   4.492   7.102   6.817 -0.8622 -0.8559  0.2009
  127OSM    HNF13543   4.442   7.179   6.856  1.1876  1.2426 -1.1694
  127OSM    C2S13544   4.503   7.115   6.669 -0.6404  0.5860  1.7527
  127OSM    H2S13545   4.612   7.115   6.654 -0.8791  0.2600  0.0025
  127OSM    C3S13546   4.431   7.237   6.609  0.8456 -0.9832  0.1837
  127OSM    H3S13547   4.321   7.229   6.608  0.7207  0.6395 -1.3254
  127OSM     O313548   4.460   7.250   6.469  0.3537 -0.0580  0.9527
  127OSM    HO313549   4.516   7.173   6.458 -0.8612 -1.0087  1.2716
  127OSM    C4S13550   4.473   7.369   6.666 -0.0726  0.7934 -0.4823
  127OSM    H4S13551   4.569   7.408   6.629 -0.4965  0.9466 -1.4342
  127OSM    C5S13552   4.399   7.440   6.752 -0.7043 -0.4264 -0.5187
  127OSM    H5S13553   4.294   7.412   6.768 -1.6103  1.4225 -3.0184
  127OSM    C6S13554   4.437   7.569   6.814  0.2041 -0.5065  0.6076
  127OSM    H6S13555   4.509   7.552   6.897  2.1310 -0.3184 -0.9894
  127OSM    H6T13556   4.348   7.617   6.861 -0.9925 -1.8213 -0.2584
  127OSM    C7S13557   4.494   7.666   6.715  0.0104 -0.0009  0.0089
  127OSM    H7S13558   4.443   7.657   6.617 -2.0660 -0.9388  1.1514
  127OSM    H7T13559   4.605   7.668   6.716 -0.0031  3.3183  0.1459
  127OSM    C8S13560   4.463   7.816   6.756 -0.7610 -1.1253 -0.6176
  127OSM    H8S13561   4.353   7.836   6.757 -0.4081  1.0003 -0.5370
  127OSM    H8T13562   4.511   7.872   6.674  1.4656 -2.6550 -0.3783
  127OSM    C9S13563   4.509   7.859   6.902 -0.1253  0.4946  0.4693
  127OSM    H9S13564   4.612   7.897   6.883  0.5034 -1.3393  0.0809
  127OSM    H9T13565   4.498   7.768   6.966 -0.8999  0.6769  0.6004
  127OSM   C10S13566   4.443   7.985   6.956  0.8719 -0.2590 -0.1029
  127OSM   H10S13567   4.446   8.061   6.876  2.1467 -1.1554 -0.9150
  127OSM   H10T13568   4.492   8.033   7.043 -0.3250 -1.6026  1.3556
  127OSM   C11S13569   4.294   7.961   6.988 -0.7812 -0.4121 -0.1025
  127OSM   H11S13570   4.233   7.935   6.899 -0.1253 -1.6223 -0.1996
  127OSM   H11T13571   4.251   8.056   7.029 -0.9716 -1.0169  1.1183
  127OSM   C12S13572   4.260   7.855   7.094  0.0664 -0.2581  0.1522
  127OSM   H12S13573   4.286   7.763   7.038  0.3265 -0.5155  0.6894
  127OSM   H12T13574   4.149   7.845   7.102 -0.0888  1.5565  0.4954
  127OSM   C13S13575   4.312   7.886   7.232  0.6362 -0.0296  0.3000
  127OSM   H13S13576   4.308   7.995   7.251  1.7875  0.1002 -0.1524
  127OSM   H13T13577   4.422   7.870   7.231  0.8389  1.2106 -2.5822
  127OSM   C14S13578   4.254   7.794   7.335 -0.3839 -0.2660 -0.1359
  127OSM   H14S13579   4.268   7.689   7.301  1.3056  0.6179 -2.3405
  127OSM   H14T13580   4.145   7.811   7.333 -0.6348 -1.7520 -0.0680
  127OSM   C15S13581   4.317   7.813   7.478  0.3101  0.4260  0.0995
  127OSM   H15S13582   4.333   7.922   7.489  2.0756  0.2347 -0.3927
  127OSM   H15T13583   4.421   7.773   7.480 -0.1868 -0.8439  2.9933
  127OSM   C16S13584   4.238   7.743   7.594  0.0782 -0.1677 -0.4312
  127OSM   H16S13585   4.291   7.659   7.644  0.9452  1.5523  1.6595
  127OSM   H16T13586   4.138   7.710   7.559  0.1263 -1.0059  0.2014
  127OSM   C17S13587   4.205   7.856   7.696  0.1660  0.7064 -0.0376
  127OSM   H17S13588   4.148   7.936   7.644 -0.2250  0.3286 -0.1973
  127OSM   H17T13589   4.306   7.895   7.721 -0.0832 -0.4851  2.9198
  127OSM   C18S13590   4.129   7.802   7.820  0.2057 -0.4855  0.0468
  127OSM   H18S13591   4.030   7.766   7.787 -0.5586  1.7971 -0.2079
  127OSM   H18T13592   4.111   7.889   7.887 -0.8990 -0.4507 -0.2940
  127OSM   H18U13593   4.181   7.718   7.873  0.4902 -0.7055 -0.5811
  127OSM    C1F13594   4.570   7.018   6.890 -0.5500 -0.8191 -0.0521
  127OSM     OF13595   4.659   6.947   6.849 -0.2069 -0.9429 -0.1877
  127OSM    C2F13596   4.555   7.029   7.034  0.5850 -0.6474 -0.1387
  127OSM    H2F13597   4.449   7.000   7.050  0.7742 -0.9764  0.5188
  127OSM    H2G13598   4.572   7.132   7.071 -3.1806  0.5890 -1.5945
  127OSM    C3F13599   4.646   6.937   7.113 -0.5259 -0.3479  0.1666
  127OSM    H3F13600   4.747   6.945   7.067 -0.1744  1.9991  1.2766
  127OSM    H3G13601   4.607   6.834   7.107 -0.0939 -0.5161  0.2208
  127OSM    C4F13602   4.657   6.975   7.259  0.2346  0.2986  0.5560
  127OSM    H4F13603   4.667   7.086   7.263  1.0117  0.2813 -0.7029
  127OSM    H4G13604   4.747   6.922   7.296  0.7298 -0.3823 -1.5971
  127OSM    C5F13605   4.531   6.945   7.342 -0.4429 -0.0600  0.3541
  127OSM    H5F13606   4.523   6.834   7.343  1.9683 -0.2751 -0.4433
  127OSM    H5G13607   4.447   7.006   7.303 -0.1737  0.9875  1.3947
  127OSM    C6F13608   4.556   6.973   7.498  0.1345 -0.4277 -0.2716
  127OSM    H6F13609   4.595   7.077   7.505 -0.4381 -0.3105  1.3045
  127OSM    H6G13610   4.648   6.922   7.531  0.6383  0.2884 -0.5530
  127OSM    C7F13611   4.427   6.960   7.582  0.0471 -0.1807  0.1043
  127OSM    H7F13612   4.389   6.856   7.577  0.3833 -0.2624 -0.8703
  127OSM    H7G13613   4.354   7.032   7.539  0.3187  0.3211  0.4763
  127OSM    C8F13614   4.453   7.000   7.727  0.1644  0.0706 -0.0264
  127OSM    H8F13615   4.513   7.094   7.726 -0.1291  0.2624  0.1988
  127OSM    H8G13616   4.522   6.922   7.765 -0.7967 -1.0694 -0.6208
  127OSM    C9F13617   4.324   6.990   7.799 -0.0650  0.1923 -0.6383
  127OSM    H9F13618   4.296   6.884   7.806  0.1017  0.3303  3.7196
  127OSM   C10F13619   4.267   7.091   7.873 -0.0924  0.3979 -0.2236
  127OSM   H10F13620   4.177   7.080   7.936  1.0224  0.6097  1.4487
  127OSM   C11F13621   4.329   7.231   7.890 -0.1916 -0.8625  0.0952
  127OSM   H11F13622   4.432   7.251   7.854 -0.8416  1.1557 -0.6975
  127OSM   H11G13623   4.326   7.260   7.997 -1.4318  1.2888 -0.4925
  127OSM   C12F13624   4.223   7.328   7.818 -0.1016 -0.6388  0.1574
  127OSM   H12F13625   4.232   7.431   7.859  1.4007 -0.9089  0.5243
  127OSM   H12G13626   4.120   7.304   7.853 -0.0982  1.4558  1.7067
  127OSM   C13F13627   4.236   7.344   7.671  0.3413  0.1301  0.8730
  127OSM   H13F13628   4.245   7.243   7.624 -0.9132  0.2431  0.3698
  127OSM   H13G13629   4.323   7.408   7.643 -0.6937  0.5457 -1.5143
  127OSM   C14F13630   4.114   7.401   7.593 -0.1174  0.6705 -0.5058
  127OSM   H14F13631   4.088   7.499   7.638 -1.0647 -0.2187  0.9307
  127OSM   H14G13632   4.031   7.333   7.624  4.2586 -3.3044  3.2849
  127OSM   C15F13633   4.137   7.419   7.442  0.7345 -0.5623  0.7632
  127OSM   H15F13634   4.222   7.489   7.426 -0.0265  0.6284  1.8069
  127OSM   H15G13635   4.047   7.456   7.388  0.1916 -2.0095  0.6575
  127OSM   C16F13636   4.178   7.285   7.377 -0.2782  0.2502 -0.0251
  127OSM   H16F13637   4.095   7.215   7.400  0.9224 -2.1501 -2.7331
  127OSM   H16G13638   4.271   7.239   7.416 -0.1982 -0.3755 -0.9396
  127OSM   C17F13639   4.192   7.296   7.220  0.3548 -0.2082 -0.1600
  127OSM   H17F13640   4.091   7.320   7.180 -0.8218 -0.6973  2.4075
  127OSM   H17G13641   4.206   7.196   7.175  3.3566 -0.3334  0.9979
  127OSM   C18F13642   4.309   7.388   7.174 -0.0041 -0.1843  0.5876
  127OSM   H18F13643   4.350   7.335   7.086  0.1962 -0.0297  0.5864
  127OSM   H18G13644   4.389   7.392   7.251  0.5506 -0.6133  0.0379
  127OSM   H18H13645   4.271   7.491   7.157 -1.4767 -1.1541 -2.2732
  128OSM      N13646   4.626   3.581   5.985  0.1845 -0.1352  0.0169
  128OSM    C1513647   4.594   3.501   5.856 -0.3558  0.7493 -0.6652
  128OSM   H15A13648   4.593   3.394   5.872  2.8373  1.1505  2.8163
  128OSM   H15B13649   4.652   3.531   5.769 -1.9167  2.1596 -1.2459
  128OSM   H15C13650   4.498   3.538   5.821 -1.1400 -1.2598 -0.6986
  128OSM    C1413651   4.779   3.582   6.001  1.3713  0.3829  0.2023
  128OSM   H14A13652   4.814   3.482   5.982 -1.1535 -0.4105 -0.5616
  128OSM   H14B13653   4.804   3.613   6.101  0.1751  0.0672  0.6149
  128OSM   H14C13654   4.816   3.654   5.930  2.4430  0.3745  0.7445
  128OSM    C1313655   4.577   3.717   5.968 -0.3016  0.7028 -0.1924
  128OSM   H13A13656   4.600   3.766   6.061 -0.9406 -1.2622  1.0164
  128OSM   H13B13657   4.469   3.726   5.968 -0.4468 -0.8673 -0.5545
  128OSM   H13C13658   4.635   3.765   5.891  1.9604 -0.1754  0.9304
  128OSM    C1213659   4.557   3.519   6.109 -0.4914 -0.2597  0.2458
  128OSM   H12A13660   4.606   3.423   6.120  0.8520  0.5144  1.1697
  128OSM   H12B13661   4.453   3.490   6.095 -0.8262  1.7226 -1.5170
  128OSM    C1113662   4.573   3.599   6.241 -0.3550  0.1706  0.3240
  128OSM   H11A13663   4.528   3.520   6.305  0.8652  0.9157  2.1538
  128OSM   H11B13664   4.513   3.692   6.247  1.1737  1.1858  0.2072
  128OSM      P13665   4.773   3.739   6.359  0.5189 -0.1543  0.0518
  128OSM    O1313666   4.887   3.689   6.443  0.2288  0.0218  0.3826
  128OSM    O1413667   4.801   3.837   6.255 -0.2249  0.0796  0.1063
  128OSM    O1113668   4.645   3.780   6.453 -0.2931 -0.1717  0.2089
  128OSM    O1213669   4.709   3.621   6.286  0.2921 -0.3413  0.0528
  128OSM    C1S13670   4.590   3.686   6.543 -0.5564  0.2803  0.1850
  128OSM    H1S13671   4.627   3.581   6.533  2.5643  1.2485  1.0366
  128OSM    H1T13672   4.480   3.678   6.537 -0.6467  0.9504  0.8976
  128OSM     NF13673   4.581   3.624   6.790  0.1265 -0.2138 -0.4525
  128OSM    HNF13674   4.511   3.654   6.854  2.2956  2.9457  0.5885
  128OSM    C2S13675   4.612   3.733   6.692 -0.1842  0.2417  0.6665
  128OSM    H2S13676   4.723   3.746   6.691 -0.0336 -0.9908  0.5944
  128OSM    C3S13677   4.525   3.861   6.711  0.2569 -0.1370  0.2477
  128OSM    H3S13678   4.420   3.823   6.714 -0.0816  0.3424 -3.1132
  128OSM     O313679   4.531   3.957   6.606 -0.2268  0.6350 -0.2481
  128OSM    HO313680   4.585   3.913   6.540 -1.4547 -0.0920 -0.7839
  128OSM    C4S13681   4.561   3.931   6.838 -0.3567  0.0073 -1.4768
  128OSM    H4S13682   4.665   3.967   6.843 -0.6539  0.9048 -1.6587
  128OSM    C5S13683   4.489   3.934   6.951  0.2186  0.2006  0.1244
  128OSM    H5S13684   4.394   3.879   6.958  0.6280 -0.4404  0.7201
  128OSM    C6S13685   4.529   3.991   7.083 -0.6240 -0.4272  0.0323
  128OSM    H6S13686   4.447   4.044   7.135  0.1457  0.9706 -0.1655
  128OSM    H6T13687   4.619   4.056   7.083  0.7322 -2.2669  1.0655
  128OSM    C7S13688   4.571   3.882   7.189  0.3491  0.0573 -0.2828
  128OSM    H7S13689   4.656   3.823   7.149  0.7412 -0.9143  1.9282
  128OSM    H7T13690   4.486   3.811   7.198 -1.1153  1.6394 -1.3570
  128OSM    C8S13691   4.596   3.930   7.321  0.5030 -0.2159  0.2053
  128OSM    H8S13692   4.509   3.995   7.345 -0.2107 -0.6409 -1.2156
  128OSM    H8T13693   4.692   3.986   7.315 -1.2952  2.8526 -1.0625
  128OSM    C9S13694   4.604   3.814   7.423 -0.3709 -0.4049 -0.1897
  128OSM    H9S13695   4.684   3.743   7.392  0.7475  0.6019  0.3704
  128OSM    H9T13696   4.501   3.773   7.435 -0.6595  0.7892  1.6882
  128OSM   C10S13697   4.635   3.850   7.572 -0.2462  0.0436 -0.2785
  128OSM   H10S13698   4.546   3.907   7.606 -0.1559 -0.2584  0.4844
  128OSM   H10T13699   4.728   3.911   7.571  0.3412 -0.8481 -0.3631
  128OSM   C11S13700   4.662   3.732   7.659  0.1173 -0.2168  0.6808
  128OSM   H11S13701   4.743   3.676   7.607  0.4485  1.7516 -0.9977
  128OSM   H11T13702   4.575   3.665   7.672  1.0979 -1.7938 -0.6923
  128OSM   C12S13703   4.688   3.760   7.798 -0.1527  0.3981 -0.5125
  128OSM   H12S13704   4.605   3.812   7.852  0.2746  1.4926 -0.8936
  128OSM   H12T13705   4.771   3.833   7.802 -0.7638  1.1082 -0.6538
  128OSM   C13S13706   4.724   3.635   7.877 -0.9095  0.3402  0.1512
  128OSM   H13S13707   4.791   3.658   7.962 -0.5235  1.3562 -0.4209
  128OSM   H13T13708   4.784   3.570   7.809  1.9245  2.7919  0.1889
  128OSM   C14S13709   4.608   3.556   7.933 -0.4371  0.2501 -0.3743
  128OSM   H14S13710   4.559   3.479   7.870 -0.8512  0.2070 -0.0014
  128OSM   H14T13711   4.519   3.619   7.951  0.1173  0.9375 -0.0394
  128OSM   C15S13712   4.636   3.478   8.066 -0.1295  0.0656  0.2195
  128OSM   H15S13713   4.685   3.554   8.130 -0.5462  1.2396 -0.8145
  128OSM   H15T13714   4.710   3.397   8.048 -1.6014 -1.1522 -0.4581
  128OSM   C16S13715   4.510   3.430   8.140 -0.8605 -0.5543 -0.1854
  128OSM   H16S13716   4.462   3.342   8.092  0.6067 -0.4385 -1.9213
  128OSM   H16T13717   4.435   3.511   8.146  0.2678  0.5111 -0.2370
  128OSM   C17S13718   4.547   3.386   8.282 -0.1599  0.8506  0.3591
  128OSM   H17S13719   4.498   3.461   8.347  0.0792  0.9447  0.4324
  128OSM   H17T13720   4.657   3.401   8.287  0.1963 -0.3825 -2.6992
  128OSM   C18S13721   4.503   3.244   8.325  0.4716 -0.0019  0.3079
  128OSM   H18S13722   4.574   3.164   8.296  1.1460 -0.2809  2.6284
  128OSM   H18T13723   4.402   3.210   8.293  0.3680 -0.3394  0.9899
  128OSM   H18U13724   4.514   3.234   8.435  1.2856 -0.5056  0.1861
  128OSM    C1F13725   4.628   3.497   6.779 -0.4090 -0.1104 -0.3160
  128OSM     OF13726   4.730   3.474   6.716  0.5022  0.2437  0.1346
  128OSM    C2F13727   4.554   3.388   6.844  0.5617  0.0439 -0.3818
  128OSM    H2F13728   4.588   3.283   6.827 -0.1432 -0.4580  1.2199
  128OSM    H2G13729   4.448   3.399   6.814  0.4174 -0.8344 -0.2167
  128OSM    C3F13730   4.538   3.402   6.999  0.1213 -0.2759 -0.1706
  128OSM    H3F13731   4.484   3.316   7.044  2.2559 -1.4697  0.1817
  128OSM    H3G13732   4.476   3.492   7.016 -0.1800 -0.5695  0.2810
  128OSM    C4F13733   4.667   3.427   7.077 -0.3765 -0.0595 -0.0557
  128OSM    H4F13734   4.686   3.534   7.052 -1.6819  0.3058  0.4791
  128OSM    H4G13735   4.747   3.365   7.032 -0.5674 -0.1981 -0.2054
  128OSM    C5F13736   4.659   3.406   7.230 -0.2656  0.0489 -0.0487
  128OSM    H5F13737   4.555   3.426   7.263 -0.2760  2.7723 -1.5968
  128OSM    H5G13738   4.721   3.467   7.299  1.4367 -2.5061  0.7350
  128OSM    C6F13739   4.689   3.260   7.269  0.1332  0.7862  0.1665
  128OSM    H6F13740   4.796   3.243   7.245  0.0424 -0.6773  0.7762
  128OSM    H6G13741   4.627   3.191   7.208  1.8954 -0.7934  0.1305
  128OSM    C7F13742   4.662   3.239   7.417  0.2989  0.4987 -0.9510
  128OSM    H7F13743   4.657   3.128   7.419 -2.5525  0.5919  0.2552
  128OSM    H7G13744   4.564   3.283   7.446 -0.5128 -2.3676  0.9381
  128OSM    C8F13745   4.774   3.301   7.510  0.3312 -0.3787 -0.1601
  128OSM    H8F13746   4.798   3.406   7.483  1.3450 -0.3976  0.6216
  128OSM    H8G13747   4.866   3.240   7.499 -0.6238 -1.7890 -0.4805
  128OSM    C9F13748   4.718   3.304   7.649  0.3966  0.3813 -0.1200
  128OSM    H9F13749   4.634   3.374   7.657 -0.4598 -0.6821  0.3029
  128OSM   C10F13750   4.760   3.228   7.751  0.5586 -0.3438 -0.8922
  128OSM   H10F13751   4.718   3.242   7.852  1.5148  2.6131 -0.8840
  128OSM   C11F13752   4.852   3.109   7.748  0.1325 -0.7018 -0.2512
  128OSM   H11F13753   4.915   3.102   7.656  1.5655 -2.0587  0.8208
  128OSM   H11G13754   4.794   3.016   7.762 -1.7269  0.3402 -0.7911
  128OSM   C12F13755   4.949   3.119   7.872  0.1633  0.3137  0.4197
  128OSM   H12F13756   5.003   3.214   7.853 -1.2819  1.3681  1.4698
  128OSM   H12G13757   5.016   3.031   7.866  0.5948  0.6652  0.0959
  128OSM   C13F13758   4.885   3.111   8.011 -0.0900  0.5176  0.1278
  128OSM   H13F13759   4.827   3.017   8.012  0.8088 -0.0411  0.9049
  128OSM   H13G13760   4.821   3.200   8.032 -0.1462  0.7065 -0.8525
  128OSM   C14F13761   4.987   3.121   8.126  0.6613  0.0394  0.5438
  128OSM   H14F13762   5.054   3.210   8.123  0.9599 -0.0371  3.0510
  128OSM   H14G13763   5.059   3.037   8.134  0.3421 -0.4312 -1.3909
  128OSM   C15F13764   4.912   3.150   8.259  0.3540 -0.4456  0.2399
  128OSM   H15F13765   4.845   3.064   8.281  0.1080  0.6286  4.0363
  128OSM   H15G13766   4.837   3.231   8.249  1.0827  0.2236  0.2030
  128OSM   C16F13767   5.011   3.184   8.369  0.0663 -0.0915  0.2077
  128OSM   H16F13768   5.072   3.271   8.336 -0.5509  0.4473  0.4665
  128OSM   H16G13769   5.074   3.093   8.380 -1.2169 -0.8368  1.6181
  128OSM   C17F13770   4.951   3.223   8.504 -0.6717 -0.3525 -0.0795
  128OSM   H17F13771   4.907   3.131   8.547 -1.8750 -0.8042 -2.1936
  128OSM   H17G13772   4.872   3.294   8.473  0.2001 -0.2217 -2.0621
  128OSM   C18F13773   5.052   3.277   8.600  0.8064  0.1938  0.6099
  128OSM   H18F13774   5.025   3.309   8.703 -3.7581 -2.9769  0.5422
  128OSM   H18G13775   5.084   3.374   8.555 -4.5414  1.5886 -0.6564
  128OSM   H18H13776   5.138   3.207   8.602  0.3707 -0.3234  1.5310
  129OSM      N13777   2.888   5.914   5.940  0.5799 -0.2546 -0.4312
  129OSM    C1513778   2.787   5.892   5.831  0.6117  0.9767  0.0178
  129OSM   H15A13779   2.815   5.948   5.743 -0.5631 -0.8284 -1.5429
  129OSM   H15B13780   2.697   5.932   5.875  0.9051  2.0077 -0.2901
  129OSM   H15C13781   2.769   5.790   5.803 -0.7509  1.1808  0.1213
  129OSM    C1413782   2.913   6.059   5.966  0.2635 -0.7979 -0.3935
  129OSM   H14A13783   2.974   6.104   5.889  0.7028  2.7350  1.9124
  129OSM   H14B13784   2.973   6.078   6.054 -2.0936  0.6388  0.9432
  129OSM   H14C13785   2.819   6.110   5.978 -0.0533 -1.2793 -0.8067
  129OSM    C1313786   2.828   5.858   6.069 -0.1478  0.2130 -0.3386
  129OSM   H13A13787   2.807   5.753   6.065  0.1770  0.1302  0.0941
  129OSM   H13B13788   2.732   5.906   6.079 -0.1553 -0.2353  1.9065
  129OSM   H13C13789   2.892   5.881   6.153 -0.5698  1.5042 -0.3611
  129OSM    C1213790   3.018   5.849   5.909  0.3113  0.4146  0.4425
  129OSM   H12A13791   3.038   5.877   5.806  0.9469 -0.9876  0.1785
  129OSM   H12B13792   3.004   5.742   5.904 -0.1407  0.4799  0.3168
  129OSM    C1113793   3.135   5.887   6.004 -1.2056  0.6282 -0.4567
  129OSM   H11A13794   3.214   5.813   5.977 -0.1910  1.0492  1.2712
  129OSM   H11B13795   3.106   5.883   6.111  1.4393  2.4657  0.4055
  129OSM      P13796   3.336   6.053   6.028 -0.3986  0.6260  0.3763
  129OSM    O1313797   3.430   5.953   5.974 -0.4847  0.2496 -1.1212
  129OSM    O1413798   3.370   6.195   5.997 -0.1782 -0.0221  0.0005
  129OSM    O1113799   3.330   6.034   6.177  0.1839 -0.5044 -0.5670
  129OSM    O1213800   3.184   6.022   5.981  0.2439 -0.0364 -0.3413
  129OSM    C1S13801   3.238   6.109   6.264  0.5706 -0.2086  0.2925
  129OSM    H1S13802   3.137   6.123   6.220  0.6532 -2.2586 -0.6333
  129OSM    H1T13803   3.286   6.206   6.285  0.4213 -0.4827  2.0214
  129OSM     NF13804   3.091   6.101   6.468  0.2641  1.1882 -0.5945
  129OSM    HNF13805   3.106   6.177   6.531  0.6271  0.2523  0.4618
  129OSM    C2S13806   3.212   6.044   6.412  0.0215 -0.0679  1.4528
  129OSM    H2S13807   3.189   5.936   6.403 -0.2167  0.0467  0.7223
  129OSM    C3S13808   3.345   6.051   6.497 -0.6365 -0.2971 -0.3337
  129OSM    H3S13809   3.380   6.155   6.513 -1.6362  0.2788 -1.8260
  129OSM     O313810   3.448   5.978   6.440  0.2016 -0.0906 -0.0598
  129OSM    HO313811   3.421   5.971   6.349  0.2474  0.1554 -0.0916
  129OSM    C4S13812   3.312   6.002   6.639 -0.6453  0.9214 -0.3259
  129OSM    H4S13813   3.284   6.085   6.706 -0.3424 -0.0150  0.9842
  129OSM    C5S13814   3.307   5.870   6.679 -0.1359 -0.2223 -0.7238
  129OSM    H5S13815   3.317   5.801   6.594  2.4415 -0.5891 -0.1670
  129OSM    C6S13816   3.254   5.824   6.818 -0.5006  0.4768  0.3823
  129OSM    H6S13817   3.345   5.785   6.867  0.3308  1.1312 -0.6217
  129OSM    H6T13818   3.182   5.740   6.808  1.8496 -1.4799 -0.3271
  129OSM    C7S13819   3.192   5.920   6.920 -0.3305 -0.0896  0.6782
  129OSM    H7S13820   3.130   5.979   6.849 -0.0561 -0.5751  0.0251
  129OSM    H7T13821   3.260   5.992   6.970 -1.9706  0.0883  2.6924
  129OSM    C8S13822   3.103   5.843   7.020  0.5933  0.6250 -0.4176
  129OSM    H8S13823   3.169   5.766   7.064 -0.4459 -0.0995 -0.0982
  129OSM    H8T13824   3.018   5.788   6.974  0.0826  1.0718 -0.0273
  129OSM    C9S13825   3.051   5.939   7.130 -0.0526  0.0866 -0.6416
  129OSM    H9S13826   2.974   6.005   7.084  0.5416  1.5139  0.3812
  129OSM    H9T13827   3.128   6.012   7.162 -1.0663  0.6671  0.5064
  129OSM   C10S13828   3.028   5.868   7.268  0.1848 -0.3194  0.4552
  129OSM   H10S13829   3.076   5.769   7.256 -1.0306 -0.8178 -0.4293
  129OSM   H10T13830   2.917   5.861   7.260  0.2096 -0.4744  0.2341
  129OSM   C11S13831   3.070   5.936   7.388 -0.0588  0.6970 -0.6535
  129OSM   H11S13832   3.053   6.045   7.375  0.4932  0.9530  0.6817
  129OSM   H11T13833   3.181   5.925   7.394 -0.0682  0.6726 -0.5197
  129OSM   C12S13834   2.989   5.884   7.512  0.8092  0.5423 -0.4779
  129OSM   H12S13835   2.998   5.773   7.512  1.3954  0.5864  0.1882
  129OSM   H12T13836   2.880   5.906   7.505  0.7521 -0.0485 -1.5247
  129OSM   C13S13837   3.034   5.936   7.651 -0.2278  0.0815 -0.5555
  129OSM   H13S13838   3.024   6.046   7.640 -0.1874 -0.0970 -2.4920
  129OSM   H13T13839   3.137   5.909   7.684  0.3752  2.9633 -0.0015
  129OSM   C14S13840   2.945   5.892   7.770  0.2930  0.8612  0.6553
  129OSM   H14S13841   3.004   5.906   7.864 -0.1794 -1.4151  1.3139
  129OSM   H14T13842   2.923   5.783   7.764  2.7485  0.3202  0.7067
  129OSM   C15S13843   2.817   5.959   7.786  0.8051  0.0153 -0.3744
  129OSM   H15S13844   2.749   5.935   7.701  1.9911 -0.2575 -1.2594
  129OSM   H15T13845   2.835   6.067   7.767  2.7600 -0.2215  0.0139
  129OSM   C16S13846   2.746   5.938   7.928  0.0646 -0.1940  0.5060
  129OSM   H16S13847   2.820   5.931   8.011 -1.0857 -4.1795  1.3019
  129OSM   H16T13848   2.683   5.847   7.927  0.2402 -0.3104  0.0573
  129OSM   C17S13849   2.655   6.057   7.975  0.0172  0.3147 -0.1099
  129OSM   H17S13850   2.583   6.082   7.894  0.7009 -1.7882 -1.4052
  129OSM   H17T13851   2.724   6.143   7.978 -1.7979  1.7759  0.9857
  129OSM   C18S13852   2.576   6.021   8.101  0.1861 -0.1869 -0.3767
  129OSM   H18S13853   2.468   6.027   8.079  0.2403  1.3966 -0.3066
  129OSM   H18T13854   2.621   6.083   8.182 -0.1781  0.2894 -0.5379
  129OSM   H18U13855   2.587   5.913   8.127 -0.2700 -0.3687 -0.9522
  129OSM    C1F13856   2.971   6.060   6.425 -0.4101  0.0637  0.0806
  129OSM     OF13857   2.956   5.982   6.337 -0.8903 -0.4159 -0.4369
  129OSM    C2F13858   2.856   6.126   6.485  0.0045  0.2144  0.2357
  129OSM    H2F13859   2.771   6.072   6.439 -1.6391  1.7478  1.3933
  129OSM    H2G13860   2.860   6.227   6.439 -1.1438 -0.0768 -0.5383
  129OSM    C3F13861   2.842   6.135   6.636  0.3585 -0.1856 -0.1352
  129OSM    H3F13862   2.738   6.172   6.643  0.1312 -0.8416 -0.0490
  129OSM    H3G13863   2.908   6.208   6.689 -0.7454 -0.7646  2.0951
  129OSM    C4F13864   2.864   6.003   6.714 -0.4978  0.4115  0.3691
  129OSM    H4F13865   2.863   6.006   6.825 -1.3581  0.3386  0.3725
  129OSM    H4G13866   2.963   5.969   6.677 -1.2960  1.2584 -2.7100
  129OSM    C5F13867   2.770   5.899   6.674 -0.9191 -0.2119  0.1804
  129OSM    H5F13868   2.793   5.875   6.568 -0.3941 -0.8405  0.4396
  129OSM    H5G13869   2.663   5.927   6.667 -0.6636  0.6047 -0.6405
  129OSM    C6F13870   2.762   5.791   6.778  0.3308 -0.6971  0.1094
  129OSM    H6F13871   2.729   5.839   6.872 -0.8079 -1.9149  0.3598
  129OSM    H6G13872   2.869   5.775   6.803  0.4517 -0.2569 -0.1310
  129OSM    C7F13873   2.667   5.675   6.741 -0.2398  0.1118  0.5391
  129OSM    H7F13874   2.711   5.628   6.650  0.2819  0.6971  0.4858
  129OSM    H7G13875   2.570   5.723   6.713 -0.2929 -0.2177  0.1472
  129OSM    C8F13876   2.666   5.572   6.853  0.0300  0.1485 -0.3417
  129OSM    H8F13877   2.774   5.549   6.868 -0.1137 -1.3684 -1.5873
  129OSM    H8G13878   2.607   5.483   6.824  0.5048 -0.2127 -0.1890
  129OSM    C9F13879   2.610   5.611   6.989 -0.0111 -0.7214  0.0655
  129OSM    H9F13880   2.535   5.691   6.993  1.1612  0.4087 -0.4009
  129OSM   C10F13881   2.644   5.555   7.109  0.1355  1.0940  0.6594
  129OSM   H10F13882   2.592   5.586   7.201 -1.2074  0.2552  0.2016
  129OSM   C11F13883   2.745   5.436   7.132 -0.3724  0.2248 -0.3234
  129OSM   H11F13884   2.757   5.381   7.036  0.6258  0.0069 -0.0774
  129OSM   H11G13885   2.698   5.370   7.209 -1.2271  2.1064  0.8051
  129OSM   C12F13886   2.887   5.477   7.190  0.1816 -0.1435  0.2688
  129OSM   H12F13887   2.947   5.530   7.112 -1.5937  0.5712 -0.6311
  129OSM   H12G13888   2.928   5.377   7.213 -1.5446 -0.8953  0.1543
  129OSM   C13F13889   2.877   5.560   7.322 -0.3369  0.2681  0.0110
  129OSM   H13F13890   2.816   5.650   7.300  1.1981  0.9047 -1.7258
  129OSM   H13G13891   2.980   5.594   7.347 -0.3331  1.2071 -1.2162
  129OSM   C14F13892   2.812   5.478   7.434  0.1547 -0.3672  0.2160
  129OSM   H14F13893   2.864   5.381   7.450  3.2168  0.9123 -1.4169
  129OSM   H14G13894   2.710   5.454   7.399  0.0245 -0.1982  0.4768
  129OSM   C15F13895   2.801   5.553   7.556 -0.5240 -0.1841  0.8365
  129OSM   H15F13896   2.756   5.648   7.521  1.6806  0.7601  0.4760
  129OSM   H15G13897   2.901   5.584   7.594  0.0041 -1.0618  0.1429
  129OSM   C16F13898   2.720   5.487   7.669  0.0080 -0.3907  0.3614
  129OSM   H16F13899   2.736   5.379   7.691  0.7355 -0.3193  0.1920
  129OSM   H16G13900   2.612   5.505   7.651 -0.0197  0.6420  1.4465
  129OSM   C17F13901   2.737   5.574   7.796  0.1536 -0.1883  0.3765
  129OSM   H17F13902   2.709   5.680   7.776 -1.3673 -0.9341 -1.5459
  129OSM   H17G13903   2.845   5.559   7.819  0.8033 -0.2709 -2.5231
  129OSM   C18F13904   2.652   5.527   7.913 -0.1655 -0.2843  0.1332
  129OSM   H18F13905   2.555   5.579   7.905  0.2731  0.6891  0.9421
  129OSM   H18G13906   2.698   5.539   8.014  0.9728  1.3020 -0.5399
  129OSM   H18H13907   2.620   5.421   7.906  0.3059 -0.4713  0.7146
  130OSM      N13908   3.526   2.983   5.950 -0.6936 -0.3082 -1.0271
  130OSM    C1513909   3.644   2.923   6.018 -0.1073 -0.0926 -0.3157
  130OSM   H15A13910   3.737   2.963   5.980 -0.4275  0.6977 -0.2853
  130OSM   H15B13911   3.646   2.817   5.995  2.0325  0.2581 -1.9609
  130OSM   H15C13912   3.645   2.938   6.125  0.8212  0.5342 -0.4042
  130OSM    C1413913   3.541   3.137   5.940  0.7517 -0.4598  0.5428
  130OSM   H14A13914   3.610   3.162   5.860  1.2343  0.2440  1.1701
  130OSM   H14B13915   3.576   3.180   6.032  0.2107 -1.3619  1.1740
  130OSM   H14C13916   3.442   3.178   5.926  1.0605  0.6738  1.6032
  130OSM    C1313917   3.512   2.938   5.807 -0.1822  0.1525  0.3635
  130OSM   H13A13918   3.496   2.831   5.801  2.1156 -0.1402 -1.3431
  130OSM   H13B13919   3.608   2.952   5.760  0.4371  1.0794  1.8836
  130OSM   H13C13920   3.426   2.987   5.763 -0.3827  0.2828  0.8983
  130OSM    C1213921   3.402   2.940   6.036 -0.3775 -0.8875 -0.2320
  130OSM   H12A13922   3.421   2.835   6.055  1.9149 -0.6134 -0.7921
  130OSM   H12B13923   3.316   2.961   5.975 -1.1972  0.6882  1.4290
  130OSM    C1113924   3.379   2.996   6.185  0.4323 -0.3638 -0.4579
  130OSM   H11A13925   3.469   2.975   6.248 -0.3506 -2.2493  0.0545
  130OSM   H11B13926   3.299   2.937   6.234 -0.3877  2.0366  1.1729
  130OSM      P13927   3.249   3.213   6.123 -0.4433 -0.0758 -0.0360
  130OSM    O1313928   3.298   3.291   6.004  0.3031 -0.6411 -0.1271
  130OSM    O1413929   3.135   3.119   6.098  0.0384 -0.1764 -0.4245
  130OSM    O1113930   3.216   3.318   6.237 -0.0872 -0.0006  0.7461
  130OSM    O1213931   3.368   3.140   6.185  0.0034 -0.0750  0.4978
  130OSM    C1S13932   3.093   3.377   6.266  0.0769 -1.2161 -0.3148
  130OSM    H1S13933   3.014   3.327   6.206 -1.4276  1.8879 -1.0135
  130OSM    H1T13934   3.086   3.483   6.234  0.4085 -0.7514  1.1345
  130OSM     NF13935   2.931   3.390   6.458 -0.1565  0.5462 -0.5541
  130OSM    HNF13936   2.902   3.479   6.492  0.9103 -0.0254  1.9343
  130OSM    C2S13937   3.072   3.368   6.423  0.4452  0.5528 -0.4535
  130OSM    H2S13938   3.082   3.262   6.454 -1.1062 -0.4168 -3.1356
  130OSM    C3S13939   3.156   3.453   6.510 -0.5699 -0.3828  0.2478
  130OSM    H3S13940   3.118   3.557   6.498  3.0582  1.1195  0.9492
  130OSM     O313941   3.294   3.451   6.472  0.2717 -0.3704  0.6756
  130OSM    HO313942   3.300   3.398   6.392 -1.6437  0.0942  0.1901
  130OSM    C4S13943   3.135   3.423   6.660  0.1403 -0.4823 -0.6596
  130OSM    H4S13944   3.069   3.490   6.717 -0.6897 -0.6680 -1.3946
  130OSM    C5S13945   3.204   3.328   6.730  0.4545  0.4590 -0.3035
  130OSM    H5S13946   3.280   3.264   6.682  0.8115  1.5302 -1.1771
  130OSM    C6S13947   3.201   3.303   6.877 -0.5801 -0.4715 -0.0676
  130OSM    H6S13948   3.119   3.364   6.922 -1.6703 -0.4371 -2.0506
  130OSM    H6T13949   3.304   3.326   6.911 -1.0424  1.9366 -0.1726
  130OSM    C7S13950   3.178   3.157   6.916  0.0168 -0.3050  0.2229
  130OSM    H7S13951   3.251   3.097   6.858  0.6607 -0.9112  1.6466
  130OSM    H7T13952   3.070   3.133   6.899  0.1424 -1.2505  0.7008
  130OSM    C8S13953   3.212   3.125   7.062 -0.1275  0.0316  0.1233
  130OSM    H8S13954   3.152   3.176   7.140 -0.0906 -1.0848  0.8962
  130OSM    H8T13955   3.320   3.141   7.078 -0.5176  2.4651  0.4646
  130OSM    C9S13956   3.190   2.983   7.096  0.1822  0.5098 -0.1998
  130OSM    H9S13957   3.227   2.929   7.006 -0.2486 -0.2790  0.0856
  130OSM    H9T13958   3.081   2.968   7.109  0.4409 -1.1036  0.2453
  130OSM   C10S13959   3.259   2.929   7.227  0.2829  0.4353 -0.1934
  130OSM   H10S13960   3.367   2.952   7.234  0.8379 -1.6429 -1.4732
  130OSM   H10T13961   3.246   2.819   7.218  0.2087  0.1353  2.9971
  130OSM   C11S13962   3.191   2.981   7.352  0.0423 -0.3884  0.1494
  130OSM   H11S13963   3.080   2.971   7.348  0.1160 -1.4536  0.4533
  130OSM   H11T13964   3.213   3.088   7.367 -1.9072  0.0202  0.2692
  130OSM   C12S13965   3.240   2.890   7.469  0.1437  0.6278  0.0749
  130OSM   H12S13966   3.350   2.884   7.459  0.0657 -2.8246  0.8642
  130OSM   H12T13967   3.202   2.788   7.445 -0.2227  0.6488  0.5606
  130OSM   C13S13968   3.201   2.943   7.605 -0.3508 -0.0221  0.3452
  130OSM   H13S13969   3.172   3.049   7.591  0.7276 -0.0240 -2.3570
  130OSM   H13T13970   3.289   2.955   7.671  0.4731 -3.0030 -0.1295
  130OSM   C14S13971   3.090   2.867   7.675 -0.8921  0.5299  0.7365
  130OSM   H14S13972   3.127   2.785   7.741 -0.4601 -0.5315 -0.8054
  130OSM   H14T13973   3.023   2.815   7.604  2.3438 -0.2203 -1.8728
  130OSM   C15S13974   3.001   2.968   7.753 -0.2325  0.7400 -0.6454
  130OSM   H15S13975   2.912   2.993   7.692 -1.1934  0.0587  0.4471
  130OSM   H15T13976   3.062   3.056   7.783  0.3499  0.1624 -0.0949
  130OSM   C16S13977   2.947   2.915   7.885  0.2510  0.5371  0.1574
  130OSM   H16S13978   3.023   2.908   7.966 -0.8785  2.0019  1.3828
  130OSM   H16T13979   2.897   2.816   7.880 -0.9631  1.1104  0.7338
  130OSM   C17S13980   2.833   3.010   7.932  0.0770 -0.2989 -0.6085
  130OSM   H17S13981   2.770   3.039   7.846  0.2224 -1.0409 -0.9661
  130OSM   H17T13982   2.885   3.105   7.961  1.2229 -0.9043 -0.6456
  130OSM   C18S13983   2.737   2.944   8.028 -0.0420  0.2564  0.3207
  130OSM   H18S13984   2.692   2.850   7.987  0.1083  0.6844 -0.8512
  130OSM   H18T13985   2.649   3.002   8.063 -0.8425  0.1836 -1.4588
  130OSM   H18U13986   2.793   2.918   8.120  1.9725  0.4665 -0.8294
  130OSM    C1F13987   2.832   3.301   6.431 -0.9005 -0.7475  0.2758
  130OSM     OF13988   2.857   3.191   6.377 -0.3210  0.0946  0.5482
  130OSM    C2F13989   2.691   3.355   6.447  0.0213  0.2054  0.5588
  130OSM    H2F13990   2.656   3.415   6.359 -0.0077 -0.2407  0.2636
  130OSM    H2G13991   2.692   3.430   6.528  1.2052 -0.1647  0.8864
  130OSM    C3F13992   2.591   3.238   6.472  0.1986 -0.5340  0.0247
  130OSM    H3F13993   2.597   3.176   6.379 -0.2278 -0.7079  0.1148
  130OSM    H3G13994   2.488   3.276   6.486  0.4575  0.5597 -0.9116
  130OSM    C4F13995   2.627   3.148   6.585 -0.0401 -0.0519  0.1181
  130OSM    H4F13996   2.720   3.097   6.551 -0.0969 -1.4301  1.9080
  130OSM    H4G13997   2.557   3.063   6.600  0.4629 -0.4380  0.3399
  130OSM    C5F13998   2.644   3.228   6.717 -0.1748 -0.5859  0.0941
  130OSM    H5F13999   2.732   3.296   6.729  1.1816 -1.8724 -2.1858
  130OSM    H5G14000   2.665   3.159   6.802 -1.3661 -0.9205  0.1246
  130OSM    C6F14001   2.510   3.292   6.764 -0.3386 -0.0515 -0.3311
  130OSM    H6F14002   2.440   3.212   6.734  1.4075 -1.7088 -0.0581
  130OSM    H6G14003   2.484   3.384   6.708  0.7277  0.5510  0.1323
  130OSM    C7F14004   2.499   3.328   6.910  0.5846 -0.0671 -0.4477
  130OSM    H7F14005   2.478   3.239   6.974  0.1747 -0.5324 -1.2168
  130OSM    H7G14006   2.407   3.390   6.911 -0.8030 -2.0475 -0.6695
  130OSM    C8F14007   2.620   3.410   6.955  0.8502  0.5797 -0.2015
  130OSM    H8F14008   2.650   3.481   6.875  0.5417  0.5322 -0.3616
  130OSM    H8G14009   2.705   3.339   6.965  0.0955 -0.4728 -1.0399
  130OSM    C9F14010   2.588   3.478   7.090 -0.1677  0.2575 -1.0901
  130OSM    H9F14011   2.536   3.575   7.083  1.3164  0.9907 -2.1857
  130OSM   C10F14012   2.618   3.425   7.208  0.9431  0.3538 -0.0506
  130OSM   H10F14013   2.595   3.487   7.297 -0.4209  3.3949 -2.4227
  130OSM   C11F14014   2.685   3.297   7.243 -0.3112 -0.1058 -0.3217
  130OSM   H11F14015   2.736   3.253   7.155  1.1913 -0.6158  0.7774
  130OSM   H11G14016   2.606   3.226   7.274 -0.3503 -0.0567 -0.3098
  130OSM   C12F14017   2.788   3.306   7.360  0.2636  0.4951  0.6720
  130OSM   H12F14018   2.880   3.364   7.337  1.1718 -0.3509  2.0968
  130OSM   H12G14019   2.823   3.200   7.367  1.3683  0.4703 -3.6592
  130OSM   C13F14020   2.726   3.364   7.489 -0.6400  0.5817 -0.4073
  130OSM   H13F14021   2.633   3.304   7.498 -0.3680  0.0744 -1.0086
  130OSM   H13G14022   2.702   3.473   7.483 -3.4713  0.0259 -0.2488
  130OSM   C14F14023   2.801   3.346   7.620 -0.3256  0.2223  0.1175
  130OSM   H14F14024   2.848   3.444   7.641  0.2420 -0.1185  0.4578
  130OSM   H14G14025   2.868   3.257   7.613 -2.6952 -1.6639  0.7596
  130OSM   C15F14026   2.704   3.322   7.734  0.0030  0.6863 -0.3240
  130OSM   H15F14027   2.665   3.219   7.738  0.8554  0.4485  2.2890
  130OSM   H15G14028   2.611   3.382   7.716 -0.6182  0.5941  2.4573
  130OSM   C16F14029   2.753   3.357   7.873  0.4294  0.6438  0.1714
  130OSM   H16F14030   2.859   3.330   7.893  0.0057  0.8862  2.9133
  130OSM   H16G14031   2.692   3.296   7.942  1.3514  0.4396  0.8069
  130OSM   C17F14032   2.712   3.507   7.901 -0.0421 -0.4928 -0.2166
  130OSM   H17F14033   2.732   3.571   7.813  2.5723 -1.2730 -0.2548
  130OSM   H17G14034   2.789   3.542   7.973 -0.4211  0.1770 -0.1305
  130OSM   C18F14035   2.572   3.536   7.950 -0.8919 -0.1372  0.2226
  130OSM   H18F14036   2.557   3.644   7.972 -0.8921 -0.0413 -0.2501
  130OSM   H18G14037   2.547   3.483   8.044 -0.4224 -1.7592 -0.5480
  130OSM   H18H14038   2.497   3.505   7.875  0.4663  1.0318 -1.6598
  131OSM      N14039   3.583   1.083   5.679  0.6197  0.0002  0.2651
  131OSM    C1514040   3.533   0.946   5.641 -0.0239 -0.1839 -0.1966
  131OSM   H15A14041   3.575   0.865   5.700  1.9437 -0.3216 -1.7297
  131OSM   H15B14042   3.567   0.927   5.540  0.7871 -0.9717  0.2194
  131OSM   H15C14043   3.426   0.949   5.653 -0.1446  1.7958 -1.4806
  131OSM    C1414044   3.722   1.088   5.629  0.5313 -0.1527  0.2732
  131OSM   H14A14045   3.754   1.191   5.635  0.1812 -0.0420  0.2491
  131OSM   H14B14046   3.722   1.057   5.526  0.2548  0.9437 -0.0688
  131OSM   H14C14047   3.792   1.031   5.688  2.4207  1.9559  0.1414
  131OSM    C1314048   3.498   1.184   5.608  0.8199 -0.0736  0.5600
  131OSM   H13A14049   3.529   1.285   5.630 -1.7005  0.8000  0.2131
  131OSM   H13B14050   3.395   1.165   5.632  0.5030  0.9008  0.0035
  131OSM   H13C14051   3.516   1.181   5.501 -3.5092  1.3713 -0.3086
  131OSM    C1214052   3.573   1.103   5.828  0.7001  0.3657  0.0794
  131OSM   H12A14053   3.469   1.087   5.851  0.7203 -1.2675 -0.9530
  131OSM   H12B14054   3.603   1.205   5.849 -0.2315  0.8707 -0.9925
  131OSM    C1114055   3.649   1.004   5.923  0.2122 -0.2735 -0.0897
  131OSM   H11A14056   3.655   1.041   6.027  1.9317 -0.8250  0.0160
  131OSM   H11B14057   3.756   1.002   5.894  0.3188  2.4515 -0.0162
  131OSM      P14058   3.452   0.858   6.002 -0.0147  0.0031  0.4445
  131OSM    O1314059   3.362   0.972   5.967  0.1253 -0.0092  0.2153
  131OSM    O1414060   3.416   0.720   5.966 -0.5307  0.0770 -0.8982
  131OSM    O1114061   3.495   0.864   6.155 -0.6027  0.1019 -0.1181
  131OSM    O1214062   3.587   0.879   5.918  0.4392  0.3401  0.4490
  131OSM    C1S14063   3.614   0.819   6.212 -0.1139  0.0299 -0.7833
  131OSM    H1S14064   3.698   0.847   6.144  1.6650 -0.4452  1.1703
  131OSM    H1T14065   3.612   0.710   6.234  2.2202  0.0003 -0.5803
  131OSM     NF14066   3.755   0.860   6.405  0.2993  0.0970 -0.1106
  131OSM    HNF14067   3.768   0.767   6.437 -1.4108  0.1481  0.7922
  131OSM    C2S14068   3.616   0.877   6.357 -0.1625 -0.5606  0.0264
  131OSM    H2S14069   3.591   0.983   6.333  1.0049 -0.4310 -0.7040
  131OSM    C3S14070   3.506   0.804   6.431  0.3506 -0.1274 -0.2598
  131OSM    H3S14071   3.536   0.697   6.437  1.4670  0.0666 -2.1585
  131OSM     O314072   3.375   0.799   6.375 -0.5477  0.4590 -0.2883
  131OSM    HO314073   3.391   0.818   6.283 -1.0354  2.4905  0.0239
  131OSM    C4S14074   3.504   0.838   6.581 -0.3943  0.3441  1.3294
  131OSM    H4S14075   3.571   0.784   6.651  1.0013  2.5967  1.7980
  131OSM    C5S14076   3.430   0.938   6.636 -0.0959  0.1934 -0.4802
  131OSM    H5S14077   3.378   1.003   6.564  2.3632  1.6176 -0.9971
  131OSM    C6S14078   3.444   0.986   6.777  0.0066 -0.4686 -0.2006
  131OSM    H6S14079   3.428   1.096   6.781 -1.4936 -0.6886  0.4139
  131OSM    H6T14080   3.546   0.959   6.811  0.8731 -0.2849 -2.5584
  131OSM    C7S14081   3.331   0.930   6.868  0.7206 -0.2991 -0.1566
  131OSM    H7S14082   3.332   0.820   6.854 -3.3518 -0.4130 -0.1090
  131OSM    H7T14083   3.236   0.983   6.844  1.5179  1.5561  0.6649
  131OSM    C8S14084   3.364   0.951   7.019 -0.1783 -0.6083  0.2811
  131OSM    H8S14085   3.361   1.062   7.030 -0.7470 -0.7823  1.9637
  131OSM    H8T14086   3.470   0.926   7.042  0.7611  1.7025 -1.2448
  131OSM    C9S14087   3.271   0.888   7.119 -0.9265 -0.0817  0.0798
  131OSM    H9S14088   3.246   0.781   7.101 -0.7221  0.2137 -2.0162
  131OSM    H9T14089   3.170   0.934   7.113  0.0997  2.2967  0.4852
  131OSM   C10S14090   3.301   0.924   7.270  0.3284  0.2014 -0.5382
  131OSM   H10S14091   3.282   1.033   7.284 -0.2554  0.0586 -0.1997
  131OSM   H10T14092   3.411   0.912   7.277  0.5799  1.2816 -2.3008
  131OSM   C11S14093   3.221   0.836   7.374  0.5174  0.6448  0.1308
  131OSM   H11S14094   3.252   0.731   7.350 -4.3602 -0.5023 -1.6195
  131OSM   H11T14095   3.114   0.858   7.358  0.5381 -0.6149 -1.9562
  131OSM   C12S14096   3.260   0.885   7.513  0.2658  0.2966  0.8955
  131OSM   H12S14097   3.225   0.988   7.532 -0.7975  0.1821 -0.3589
  131OSM   H12T14098   3.371   0.883   7.521  0.2838  1.1810  0.9429
  131OSM   C13S14099   3.202   0.804   7.626 -0.0056  0.3059  0.2329
  131OSM   H13S14100   3.225   0.698   7.605  0.0107  1.0162 -3.6103
  131OSM   H13T14101   3.091   0.812   7.623  0.0038  0.1101 -0.6810
  131OSM   C14S14102   3.244   0.850   7.768  0.4430 -0.7847 -0.3679
  131OSM   H14S14103   3.161   0.822   7.836  0.9484 -0.7157  0.2734
  131OSM   H14T14104   3.256   0.960   7.776  0.7546 -0.9970  2.5930
  131OSM   C15S14105   3.354   0.766   7.836 -0.4343  0.2914  0.5390
  131OSM   H15S14106   3.453   0.780   7.787  0.0198 -2.6255  0.5684
  131OSM   H15T14107   3.326   0.659   7.834  1.2179 -0.1593  1.4241
  131OSM   C16S14108   3.381   0.817   7.979  0.4239 -0.2335  0.1317
  131OSM   H16S14109   3.379   0.928   7.978  2.6770 -0.1527  1.4260
  131OSM   H16T14110   3.477   0.780   8.021  0.3481  0.5662  1.0151
  131OSM   C17S14111   3.268   0.764   8.073  0.3159  0.4427  0.5851
  131OSM   H17S14112   3.251   0.659   8.043 -0.0790  0.4842  0.6606
  131OSM   H17T14113   3.174   0.822   8.059 -0.8631 -0.8631  2.7989
  131OSM   C18S14114   3.299   0.781   8.221 -0.2602  0.4800  0.0129
  131OSM   H18S14115   3.394   0.731   8.251  0.3279  1.9931  0.6982
  131OSM   H18T14116   3.212   0.751   8.283 -0.1114  2.0946  1.0330
  131OSM   H18U14117   3.325   0.887   8.240 -1.7873  0.6360  1.2433
  131OSM    C1F14118   3.859   0.931   6.369  0.4863 -0.5506 -0.2240
  131OSM     OF14119   3.845   1.037   6.306 -0.4290 -0.7466  0.0314
  131OSM    C2F14120   3.983   0.862   6.388 -0.0833 -0.3540  0.1319
  131OSM    H2F14121   4.035   0.861   6.290  1.3089  0.4415  0.8461
  131OSM    H2G14122   3.955   0.755   6.402 -0.1402 -0.2117  1.1629
  131OSM    C3F14123   4.080   0.909   6.496  1.1624 -0.1812 -0.3388
  131OSM    H3F14124   4.098   1.016   6.472 -0.4936  0.1734 -0.0207
  131OSM    H3G14125   4.179   0.861   6.483  1.0504 -1.0089  1.8242
  131OSM    C4F14126   4.024   0.890   6.637 -0.7798 -0.6308  0.4687
  131OSM    H4F14127   3.934   0.951   6.658 -0.5931 -0.1826 -0.0167
  131OSM    H4G14128   4.102   0.920   6.711 -1.0288  0.4799  0.2887
  131OSM    C5F14129   4.007   0.733   6.681  0.9063 -0.3317  0.0508
  131OSM    H5F14130   4.085   0.668   6.638  1.3463 -0.5255  1.1392
  131OSM    H5G14131   3.906   0.697   6.652  0.2415  0.6568  1.1065
  131OSM    C6F14132   4.008   0.722   6.834 -0.4510  0.0627 -0.1629
  131OSM    H6F14133   4.106   0.754   6.874  0.3830 -0.8480 -1.4457
  131OSM    H6G14134   3.979   0.617   6.858  1.8829 -0.7102 -0.5521
  131OSM    C7F14135   3.908   0.814   6.906  0.3142  0.1688 -0.3121
  131OSM    H7F14136   3.803   0.797   6.876  0.8802 -0.1423 -2.1967
  131OSM    H7G14137   3.921   0.920   6.878  2.6496  0.0659  0.2742
  131OSM    C8F14138   3.914   0.801   7.059  0.2081  0.7512 -0.5159
  131OSM    H8F14139   3.857   0.882   7.109  0.7306  0.1187  1.1478
  131OSM    H8G14140   4.020   0.817   7.085  0.5834 -3.2360  0.7047
  131OSM    C9F14141   3.882   0.668   7.106  0.2180 -0.6004 -0.0221
  131OSM    H9F14142   3.946   0.592   7.058  1.6284  0.7486 -0.3316
  131OSM   C10F14143   3.772   0.644   7.183  0.0527 -0.2450  0.0985
  131OSM   H10F14144   3.761   0.537   7.209  0.6761 -1.1431 -3.0939
  131OSM   C11F14145   3.659   0.729   7.230 -0.4149  0.4921  0.1623
  131OSM   H11F14146   3.577   0.655   7.236 -0.7882  1.0070  1.4338
  131OSM   H11G14147   3.625   0.802   7.153  2.6687  1.0176 -0.7660
  131OSM   C12F14148   3.683   0.793   7.367  0.0157 -0.5215 -0.1172
  131OSM   H12F14149   3.595   0.843   7.412  0.4072 -1.4072  1.6932
  131OSM   H12G14150   3.768   0.864   7.362 -1.7099  1.5913  0.0660
  131OSM   C13F14151   3.743   0.693   7.473 -0.4101  0.6794 -0.6110
  131OSM   H13F14152   3.792   0.762   7.545  0.8303  0.9205 -1.6806
  131OSM   H13G14153   3.824   0.630   7.431 -0.3879  0.5284 -0.3431
  131OSM   C14F14154   3.632   0.598   7.524 -0.0534 -0.0645  0.0690
  131OSM   H14F14155   3.593   0.541   7.437 -2.5734  1.1210  0.3960
  131OSM   H14G14156   3.560   0.655   7.586  0.9203 -0.3448  1.4977
  131OSM   C15F14157   3.692   0.493   7.621  0.9982 -0.9120 -0.4622
  131OSM   H15F14158   3.746   0.415   7.564  2.0924  0.0928 -0.8210
  131OSM   H15G14159   3.608   0.445   7.677 -0.0489  0.7602 -0.5585
  131OSM   C16F14160   3.780   0.557   7.733  0.6036 -0.1369 -0.4481
  131OSM   H16F14161   3.867   0.608   7.685  0.9587  0.2878  0.6249
  131OSM   H16G14162   3.825   0.474   7.791 -0.7242  0.2698  1.2238
  131OSM   C17F14163   3.707   0.655   7.826 -0.6553 -0.0402 -0.0687
  131OSM   H17F14164   3.628   0.609   7.889 -1.2216  0.9947 -0.0213
  131OSM   H17G14165   3.661   0.727   7.755 -2.2674  0.0122  1.0018
  131OSM   C18F14166   3.796   0.728   7.917 -0.0879 -0.0571 -0.7708
  131OSM   H18F14167   3.841   0.649   7.981 -0.2284 -0.5619 -1.2917
  131OSM   H18G14168   3.739   0.806   7.972  0.2087  0.1844 -0.8063
  131OSM   H18H14169   3.877   0.787   7.870  2.2852 -0.3974  2.6727
  132OSM      N14170   6.153   4.494   6.159 -0.0431  0.0825 -0.3424
  132OSM    C1514171   6.255   4.600   6.159  0.0528  0.0878  0.3054
  132OSM   H15A14172   6.342   4.568   6.215  0.1956 -1.0094 -0.5319
  132OSM   H15B14173   6.214   4.692   6.200 -2.4502 -0.9845  0.3281
  132OSM   H15C14174   6.293   4.638   6.066 -0.5776 -1.3278 -0.5473
  132OSM    C1414175   6.065   4.516   6.037 -0.1203 -0.1702  0.2851
  132OSM   H14A14176   6.130   4.545   5.956 -2.4762  1.2336 -1.1593
  132OSM   H14B14177   6.003   4.601   6.057  2.5023  1.3126  2.3765
  132OSM   H14C14178   6.005   4.428   6.016 -4.3617  2.5225  0.6480
  132OSM    C1314179   6.234   4.367   6.143  0.1261  0.2842  0.2556
  132OSM   H13A14180   6.209   4.311   6.055 -0.3886  0.8883  0.0172
  132OSM   H13B14181   6.224   4.302   6.229 -0.3491  1.6530  1.2470
  132OSM   H13C14182   6.341   4.381   6.138  0.4863 -2.3215 -0.2767
  132OSM    C1214183   6.062   4.496   6.280 -0.4837  0.2439 -0.0182
  132OSM   H12A14184   6.118   4.475   6.371  1.0160  0.2734 -0.9093
  132OSM   H12B14185   6.006   4.404   6.280  1.0765 -0.7315  0.4485
  132OSM    C1114186   5.974   4.618   6.322  0.6829 -0.4268  0.1573
  132OSM   H11A14187   6.028   4.712   6.347 -1.1787  0.6159  0.3546
  132OSM   H11B14188   5.916   4.589   6.412  0.1342 -1.8864 -0.6355
  132OSM      P14189   5.778   4.767   6.226 -0.0308  0.1319 -0.4561
  132OSM    O1314190   5.851   4.883   6.169 -0.2805 -0.2235  0.2891
  132OSM    O1414191   5.646   4.732   6.170 -0.2502  0.1997  0.2771
  132OSM    O1114192   5.750   4.795   6.374  0.3427 -0.3430 -0.2070
  132OSM    O1214193   5.868   4.639   6.221 -0.2698 -0.5643 -0.0037
  132OSM    C1S14194   5.633   4.755   6.444  0.1545  0.2055 -0.2392
  132OSM    H1S14195   5.592   4.656   6.412  1.3384  0.0830 -1.4369
  132OSM    H1T14196   5.565   4.842   6.435  1.7474  1.6522  1.4181
  132OSM     NF14197   5.535   4.687   6.670 -0.5392 -0.0267  0.0234
  132OSM    HNF14198   5.472   4.756   6.706 -0.5005  0.7963 -1.4726
  132OSM    C2S14199   5.654   4.739   6.607  0.3931 -0.4729 -0.7900
  132OSM    H2S14200   5.726   4.656   6.625  0.4936  0.3414  2.8174
  132OSM    C3S14201   5.706   4.873   6.675  0.0954 -0.3010 -0.1251
  132OSM    H3S14202   5.630   4.952   6.658  0.9717  1.0123  1.9121
  132OSM     O314203   5.830   4.917   6.610  0.7379 -0.4620 -0.0344
  132OSM    HO314204   5.816   4.892   6.518 -2.9862  0.8902  0.0858
  132OSM    C4S14205   5.736   4.847   6.820  0.4601  0.0218 -0.4642
  132OSM    H4S14206   5.829   4.789   6.831  0.7262  0.4901 -0.2389
  132OSM    C5S14207   5.664   4.880   6.924  0.7244  1.0041  0.0905
  132OSM    H5S14208   5.565   4.927   6.915  0.1919 -0.1889 -0.3822
  132OSM    C6S14209   5.708   4.841   7.061  0.0987  0.5771 -0.1044
  132OSM    H6S14210   5.626   4.847   7.136 -0.0889  0.8665 -0.3340
  132OSM    H6T14211   5.786   4.914   7.093  1.0931  1.1626 -3.7218
  132OSM    C7S14212   5.773   4.694   7.078  0.2193 -0.6482 -0.2185
  132OSM    H7S14213   5.880   4.694   7.047 -0.1361  0.2323 -1.5222
  132OSM    H7T14214   5.714   4.624   7.014 -0.2549  0.2142 -0.7417
  132OSM    C8S14215   5.759   4.650   7.227  0.4239  0.2227 -0.0951
  132OSM    H8S14216   5.798   4.547   7.234  2.1858  1.0088  2.0215
  132OSM    H8T14217   5.651   4.644   7.254 -0.4307  1.9911 -2.8143
  132OSM    C9S14218   5.833   4.733   7.337  0.6903  0.4675 -0.2174
  132OSM    H9S14219   5.773   4.827   7.340 -3.2271 -1.9389  0.7452
  132OSM    H9T14220   5.938   4.750   7.305  1.3956 -0.2381  1.6749
  132OSM   C10S14221   5.826   4.673   7.477 -0.0050  0.5393  0.7489
  132OSM   H10S14222   5.869   4.570   7.469 -0.5039  0.3893 -0.1039
  132OSM   H10T14223   5.721   4.674   7.513 -0.4321  1.1816 -0.4857
  132OSM   C11S14224   5.905   4.746   7.585 -0.7701 -0.4619 -1.1769
  132OSM   H11S14225   5.848   4.842   7.586 -1.4650 -0.8303  2.6821
  132OSM   H11T14226   6.006   4.773   7.548 -0.3773  1.2427  1.0138
  132OSM   C12S14227   5.907   4.687   7.735 -0.5534 -0.2199  0.3242
  132OSM   H12S14228   5.996   4.726   7.789 -0.1937 -0.7559  0.1323
  132OSM   H12T14229   5.929   4.583   7.703  2.2447  0.3023  0.4256
  132OSM   C13S14230   5.769   4.708   7.805  0.0456  0.1319 -0.0781
  132OSM   H13S14231   5.690   4.688   7.729 -1.0498 -3.2549  1.8481
  132OSM   H13T14232   5.759   4.812   7.841 -1.1118  0.1171 -0.3076
  132OSM   C14S14233   5.751   4.595   7.909 -0.1844  0.2909 -0.4504
  132OSM   H14S14234   5.840   4.600   7.974  0.4242  1.3747 -1.3652
  132OSM   H14T14235   5.761   4.495   7.860  0.9268  0.3167 -0.2762
  132OSM   C15S14236   5.625   4.606   7.992 -0.3506  0.6585  0.0572
  132OSM   H15S14237   5.535   4.597   7.927  0.1889 -0.2233 -0.5802
  132OSM   H15T14238   5.631   4.709   8.033  0.7093 -0.4702  2.9011
  132OSM   C16S14239   5.618   4.494   8.101 -0.2764 -0.4459 -0.1801
  132OSM   H16S14240   5.712   4.486   8.159 -0.2957 -3.0201 -0.4495
  132OSM   H16T14241   5.625   4.397   8.046 -1.6607 -0.9859  0.5832
  132OSM   C17S14242   5.503   4.502   8.198 -0.0083 -0.4766 -0.0978
  132OSM   H17S14243   5.412   4.504   8.135 -1.0192  2.5712  1.4032
  132OSM   H17T14244   5.503   4.596   8.256 -2.7676 -1.6450  1.9059
  132OSM   C18S14245   5.494   4.394   8.302 -0.2249  0.0291  0.7195
  132OSM   H18S14246   5.408   4.421   8.366  0.8184 -0.4721  2.3624
  132OSM   H18T14247   5.592   4.396   8.355  0.7590 -3.7540 -0.8159
  132OSM   H18U14248   5.482   4.301   8.243  1.8827  0.6083 -0.7016
  132OSM    C1F14249   5.492   4.559   6.668  0.2735  0.1459 -0.4074
  132OSM     OF14250   5.555   4.472   6.615  0.5980  0.2262 -0.8882
  132OSM    C2F14251   5.366   4.539   6.747 -0.2150  0.6127  0.1012
  132OSM    H2F14252   5.342   4.431   6.742  2.2223  0.0908 -2.2151
  132OSM    H2G14253   5.285   4.600   6.701 -0.5234 -1.6785 -2.5481
  132OSM    C3F14254   5.390   4.546   6.903 -0.0148 -0.3985  0.2282
  132OSM    H3F14255   5.421   4.649   6.931 -2.1064  0.6328 -1.0810
  132OSM    H3G14256   5.470   4.477   6.936  1.0728  0.4146 -0.6693
  132OSM    C4F14257   5.267   4.541   6.998 -0.5259 -0.5913 -0.0868
  132OSM    H4F14258   5.218   4.441   6.990  1.1694 -1.3365 -1.4232
  132OSM    H4G14259   5.190   4.607   6.955  0.9035  0.6623 -0.7512
  132OSM    C5F14260   5.298   4.592   7.144 -0.8122  0.6246  0.9183
  132OSM    H5F14261   5.330   4.699   7.142  0.1035  0.3415 -0.4285
  132OSM    H5G14262   5.389   4.533   7.167 -0.4944 -0.0573 -1.8977
  132OSM    C6F14263   5.174   4.548   7.232  0.1374  0.2547 -0.3042
  132OSM    H6F14264   5.121   4.461   7.188  2.5669  0.0914 -3.0582
  132OSM    H6G14265   5.111   4.639   7.226 -0.6202 -0.2226  0.2834
  132OSM    C7F14266   5.217   4.524   7.378  0.2343 -0.1217  0.1849
  132OSM    H7F14267   5.289   4.440   7.368  1.9345  1.5514 -2.2700
  132OSM    H7G14268   5.126   4.492   7.433  0.8704  1.4427  2.2006
  132OSM    C8F14269   5.301   4.634   7.447 -0.0241 -0.0378  1.1123
  132OSM    H8F14270   5.233   4.722   7.458 -2.1726 -1.3343 -1.3222
  132OSM    H8G14271   5.383   4.670   7.381 -0.2161 -1.0685  0.2931
  132OSM    C9F14272   5.368   4.589   7.577 -0.3095 -0.3255  0.2537
  132OSM    H9F14273   5.451   4.518   7.568 -1.2135 -1.2530 -1.0686
  132OSM   C10F14274   5.333   4.609   7.704 -0.3846 -0.2924 -0.7741
  132OSM   H10F14275   5.408   4.578   7.779 -0.6553 -1.4974 -0.9880
  132OSM   C11F14276   5.214   4.688   7.753  0.0568  0.3730  0.8449
  132OSM   H11F14277   5.167   4.734   7.663 -0.4010  1.1662  1.4859
  132OSM   H11G14278   5.257   4.766   7.819  0.8896 -0.0184  0.7653
  132OSM   C12F14279   5.115   4.606   7.831  0.1619  0.4558  0.3914
  132OSM   H12F14280   5.077   4.520   7.772 -1.4018  2.0001 -0.9108
  132OSM   H12G14281   5.035   4.683   7.839 -0.7948 -0.4281 -0.4715
  132OSM   C13F14282   5.158   4.553   7.975 -0.0600 -0.2469  0.0739
  132OSM   H13F14283   5.197   4.636   8.037 -2.7986  1.0670  0.0920
  132OSM   H13G14284   5.246   4.491   7.948 -0.2189  0.1131 -1.3025
  132OSM   C14F14285   5.059   4.464   8.048  0.1745 -0.8035  0.5820
  132OSM   H14F14286   5.052   4.373   7.984  0.9840 -0.2416 -0.3242
  132OSM   H14G14287   4.960   4.514   8.051  1.1371  1.1392  0.7399
  132OSM   C15F14288   5.103   4.432   8.192 -0.2319  0.1687 -0.4017
  132OSM   H15F14289   5.099   4.522   8.256 -0.6290 -0.4803  0.4859
  132OSM   H15G14290   5.210   4.402   8.194  0.1908  1.7491  1.5456
  132OSM   C16F14291   5.009   4.319   8.233 -0.3355  0.9535  0.1641
  132OSM   H16F14292   5.028   4.222   8.182 -0.5957  1.5044 -1.0055
  132OSM   H16G14293   4.906   4.352   8.208 -0.6259 -0.1464 -0.1278
  132OSM   C17F14294   5.028   4.306   8.391  0.3748 -0.2116  0.2637
  132OSM   H17F14295   4.977   4.398   8.426  0.2356 -0.8096  1.6587
  132OSM   H17G14296   5.135   4.310   8.421 -0.0720 -1.8294  2.1856
  132OSM   C18F14297   4.958   4.185   8.452  0.2358 -0.1382 -0.2488
  132OSM   H18F14298   4.852   4.184   8.421  0.0558  2.1838  0.2093
  132OSM   H18G14299   4.962   4.187   8.563  1.4501  0.8534 -0.2990
  132OSM   H18H14300   5.009   4.096   8.408  1.0549 -0.8340  1.9969
  133SAPE     N14301   0.815   1.626  10.773  0.3824 -0.1143  0.0953
  133SAPE   HN114302   0.750   1.682  10.831 -0.2470 -0.4599 -0.2757
  133SAPE   HN214303   0.763   1.549  10.725 -1.6093  1.6674 -0.6579
  133SAPE   HN314304   0.871   1.568  10.839  2.0416  0.3264 -0.9013
  133SAPE   C1214305   0.891   1.713  10.685 -0.3171 -0.2772 -0.0047
  133SAPE  H12A14306   0.972   1.655  10.636  0.6556  0.4693  0.7020
  133SAPE  H12B14307   0.939   1.792  10.747 -2.8679  0.5545  0.9808
  133SAPE   C1114308   0.804   1.770  10.571 -0.4628  0.0960  0.0880
  133SAPE  H11A14309   0.742   1.686  10.533  0.6349 -1.4210  1.5685
  133SAPE  H11B14310   0.885   1.801  10.501 -0.0414 -1.8005 -0.2894
  133SAPE     P14311   0.595   1.884  10.667 -0.1581  0.2168 -0.0925
  133SAPE   O1314312   0.577   1.759  10.748  0.1241  0.1940  0.2889
  133SAPE   O1414313   0.558   2.015  10.727 -0.0032 -0.0875 -0.1170
  133SAPE   O1214314   0.739   1.888  10.617  0.1323  0.4745 -0.0226
  133SAPE   O1114315   0.520   1.876  10.527  0.4792  0.0395 -0.3938
  133SAPE    C114316   0.528   1.986  10.433 -0.4926 -0.6585  1.2370
  133SAPE    HA14317   0.498   2.085  10.472  0.9439 -0.8270  2.7868
  133SAPE    HB14318   0.631   1.995  10.394  0.0797  2.6127  3.3305
  133SAPE    C214319   0.450   1.979  10.299 -0.0662 -0.0341 -0.4967
  133SAPE    HS14320   0.456   2.075  10.244 -1.0619  0.5082  0.3279
  133SAPE   O2114321   0.319   1.940  10.329  0.6125  0.3133  0.5832
  133SAPE   C2114322   0.246   2.027  10.397  1.0144  0.1658 -0.6851
  133SAPE   O2214323   0.274   2.142  10.420 -0.0177  0.3293 -0.0982
  133SAPE   C2214324   0.113   1.965  10.427 -0.3564  0.2644 -0.0519
  133SAPE   H2R14325   0.078   1.893  10.350 -0.2011 -0.3822  0.4788
  133SAPE   H2S14326   0.123   1.908  10.522 -0.4772  0.9624  0.3829
  133SAPE    C314327   0.508   1.855  10.212 -0.2846 -0.4999 -0.1168
  133SAPE    HX14328   0.492   1.760  10.268 -0.0024 -0.0736  0.7033
  133SAPE    HY14329   0.617   1.871  10.201 -0.1527 -0.9039  0.5566
  133SAPE   O3114330   0.441   1.853  10.086 -0.0506  0.0348 -0.3299
  133SAPE   C3114331   0.481   1.946   9.990 -0.1181  0.4505 -0.7119
  133SAPE   O3214332   0.565   2.028  10.015  0.3174  0.8131  0.0283
  133SAPE   C3214333   0.402   1.934   9.859 -0.9520 -0.0623 -0.6582
  133SAPE   H2X14334   0.297   1.921   9.893 -0.3642 -1.3233  0.7053
  133SAPE   H2Y14335   0.442   1.843   9.810  0.7566  0.2727  0.0822
  133SAPE   C2314336  -0.004   2.069  10.451  0.0209 -0.0412  0.1922
  133SAPE   H3R14337   0.031   2.140  10.529 -1.0567  0.5467  0.1511
  133SAPE   H3S14338  -0.080   2.004  10.499  1.3446 -0.3587  1.9049
  133SAPE   C2414339  -0.053   2.142  10.332 -0.6869 -0.3005 -0.2234
  133SAPE   H4R14340   0.016   2.225  10.305 -1.2705  0.1388 -0.3901
  133SAPE   H4S14341  -0.145   2.191  10.371  1.7152  0.9377  4.1478
  133SAPE   C2514342  -0.090   2.053  10.216  0.2852  0.3334 -1.2314
  133SAPE   H5R14343  -0.168   1.979  10.238  0.1474  1.4925  2.4671
  133SAPE   C2614344  -0.052   2.073  10.090  1.1308 -0.3801  0.0340
  133SAPE   H6R14345  -0.077   2.002  10.010  1.1552 -1.1233  0.6818
  133SAPE   C2714346   0.041   2.182  10.036  0.1951  0.0963  0.2223
  133SAPE   H7R14347   0.006   2.278  10.078  0.4340  0.3068 -0.0637
  133SAPE   H7S14348   0.026   2.191   9.927  2.9675 -0.1727 -0.2181
  133SAPE   C2814349   0.189   2.156  10.071  0.6532 -0.2735 -0.0964
  133SAPE   H8R14350   0.207   2.058  10.117  0.4940  0.0345  0.6145
  133SAPE   C2914351   0.286   2.252  10.057  1.0705  0.1046  0.5598
  133SAPE   H9R14352   0.384   2.231  10.101  1.8288  0.5984 -0.8637
  133SAPE  C21014353   0.278   2.396  10.009 -0.5852 -0.1531  0.2105
  133SAPE  H10R14354   0.323   2.468  10.081 -1.9401 -1.1240  2.0891
  133SAPE  H10S14355   0.170   2.421  10.009 -0.8623 -1.3042  0.4495
  133SAPE  C21114356   0.335   2.420   9.871  0.1999 -0.3259 -0.1337
  133SAPE  H11R14357   0.444   2.435   9.867  0.4645 -1.7481  1.4027
  133SAPE  C21214358   0.264   2.443   9.754 -0.2639  0.7125  0.8183
  133SAPE  H12R14359   0.331   2.457   9.669  2.2425 -3.7239  1.9096
  133SAPE  C21314360   0.113   2.424   9.731  0.2030  0.2792  1.0206
  133SAPE  H13R14361   0.083   2.337   9.794 -1.5649  0.5784  0.6364
  133SAPE  H13S14362   0.091   2.411   9.623  2.0166  2.2320  0.3788
  133SAPE  C21414363   0.029   2.545   9.772 -0.4018 -0.3494 -0.8191
  133SAPE  H14R14364   0.047   2.578   9.875 -0.6012 -1.8589 -0.2889
  133SAPE  C21514365  -0.063   2.608   9.698  0.2716  0.5156  0.0024
  133SAPE  H15R14366  -0.126   2.684   9.748 -2.7777 -2.7554  1.3880
  133SAPE  C21614367  -0.109   2.583   9.557  0.5497  0.7870  0.7867
  133SAPE  H16R14368  -0.017   2.567   9.496  1.4683  1.9467  1.8378
  133SAPE  H16S14369  -0.158   2.672   9.513  0.8653  0.3114 -0.5674
  133SAPE  C21714370  -0.204   2.460   9.559  0.1019  0.3324 -0.1594
  133SAPE  H17R14371  -0.301   2.494   9.602  0.1691  0.3880 -0.0508
  133SAPE  H17S14372  -0.175   2.386   9.637  0.6833 -0.2367 -0.9073
  133SAPE  C21814373  -0.211   2.387   9.426  0.1017  0.0950  0.0156
  133SAPE  H18R14374  -0.116   2.333   9.407 -0.7690 -0.8996 -1.6163
  133SAPE  H18S14375  -0.237   2.471   9.359 -1.4655  0.1481  0.6756
  133SAPE  C21914376  -0.319   2.276   9.429 -0.0147  0.0312  0.2629
  133SAPE  H19R14377  -0.291   2.217   9.518 -0.1916  1.5268  1.3249
  133SAPE  H19S14378  -0.307   2.218   9.335 -0.6365 -0.5003  0.5114
  133SAPE  C22014379  -0.467   2.312   9.443  0.0151 -0.0741  0.3226
  133SAPE  H20R14380  -0.509   2.209   9.445  1.3580 -0.6923 -1.9853
  133SAPE  H20S14381  -0.502   2.372   9.356 -1.1596 -1.9534 -0.5133
  133SAPE  H20T14382  -0.491   2.369   9.536  1.2229  1.7386 -0.4492
  133SAPE   C3314383   0.410   2.063   9.780 -0.6151  0.5391  0.4495
  133SAPE   H3X14384   0.510   2.110   9.766 -0.3175 -0.6801 -1.7118
  133SAPE   H3Y14385   0.360   2.147   9.832  1.1615  0.8322  1.7183
  133SAPE   C3414386   0.362   2.048   9.633  0.0073  0.5467  0.4277
  133SAPE   H4X14387   0.428   1.971   9.588  0.5004  0.8500  0.6233
  133SAPE   H4Y14388   0.383   2.149   9.592  1.7073 -0.0749 -0.2378
  133SAPE   C3514389   0.217   2.013   9.624 -0.3090 -0.2606  0.1918
  133SAPE   H5X14390   0.167   2.055   9.713  3.3730  0.4580  2.0275
  133SAPE   H5Y14391   0.196   1.904   9.624  0.8253 -0.4881  0.9528
  133SAPE   C3614392   0.150   2.060   9.494  0.5698  0.1885 -0.1765
  133SAPE   H6X14393   0.173   2.166   9.469  0.0835 -1.0168 -6.6948
  133SAPE   H6Y14394   0.039   2.052   9.502  0.6422 -0.3591  0.3472
  133SAPE   C3714395   0.177   1.979   9.368  0.1935  0.0248 -0.1983
  133SAPE   H7X14396   0.169   1.870   9.388 -0.7667 -0.1746 -1.5681
  133SAPE   H7Y14397   0.284   1.995   9.346 -0.1236  0.6371 -1.2797
  133SAPE   C3814398   0.089   2.017   9.249 -0.6532 -0.6982  0.1974
  133SAPE   H8X14399   0.111   2.119   9.213  2.3076 -1.8912 -1.5355
  133SAPE   H8Y14400  -0.018   2.018   9.279 -0.1885 -0.2614  1.9285
  133SAPE   C3914401   0.096   1.933   9.119 -0.1001  0.4036  0.0154
  133SAPE   H9X14402   0.097   1.825   9.142  0.4133  0.5019  0.4764
  133SAPE   H9Y14403   0.198   1.958   9.080  0.5191 -0.0307  1.3274
  133SAPE  C31014404  -0.005   1.970   9.009  1.5171 -0.5597 -0.5594
  133SAPE  H10X14405   0.020   2.073   8.977 -2.0480  0.2543 -0.8648
  133SAPE  H10Y14406  -0.098   1.974   9.070  0.1617 -0.7888 -2.5949
  133SAPE  C31114407  -0.021   1.877   8.891 -0.2018  0.4000  0.1505
  133SAPE  H11X14408  -0.030   1.783   8.950  0.1068  1.1129  1.3723
  133SAPE  H11Y14409   0.065   1.891   8.823 -0.2888  0.1035 -0.0207
  133SAPE  C31214410  -0.163   1.887   8.832 -0.0768  0.1712  0.7211
  133SAPE  H12X14411  -0.172   1.988   8.786  2.8207 -0.1109 -0.5625
  133SAPE  H12Y14412  -0.240   1.871   8.911 -1.2187 -1.2004 -0.6463
  133SAPE  C31314413  -0.198   1.789   8.718 -0.0776 -0.8461 -1.0438
  133SAPE  H13X14414  -0.157   1.691   8.750 -2.7108 -1.1679  1.5838
  133SAPE  H13Y14415  -0.151   1.832   8.627  0.3723 -2.5666 -1.6356
  133SAPE  C31414416  -0.352   1.771   8.697 -0.7633 -0.2006 -0.1254
  133SAPE  H14X14417  -0.405   1.868   8.684  0.1701  0.4594  0.8427
  133SAPE  H14Y14418  -0.388   1.725   8.791  0.4905  1.0462  0.9903
  133SAPE  C31514419  -0.379   1.674   8.588  0.0160 -0.4541 -0.0251
  133SAPE  H15X14420  -0.335   1.578   8.624  0.7944 -0.8227 -1.9429
  133SAPE  H15Y14421  -0.317   1.701   8.501  0.6435 -1.8218 -0.0131
  133SAPE  C31614422  -0.527   1.665   8.555 -0.0886  0.3318 -0.5909
  133SAPE  H16X14423  -0.588   1.621   8.637 -2.9310  0.7883 -2.3557
  133SAPE  H16Y14424  -0.546   1.581   8.485  1.6212  0.2113 -0.9210
  133SAPE  C31714425  -0.592   1.795   8.510  0.2927  0.1884 -0.2441
  133SAPE  H17X14426  -0.624   1.844   8.604 -0.9143  0.5534 -0.8285
  133SAPE  H17Y14427  -0.688   1.765   8.462  0.4937 -0.7770 -0.0461
  133SAPE  C31814428  -0.507   1.878   8.409  0.0412  0.2288 -0.0253
  133SAPE  H18X14429  -0.410   1.909   8.453 -0.4555  1.8770 -0.0569
  133SAPE  H18Y14430  -0.563   1.966   8.370  1.8240  1.0762 -0.7127
  133SAPE  H18Z14431  -0.479   1.815   8.322 -1.6592 -1.0964  0.3522
  134SAPE     N14432   3.385   3.311  10.974 -0.4581 -0.0682 -0.1794
  134SAPE   HN114433   3.357   3.409  10.990  2.1312  0.2931  2.6233
  134SAPE   HN214434   3.458   3.292  11.045  0.0698  0.9382 -0.4460
  134SAPE   HN314435   3.434   3.302  10.882  0.3942  0.5111  0.2096
  134SAPE   C1214436   3.274   3.216  10.973  0.6325 -0.3454 -0.5313
  134SAPE  H12A14437   3.243   3.209  11.080 -3.2720 -0.5583 -1.5950
  134SAPE  H12B14438   3.319   3.118  10.947 -2.8141 -1.9313 -0.8361
  134SAPE   C1114439   3.174   3.252  10.866 -0.1217  0.5438 -0.7576
  134SAPE  H11A14440   3.103   3.324  10.914 -2.2172 -0.8131 -1.7496
  134SAPE  H11B14441   3.116   3.165  10.829  0.3785  1.4292 -3.7695
  134SAPE     P14442   3.171   3.405  10.648 -0.3195 -0.0948  0.4080
  134SAPE   O1314443   3.055   3.475  10.704  0.0794  0.0699  0.2210
  134SAPE   O1414444   3.271   3.484  10.576 -0.3036 -1.0253  0.6070
  134SAPE   O1214445   3.243   3.318  10.759 -0.1423 -0.2947 -0.1522
  134SAPE   O1114446   3.117   3.301  10.547  0.5952 -0.0674 -0.8338
  134SAPE    C114447   3.189   3.211  10.475 -0.3135  0.0727  0.3866
  134SAPE    HA14448   3.272   3.262  10.422 -1.0961  0.9899  0.0297
  134SAPE    HB14449   3.231   3.138  10.548 -2.3021  0.2775  1.7699
  134SAPE    C214450   3.107   3.128  10.370 -0.2025 -0.8440 -0.1611
  134SAPE    HS14451   3.174   3.063  10.310  2.0011  1.4326 -0.2752
  134SAPE   O2114452   3.022   3.214  10.286  0.1213 -0.7857 -0.8247
  134SAPE   C2114453   3.093   3.301  10.217 -0.0718 -0.8943  0.1439
  134SAPE   O2214454   3.213   3.296  10.195 -0.5036 -0.2166 -0.1216
  134SAPE   C2214455   3.007   3.416  10.164  0.3125  0.3048  0.1163
  134SAPE   H2R14456   2.922   3.425  10.235  1.6103  2.2437  1.4818
  134SAPE   H2S14457   3.059   3.514  10.162 -0.9452  0.9685 -0.7590
  134SAPE    C314458   3.009   3.028  10.441 -0.3014  0.1454  0.0201
  134SAPE    HX14459   2.976   3.090  10.527  0.0696 -0.6930  0.7768
  134SAPE    HY14460   3.076   2.956  10.493 -0.7499 -1.3710 -1.4786
  134SAPE   O3114461   2.906   2.970  10.356  0.7077 -0.4964 -0.2768
  134SAPE   C3114462   2.945   2.861  10.293  0.1226  0.2445  0.4650
  134SAPE   O3214463   3.054   2.806  10.313 -0.6731  0.3871  0.2002
  134SAPE   C3214464   2.848   2.806  10.192  0.4075  0.4170  0.1779
  134SAPE   H2X14465   2.745   2.794  10.231  0.4850 -2.4307 -0.4175
  134SAPE   H2Y14466   2.891   2.707  10.170 -0.3374 -0.7096  3.4544
  134SAPE   C2314467   2.964   3.379  10.019 -0.0316  0.2611  0.1666
  134SAPE   H3R14468   2.887   3.457  10.002 -0.8985 -0.0737  2.3187
  134SAPE   H3S14469   2.913   3.280  10.016 -2.3649  1.3855  1.1071
  134SAPE   C2414470   3.080   3.385   9.916 -0.0058 -0.0473 -0.2664
  134SAPE   H4R14471   3.049   3.326   9.827  1.0224 -2.5099  0.9640
  134SAPE   H4S14472   3.170   3.340   9.964 -1.4239 -1.2059  1.3987
  134SAPE   C2514473   3.100   3.528   9.875 -0.0606  0.4133 -0.5241
  134SAPE   H5R14474   3.155   3.590   9.948 -1.4827  2.8978 -1.5155
  134SAPE   C2614475   3.060   3.583   9.757  0.3009 -0.4260  1.3036
  134SAPE   H6R14476   3.074   3.692   9.752 -1.3963 -0.2037  1.2355
  134SAPE   C2714477   2.994   3.509   9.639 -0.4126  0.0987  0.5773
  134SAPE   H7R14478   2.922   3.577   9.588  1.4916 -0.6976 -3.3506
  134SAPE   H7S14479   2.933   3.432   9.690  1.2228 -2.2495 -0.8832
  134SAPE   C2814480   3.087   3.457   9.529  0.4140 -0.0217 -0.4702
  134SAPE   H8R14481   3.161   3.390   9.575  1.7913  1.3191 -0.7159
  134SAPE   C2914482   3.082   3.485   9.394  0.5451 -0.7351 -0.2276
  134SAPE   H9R14483   3.158   3.437   9.330  2.1263  1.1667  0.1900
  134SAPE  C21014484   2.973   3.566   9.320 -0.0624 -0.4778  0.9539
  134SAPE  H10R14485   2.917   3.637   9.384 -0.8922 -1.8160  1.7464
  134SAPE  H10S14486   2.904   3.493   9.272 -0.5411  0.7559 -0.2655
  134SAPE  C21114487   3.046   3.635   9.209  0.5431 -0.3288 -0.8198
  134SAPE  H11R14488   3.150   3.659   9.232  1.1841 -2.1170 -1.7338
  134SAPE  C21214489   2.997   3.671   9.089  0.2083  0.2654 -0.0107
  134SAPE  H12R14490   3.070   3.722   9.024 -0.4807  1.3782  0.0715
  134SAPE  C21314491   2.858   3.639   9.043  0.0623 -0.0410  0.8296
  134SAPE  H13R14492   2.786   3.624   9.126 -2.0324  2.1820 -0.5051
  134SAPE  H13S14493   2.877   3.539   8.998  2.2698  1.3092 -1.4185
  134SAPE  C21414494   2.807   3.735   8.935 -0.1635  0.7520  0.5787
  134SAPE  H14R14495   2.749   3.818   8.976 -0.8038  0.4498  0.2854
  134SAPE  C21514496   2.827   3.715   8.801 -0.7080  0.1078  0.0052
  134SAPE  H15R14497   2.771   3.773   8.726  3.6382 -0.1380 -3.6412
  134SAPE  C21614498   2.906   3.597   8.740  0.0070  0.9743  0.0340
  134SAPE  H16R14499   2.961   3.540   8.817 -3.2491  0.8512  2.3818
  134SAPE  H16S14500   2.985   3.631   8.669 -0.7882 -1.3460 -2.0429
  134SAPE  C21714501   2.815   3.497   8.657 -0.0332  0.1824  0.1118
  134SAPE  H17R14502   2.747   3.444   8.727  1.3457  0.3894  1.6438
  134SAPE  H17S14503   2.884   3.423   8.611  0.6429  0.5382  0.5471
  134SAPE  C21814504   2.738   3.564   8.542 -0.0582  0.5994 -0.9875
  134SAPE  H18R14505   2.796   3.649   8.501  1.0575  1.1369  1.6230
  134SAPE  H18S14506   2.653   3.606   8.600  1.0228  1.9141 -0.3259
  134SAPE  C21914507   2.675   3.480   8.427  0.1221  0.2664 -0.2853
  134SAPE  H19R14508   2.577   3.521   8.395  0.9562  1.3715 -1.4658
  134SAPE  H19S14509   2.657   3.376   8.462 -0.4706  0.3101 -0.4516
  134SAPE  C22014510   2.779   3.486   8.311  0.0585 -0.3549 -0.0493
  134SAPE  H20R14511   2.789   3.592   8.279  0.1804 -0.6128 -0.8818
  134SAPE  H20S14512   2.733   3.437   8.223  0.9428  0.6422 -1.0754
  134SAPE  H20T14513   2.880   3.449   8.341 -0.2935 -1.6332 -0.4251
  134SAPE   C3314514   2.841   2.891  10.067  0.0608 -0.6319 -0.4878
  134SAPE   H3X14515   2.822   2.994  10.104  0.9429 -1.1829  1.5581
  134SAPE   H3Y14516   2.759   2.866   9.996 -0.3445  1.1819 -0.6968
  134SAPE   C3414517   2.978   2.891   9.990  0.3552 -0.0136 -0.0153
  134SAPE   H4X14518   3.000   2.791   9.947  0.6704 -0.8128  1.9307
  134SAPE   H4Y14519   3.062   2.929  10.052  0.8603 -0.0198 -0.6981
  134SAPE   C3514520   2.950   2.977   9.868 -0.1313 -0.5464 -0.5844
  134SAPE   H5X14521   2.939   3.081   9.905 -1.5032 -0.6475 -0.6767
  134SAPE   H5Y14522   2.845   2.959   9.836 -0.3539 -3.4512  1.5865
  134SAPE   C3614523   3.052   2.963   9.755  0.3122  0.8745 -0.4797
  134SAPE   H6X14524   3.045   2.855   9.728  0.7284  0.5027  0.8487
  134SAPE   H6Y14525   3.154   2.970   9.798  0.9299 -0.1390 -1.7314
  134SAPE   C3714526   3.023   3.049   9.622 -0.4717 -0.3903  0.0197
  134SAPE   H7X14527   3.018   3.158   9.643  0.4360 -0.7869  2.4051
  134SAPE   H7Y14528   2.923   3.021   9.581  0.0274 -0.7946 -0.9372
  134SAPE   C3814529   3.129   3.011   9.520 -0.6715 -0.7195 -0.4075
  134SAPE   H8X14530   3.144   2.902   9.507 -0.6973 -1.1351  2.7373
  134SAPE   H8Y14531   3.224   3.055   9.558 -1.1177  0.5977 -0.7850
  134SAPE   C3914532   3.097   3.088   9.392  0.0460 -0.4892 -0.2261
  134SAPE   H9X14533   3.080   3.197   9.411 -0.0263 -0.8560  1.9206
  134SAPE   H9Y14534   3.003   3.041   9.356 -0.5193 -0.0764  0.6908
  134SAPE  C31014535   3.197   3.062   9.274 -0.4248  0.4032 -1.0111
  134SAPE  H10X14536   3.239   2.961   9.288  0.9619  0.8692 -1.6893
  134SAPE  H10Y14537   3.289   3.124   9.267 -0.7549  1.0106 -0.0488
  134SAPE  C31114538   3.143   3.054   9.134  0.7734 -0.1540  0.1145
  134SAPE  H11X14539   3.069   2.971   9.132 -1.1453  1.5262 -1.0889
  134SAPE  H11Y14540   3.228   3.026   9.069  0.9017 -1.8275  0.9653
  134SAPE  C31214541   3.088   3.182   9.085 -0.0143 -0.3460  0.5676
  134SAPE  H12X14542   3.169   3.257   9.071 -0.0251 -0.3983  0.2346
  134SAPE  H12Y14543   3.019   3.221   9.163 -1.6404 -0.2867 -0.8757
  134SAPE  C31314544   3.008   3.178   8.957 -0.3514 -0.5058  0.2522
  134SAPE  H13X14545   2.971   3.281   8.940 -1.8246 -1.3302 -1.6171
  134SAPE  H13Y14546   2.930   3.101   8.974  1.4631 -2.5427 -0.3661
  134SAPE  C31414547   3.092   3.141   8.841  0.6400  0.0342  0.3534
  134SAPE  H14X14548   3.145   3.045   8.858 -0.8639 -0.9216 -0.3322
  134SAPE  H14Y14549   3.173   3.215   8.822  1.2179 -0.1585  1.9780
  134SAPE  C31514550   3.020   3.119   8.709 -0.2779  0.3620 -1.3442
  134SAPE  H15X14551   2.967   3.215   8.690  0.3810  1.0688  0.3131
  134SAPE  H15Y14552   2.945   3.038   8.719  1.8133 -1.7925 -2.5574
  134SAPE  C31614553   3.101   3.097   8.587 -0.1180  0.2831  0.0148
  134SAPE  H16X14554   3.170   3.012   8.606  1.3069  0.9435 -2.0720
  134SAPE  H16Y14555   3.176   3.178   8.573  2.8382 -2.0817  1.7363
  134SAPE  C31714556   3.016   3.080   8.466 -0.1365  0.4798  0.2665
  134SAPE  H17X14557   2.962   3.176   8.454  0.9822  0.9560 -1.2501
  134SAPE  H17Y14558   2.941   3.000   8.485 -0.0396 -0.0608 -1.5366
  134SAPE  C31814559   3.086   3.063   8.333 -0.0383  0.5000  0.0922
  134SAPE  H18X14560   3.180   3.007   8.354 -0.2765  0.5824  1.4014
  134SAPE  H18Y14561   3.118   3.156   8.282  0.6379 -0.6207 -1.5873
  134SAPE  H18Z14562   3.032   2.998   8.260  1.0103  1.8090 -1.8934
  135SAPE     N14563   3.078   1.685  10.560 -0.2050  0.2072 -0.0238
  135SAPE   HN114564   3.172   1.699  10.603 -0.7381  1.8344  0.6913
  135SAPE   HN214565   3.091   1.709  10.460  1.4016 -0.5613 -0.0237
  135SAPE   HN314566   3.004   1.738  10.611  0.1627  1.6047 -0.9318
  135SAPE   C1214567   3.056   1.534  10.561 -0.8890 -0.7090  0.6645
  135SAPE  H12A14568   3.036   1.504  10.666 -4.3059  0.4292  0.4047
  135SAPE  H12B14569   3.155   1.493  10.532  0.3991  2.8456 -0.1631
  135SAPE   C1114570   2.935   1.492  10.466  1.3980  0.2393  0.1067
  135SAPE  H11A14571   2.929   1.381  10.477 -1.1239  0.4354  0.9250
  135SAPE  H11B14572   2.947   1.511  10.358  1.5171  0.0094  0.0797
  135SAPE     P14573   2.745   1.508  10.628 -0.3231  0.1840  0.1565
  135SAPE   O1314574   2.825   1.525  10.747  0.1323  0.3015  0.6331
  135SAPE   O1414575   2.611   1.562  10.631 -0.2118  0.4846  0.5298
  135SAPE   O1214576   2.815   1.558  10.505  0.2356  0.2326  0.9534
  135SAPE   O1114577   2.727   1.353  10.606  0.0138 -0.3441  0.2190
  135SAPE    C114578   2.671   1.303  10.487 -0.0344 -0.4806  0.2286
  135SAPE    HA14579   2.598   1.367  10.434  1.0292 -1.0538 -1.9779
  135SAPE    HB14580   2.755   1.292  10.415  1.4691  2.1362  1.5228
  135SAPE    C214581   2.596   1.167  10.510 -0.2724 -0.1885 -0.4876
  135SAPE    HS14582   2.501   1.190  10.563  0.4488  0.2985  0.6090
  135SAPE   O2114583   2.686   1.088  10.586  0.0638  0.1722 -0.5925
  135SAPE   C2114584   2.655   1.056  10.706 -0.1104 -0.4749 -0.8057
  135SAPE   O2214585   2.548   1.087  10.764 -0.1382  0.5450  0.3241
  135SAPE   C2214586   2.768   0.985  10.775 -0.9968  0.2827  0.0672
  135SAPE   H2R14587   2.866   1.017  10.734  0.7741 -3.4311  1.1678
  135SAPE   H2S14588   2.755   1.010  10.883  1.3388 -0.9611  0.6563
  135SAPE    C314589   2.553   1.097  10.381 -0.0824  0.9287  0.1137
  135SAPE    HX14590   2.500   1.001  10.400 -0.5164  0.3583 -3.5478
  135SAPE    HY14591   2.642   1.069  10.320 -2.3167  1.4612 -3.5666
  135SAPE   O3114592   2.479   1.180  10.294  0.2481 -0.9717 -0.6681
  135SAPE   C3114593   2.347   1.193  10.321 -0.1811 -0.0329  0.8273
  135SAPE   O3214594   2.284   1.130  10.400  0.2569  0.4735 -0.4406
  135SAPE   C3214595   2.288   1.293  10.232  0.8642 -0.5788  0.0641
  135SAPE   H2X14596   2.350   1.329  10.147  0.8655 -0.8677 -0.0586
  135SAPE   H2Y14597   2.268   1.387  10.287  1.6350 -0.7484  0.6387
  135SAPE   C2314598   2.742   0.836  10.786  0.0293  1.0654 -0.5590
  135SAPE   H3R14599   2.638   0.813  10.819  0.2489  0.4201 -0.2947
  135SAPE   H3S14600   2.814   0.800  10.862 -1.2468 -0.4635 -0.0420
  135SAPE   C2414601   2.776   0.761  10.654 -0.2427 -0.2193  0.2864
  135SAPE   H4R14602   2.711   0.807  10.576 -0.5663 -0.2056  0.5628
  135SAPE   H4S14603   2.736   0.660  10.675 -1.1447  0.5835  2.5889
  135SAPE   C2514604   2.917   0.739  10.598  0.6045  1.0041 -0.3612
  135SAPE   H5R14605   2.982   0.692  10.674  1.5607 -0.7353 -2.2099
  135SAPE   C2614606   2.971   0.768  10.474 -0.3591 -0.7325  0.0185
  135SAPE   H6R14607   3.080   0.761  10.457 -0.6696 -0.1447 -2.4110
  135SAPE   C2714608   2.889   0.842  10.367 -0.6264  0.0624 -0.2553
  135SAPE   H7R14609   2.956   0.872  10.284 -0.0031 -0.5379  0.0232
  135SAPE   H7S14610   2.844   0.932  10.414  1.5154  1.8602 -1.5504
  135SAPE   C2814611   2.783   0.759  10.299  1.1195  0.2900  0.4089
  135SAPE   H8R14612   2.735   0.681  10.360 -3.1127  1.3011 -1.4508
  135SAPE   C2914613   2.731   0.772  10.176  0.4480 -0.8699  0.1429
  135SAPE   H9R14614   2.678   0.682  10.141  0.2944 -1.5011  1.9111
  135SAPE  C21014615   2.778   0.873  10.078  0.9713 -0.1257  0.3786
  135SAPE  H10R14616   2.773   0.813   9.985 -0.1436  0.6203 -0.0530
  135SAPE  H10S14617   2.885   0.897  10.099  0.8896 -0.4993  1.2281
  135SAPE  C21114618   2.693   0.990  10.050  0.2229  0.4411  0.6560
  135SAPE  H11R14619   2.637   1.022  10.139 -0.2650 -0.6937  0.7671
  135SAPE  C21214620   2.683   1.058   9.936 -0.2265 -0.1974  0.8109
  135SAPE  H12R14621   2.620   1.147   9.924  1.1731  0.4944 -1.8216
  135SAPE  C21314622   2.759   1.028   9.812  0.7848 -0.4451 -0.0268
  135SAPE  H13R14623   2.856   0.979   9.836  0.9943  0.2737  0.6038
  135SAPE  H13S14624   2.786   1.128   9.773 -0.3812  0.8016  2.3147
  135SAPE  C21414625   2.701   0.930   9.718  0.5285  0.2260 -0.1622
  135SAPE  H14R14626   2.678   0.830   9.758  2.1930  0.0254  0.3511
  135SAPE  C21514627   2.681   0.952   9.588  0.0527 -0.0562  0.5049
  135SAPE  H15R14628   2.636   0.870   9.531  0.8300 -0.1409  0.0204
  135SAPE  C21614629   2.712   1.080   9.508  0.0145  0.1117  0.6428
  135SAPE  H16R14630   2.789   1.057   9.432 -0.8449 -1.4254  0.2080
  135SAPE  H16S14631   2.759   1.162   9.566  1.3971  0.6919 -1.2561
  135SAPE  C21714632   2.604   1.163   9.422 -0.0437 -0.5357 -0.2674
  135SAPE  H17R14633   2.643   1.264   9.400 -0.0973 -0.5875 -0.6061
  135SAPE  H17S14634   2.508   1.169   9.478 -0.3256 -0.5253 -0.7444
  135SAPE  C21814635   2.591   1.079   9.290  0.2290  1.0941 -0.6339
  135SAPE  H18R14636   2.549   0.981   9.322  0.4089  1.4002  0.5662
  135SAPE  H18S14637   2.691   1.050   9.253  0.1240 -0.4846  0.2686
  135SAPE  C21914638   2.508   1.153   9.191  0.1446  0.1766  0.3850
  135SAPE  H19R14639   2.558   1.249   9.166  0.0394  0.0992 -0.1356
  135SAPE  H19S14640   2.409   1.186   9.230 -0.6046 -0.2299 -1.1561
  135SAPE  C22014641   2.491   1.084   9.055 -0.3624 -0.2197 -0.0287
  135SAPE  H20R14642   2.436   1.144   8.979 -0.4901 -0.2115  0.0693
  135SAPE  H20S14643   2.455   0.981   9.074 -1.3194  0.2480  0.7628
  135SAPE  H20T14644   2.590   1.071   9.006  1.4143  2.2566  2.6993
  135SAPE   C3314645   2.166   1.231  10.174  0.3279  0.6924 -0.3892
  135SAPE   H3X14646   2.104   1.177  10.248  0.5237  1.3953  0.2840
  135SAPE   H3Y14647   2.179   1.163  10.087 -1.4940  1.1737 -1.0636
  135SAPE   C3414648   2.067   1.324  10.104  0.4783 -0.1039  0.5216
  135SAPE   H4X14649   2.120   1.380  10.023 -0.0705  0.5829  0.6330
  135SAPE   H4Y14650   2.042   1.405  10.176 -0.8949  1.5979 -1.8077
  135SAPE   C3514651   1.938   1.255  10.045  0.5909 -0.2616 -0.0701
  135SAPE   H5X14652   1.883   1.187  10.114  0.0898  0.1309 -0.0785
  135SAPE   H5Y14653   1.984   1.195   9.964 -0.8120  0.6545 -1.5740
  135SAPE   C3614654   1.845   1.349   9.963  0.4216  0.4112 -0.3438
  135SAPE   H6X14655   1.897   1.392   9.874 -1.0474  0.7084 -1.0809
  135SAPE   H6Y14656   1.821   1.438  10.025  1.2247 -0.1162  0.7214
  135SAPE   C3714657   1.721   1.279   9.918  0.2934  0.2797 -0.3396
  135SAPE   H7X14658   1.661   1.352   9.859 -1.3678 -1.2921 -0.6286
  135SAPE   H7Y14659   1.669   1.249  10.012 -2.2391  1.7404 -1.1994
  135SAPE   C3814660   1.738   1.146   9.844  0.0340  0.1027  0.1907
  135SAPE   H8X14661   1.792   1.075   9.910  0.0527  0.2391  0.3203
  135SAPE   H8Y14662   1.795   1.163   9.750 -3.6285 -0.6173 -2.3136
  135SAPE   C3914663   1.596   1.095   9.789 -0.4523  0.2176  0.2416
  135SAPE   H9X14664   1.560   1.170   9.716  3.2302  0.3638 -1.5183
  135SAPE   H9Y14665   1.515   1.077   9.863  1.9002 -0.1013  2.8550
  135SAPE  C31014666   1.603   0.951   9.731 -0.5630 -0.2028  0.3263
  135SAPE  H10X14667   1.505   0.900   9.725 -0.3991 -0.4295 -0.5762
  135SAPE  H10Y14668   1.654   0.885   9.804  0.4924  2.4169  2.0330
  135SAPE  C31114669   1.687   0.940   9.607 -0.2438 -0.2377  0.2577
  135SAPE  H11X14670   1.793   0.958   9.634  0.0227  2.7115 -2.3716
  135SAPE  H11Y14671   1.652   1.012   9.529  0.6049 -1.7672 -1.5937
  135SAPE  C31214672   1.685   0.803   9.547 -0.9717 -0.5377  0.4182
  135SAPE  H12X14673   1.581   0.767   9.561 -0.8243 -2.2654 -2.4742
  135SAPE  H12Y14674   1.743   0.734   9.611 -0.5000  0.9741  1.6344
  135SAPE  C31314675   1.739   0.797   9.400  0.2467  0.5818 -0.1065
  135SAPE  H13X14676   1.784   0.700   9.371 -1.2899  0.4688 -2.2993
  135SAPE  H13Y14677   1.824   0.868   9.393 -0.1038  0.8313 -2.2005
  135SAPE  C31414678   1.626   0.843   9.305  0.2274 -0.1041  0.0909
  135SAPE  H14X14679   1.594   0.949   9.319  3.8043  0.8713  1.5367
  135SAPE  H14Y14680   1.533   0.790   9.334 -1.3707  2.7161  0.2740
  135SAPE  C31514681   1.658   0.827   9.158  0.3790 -0.1778 -0.4184
  135SAPE  H15X14682   1.659   0.719   9.133  2.2367 -0.3040  0.1184
  135SAPE  H15Y14683   1.761   0.868   9.144  0.4975 -0.4007 -0.2090
  135SAPE  C31614684   1.549   0.887   9.063 -0.3379 -0.4402  0.7594
  135SAPE  H16X14685   1.517   0.985   9.104 -0.0238 -0.0812  0.1596
  135SAPE  H16Y14686   1.459   0.821   9.069 -1.5420  1.1676  0.8921
  135SAPE  C31714687   1.595   0.891   8.919  0.3159  0.5811 -0.6595
  135SAPE  H17X14688   1.608   0.784   8.890 -1.1563  0.4901 -1.0320
  135SAPE  H17Y14689   1.700   0.924   8.934  1.7471 -4.1168  0.6125
  135SAPE  C31814690   1.517   0.966   8.809 -0.6996 -0.6890 -0.3492
  135SAPE  H18X14691   1.587   0.966   8.722 -1.3774 -2.2927 -0.9069
  135SAPE  H18Y14692   1.511   1.073   8.839 -0.5016 -0.5749 -0.7082
  135SAPE  H18Z14693   1.415   0.928   8.789 -1.2198  0.3721  0.2681
  136SAPE     N14694   5.535   1.283  10.623 -0.5761 -0.0018 -0.6340
  136SAPE   HN114695   5.533   1.384  10.649  0.4935  0.5463 -2.5298
  136SAPE   HN214696   5.509   1.272  10.523 -0.4489  1.3063 -0.8258
  136SAPE   HN314697   5.460   1.240  10.680 -0.4786 -0.2543 -0.6983
  136SAPE   C1214698   5.670   1.224  10.660 -0.5988  0.1488 -0.8151
  136SAPE  H12A14699   5.756   1.278  10.614  2.9016 -3.2828  1.4019
  136SAPE  H12B14700   5.674   1.121  10.620  0.4938 -0.7388  1.5099
  136SAPE   C1114701   5.675   1.201  10.807  0.0874  0.7440  0.5253
  136SAPE  H11A14702   5.646   1.289  10.868 -0.8627 -1.0278  2.7243
  136SAPE  H11B14703   5.781   1.178  10.832 -0.0103  0.5787  0.7907
  136SAPE     P14704   5.629   0.954  10.892 -0.0868  0.0296  0.1212
  136SAPE   O1314705   5.746   0.952  10.981 -0.2647  0.3257  0.1238
  136SAPE   O1414706   5.506   0.897  10.946 -0.6275  0.2330 -0.3324
  136SAPE   O1214707   5.584   1.098  10.849  0.1328 -0.2681 -0.1855
  136SAPE   O1114708   5.666   0.890  10.764 -0.0538  0.2845 -0.8465
  136SAPE    C114709   5.559   0.829  10.678 -0.5042  0.1182 -0.0016
  136SAPE    HA14710   5.521   0.738  10.729 -0.3237  0.1376  0.1722
  136SAPE    HB14711   5.479   0.903  10.660 -1.3651 -0.5777  0.8705
  136SAPE    C214712   5.603   0.785  10.533  0.1344 -0.1707  0.0195
  136SAPE    HS14713   5.684   0.712  10.554  2.0374  1.6324 -0.8654
  136SAPE   O2114714   5.656   0.899  10.462  0.6549  0.2499 -0.1840
  136SAPE   C2114715   5.758   0.894  10.384 -0.2800 -0.4479  0.4780
  136SAPE   O2214716   5.831   0.798  10.368  0.5649  0.0487  0.0171
  136SAPE   C2214717   5.769   1.026  10.296 -0.5159 -0.3124  0.8618
  136SAPE   H2R14718   5.672   1.046  10.246 -0.2060  1.4394  0.8986
  136SAPE   H2S14719   5.780   1.103  10.376  2.5030  0.0951  0.1250
  136SAPE    C314720   5.486   0.726  10.449 -0.0466  0.0306 -0.3586
  136SAPE    HX14721   5.402   0.799  10.453  0.9014  1.3205 -2.9801
  136SAPE    HY14722   5.454   0.631  10.498  1.7309 -0.8968 -0.9662
  136SAPE   O3114723   5.524   0.702  10.310  0.3532 -0.1343  0.8698
  136SAPE   C3114724   5.465   0.777  10.220  0.1670 -0.4203 -0.3649
  136SAPE   O3214725   5.382   0.863  10.234  0.2820 -0.2083  0.1692
  136SAPE   C3214726   5.521   0.736  10.082 -0.6939  0.0897  0.0819
  136SAPE   H2X14727   5.477   0.634  10.074 -1.0513  0.3307 -1.0023
  136SAPE   H2Y14728   5.632   0.724  10.079 -0.6377  0.5795  0.2297
  136SAPE   C2314729   5.883   1.023  10.189 -0.0824 -0.6348  0.2337
  136SAPE   H3R14730   5.831   0.953  10.120  1.1772 -1.3544 -0.0050
  136SAPE   H3S14731   5.976   0.970  10.219  1.8377  1.5833 -1.6155
  136SAPE   C2414732   5.920   1.156  10.114 -0.5542  0.1572  0.1334
  136SAPE   H4R14733   6.012   1.148  10.053 -0.3374  1.9765  0.1794
  136SAPE   H4S14734   5.941   1.234  10.191 -2.1877  1.5375 -0.7705
  136SAPE   C2514735   5.802   1.194  10.026 -0.5268  0.9102 -0.0860
  136SAPE   H5R14736   5.721   1.255  10.070 -2.2825  0.7720 -2.9794
  136SAPE   C2614737   5.777   1.156   9.901 -0.4867  0.3685  0.0141
  136SAPE   H6R14738   5.679   1.185   9.861  0.0143 -0.8532 -2.2118
  136SAPE   C2714739   5.862   1.060   9.817  0.1788  0.5397 -0.5892
  136SAPE   H7R14740   5.905   0.991   9.893  1.3754 -0.8022 -2.4374
  136SAPE   H7S14741   5.948   1.109   9.768  1.6282  1.4185  2.6880
  136SAPE   C2814742   5.773   0.988   9.719  0.0874  0.4694  0.1019
  136SAPE   H8R14743   5.684   0.945   9.768  1.5398 -0.7006  1.7814
  136SAPE   C2914744   5.789   0.993   9.584  0.6329 -0.3766 -0.0610
  136SAPE   H9R14745   5.733   0.932   9.511  2.8463 -0.5093 -1.7181
  136SAPE  C21014746   5.906   1.055   9.516 -0.1503  0.4335  0.0109
  136SAPE  H10R14747   5.979   0.975   9.491 -2.6706 -1.1624 -2.5078
  136SAPE  H10S14748   5.963   1.132   9.574  1.5742  0.4454 -1.6350
  136SAPE  C21114749   5.867   1.138   9.393 -0.8430 -0.1956  0.8022
  136SAPE  H11R14750   5.862   1.245   9.418 -1.2799  0.2337 -1.0808
  136SAPE  C21214751   5.839   1.097   9.271  0.2558 -0.2808  0.1988
  136SAPE  H12R14752   5.836   1.172   9.191  2.3678 -1.9400 -1.4967
  136SAPE  C21314753   5.846   0.961   9.214 -0.1877  0.1298 -0.0082
  136SAPE  H13R14754   5.761   0.945   9.144  0.7803 -0.1335 -1.1288
  136SAPE  H13S14755   5.844   0.882   9.293 -0.5616 -0.3045 -0.4467
  136SAPE  C21414756   5.980   0.929   9.153  0.3534  0.4492 -0.1581
  136SAPE  H14R14757   6.051   0.897   9.231 -0.2611 -0.6424 -0.0385
  136SAPE  C21514758   6.014   0.924   9.024 -0.3113 -0.5987  0.1461
  136SAPE  H15R14759   6.106   0.868   9.004 -1.9238 -4.6329  3.1081
  136SAPE  C21614760   5.940   0.953   8.897 -0.6635  0.2619 -0.1391
  136SAPE  H16R14761   6.009   0.995   8.821 -1.1592 -1.1649 -1.4296
  136SAPE  H16S14762   5.861   1.028   8.918 -1.7834 -0.1788 -2.5585
  136SAPE  C21714763   5.871   0.820   8.846  0.2142 -0.5742  0.3614
  136SAPE  H17R14764   5.807   0.792   8.932 -0.8942  1.0354  0.0714
  136SAPE  H17S14765   5.949   0.740   8.840  0.9765  0.1720  0.2339
  136SAPE  C21814766   5.792   0.832   8.712 -0.1341  0.3431 -0.1733
  136SAPE  H18R14767   5.857   0.873   8.632  0.2234 -1.0056 -0.5984
  136SAPE  H18S14768   5.696   0.886   8.718  0.2722  1.0574 -0.0659
  136SAPE  C21914769   5.764   0.687   8.663  0.3255  0.8546  0.4225
  136SAPE  H19R14770   5.729   0.619   8.745  0.4907 -1.3826 -1.3073
  136SAPE  H19S14771   5.856   0.633   8.630 -0.1473  0.6843 -0.6361
  136SAPE  C22014772   5.655   0.671   8.555  0.0527 -0.0222  0.4305
  136SAPE  H20R14773   5.639   0.567   8.520 -1.5731 -0.0032  1.0886
  136SAPE  H20S14774   5.690   0.712   8.458 -0.2876  0.8769  0.6817
  136SAPE  H20T14775   5.560   0.719   8.586 -1.4251 -0.2324 -3.4997
  136SAPE   C3314776   5.472   0.825   9.962 -0.3313  0.2757  0.7104
  136SAPE   H3X14777   5.546   0.907   9.950  0.0612 -0.4706 -2.3688
  136SAPE   H3Y14778   5.373   0.874   9.972 -0.0666  0.9426  0.1006
  136SAPE   C3414779   5.483   0.754   9.827  1.1316  1.0107  0.5165
  136SAPE   H4X14780   5.451   0.648   9.831 -0.0245  1.1916 -3.0644
  136SAPE   H4Y14781   5.593   0.749   9.816  0.9692 -0.3018 -0.6394
  136SAPE   C3514782   5.420   0.824   9.711 -0.4121 -0.4443 -0.2102
  136SAPE   H5X14783   5.496   0.893   9.667  0.1584 -0.1963  1.1588
  136SAPE   H5Y14784   5.346   0.893   9.756  0.8579  2.7181 -2.7234
  136SAPE   C3614785   5.364   0.734   9.599  0.0138 -0.0399  0.6212
  136SAPE   H6X14786   5.305   0.793   9.526  1.0395  1.0345  0.6501
  136SAPE   H6Y14787   5.286   0.664   9.639 -0.0956 -0.2281  0.0718
  136SAPE   C3714788   5.480   0.665   9.527 -0.0496  0.6505  0.3417
  136SAPE   H7X14789   5.529   0.594   9.598  0.3695  1.4215  0.8321
  136SAPE   H7Y14790   5.556   0.743   9.507  0.3942 -0.3915 -2.1492
  136SAPE   C3814791   5.442   0.598   9.393  0.5467  0.6506  0.1070
  136SAPE   H8X14792   5.536   0.574   9.340  0.4434  0.2025  0.1270
  136SAPE   H8Y14793   5.372   0.666   9.339 -1.7928 -2.2368 -0.6648
  136SAPE   C3914794   5.358   0.472   9.417  0.3244 -0.5925 -0.3811
  136SAPE   H9X14795   5.269   0.492   9.481  0.6340 -0.1240 -0.0873
  136SAPE   H9Y14796   5.422   0.396   9.467  1.8919  1.2131  0.4339
  136SAPE  C31014797   5.304   0.417   9.286  0.5626 -0.7476  1.0284
  136SAPE  H10X14798   5.389   0.395   9.218 -2.6921 -1.1923 -3.0512
  136SAPE  H10Y14799   5.255   0.502   9.234 -1.7827 -2.5824  0.1431
  136SAPE  C31114800   5.199   0.304   9.309  0.2088  0.2896 -0.6083
  136SAPE  H11X14801   5.117   0.361   9.358  1.6010  1.8902 -0.0764
  136SAPE  H11Y14802   5.241   0.228   9.379 -0.7898 -0.8066 -1.1912
  136SAPE  C31214803   5.166   0.243   9.172 -0.2204  0.5965  0.6458
  136SAPE  H12X14804   5.219   0.295   9.089  0.3352 -0.5706  0.2612
  136SAPE  H12Y14805   5.058   0.256   9.148 -0.0187  2.8861  0.8075
  136SAPE  C31314806   5.219   0.099   9.153 -0.5103 -0.2689  0.6380
  136SAPE  H13X14807   5.180   0.042   9.240 -1.7043  0.9062  0.8964
  136SAPE  H13Y14808   5.330   0.101   9.150 -0.5522  2.1660 -1.6003
  136SAPE  C31414809   5.160   0.041   9.024 -0.1861 -0.6012 -0.1749
  136SAPE  H14X14810   5.189   0.100   8.934 -0.3753  0.2272  0.2948
  136SAPE  H14Y14811   5.050   0.032   9.029 -0.3627  1.4925  0.3164
  136SAPE  C31514812   5.201  -0.105   8.998 -0.5243  0.2487  0.0135
  136SAPE  H15X14813   5.197  -0.158   9.096  1.9427  0.0121  0.0253
  136SAPE  H15Y14814   5.310  -0.107   8.977  0.1727  1.8539  3.2144
  136SAPE  C31614815   5.124  -0.195   8.897  0.6376 -0.2622  0.1641
  136SAPE  H16X14816   5.016  -0.175   8.910  0.3954 -1.0039 -0.6194
  136SAPE  H16Y14817   5.148  -0.302   8.916 -1.4959 -0.8915 -0.5004
  136SAPE  C31714818   5.147  -0.152   8.748 -0.4115 -0.4905  0.8524
  136SAPE  H17X14819   5.253  -0.179   8.728 -0.3812  0.3810 -0.2428
  136SAPE  H17Y14820   5.132  -0.042   8.741  0.2447 -0.4332  0.3243
  136SAPE  C31814821   5.051  -0.215   8.653 -0.3045 -0.0182  0.0114
  136SAPE  H18X14822   4.953  -0.166   8.668  0.9810  2.6616 -0.0070
  136SAPE  H18Y14823   5.047  -0.326   8.659 -0.7630  0.0241  0.4616
  136SAPE  H18Z14824   5.073  -0.204   8.544 -0.5819 -0.0400 -0.0473
  137SAPE     N14825   3.573   4.157  11.123  0.3363  0.1668 -0.0193
  137SAPE   HN114826   3.540   4.076  11.066  1.2021 -0.4051  0.2901
  137SAPE   HN214827   3.643   4.128  11.193  0.9002  2.9416  0.6373
  137SAPE   HN314828   3.484   4.186  11.170  2.4151  2.8854  2.4168
  137SAPE   C1214829   3.646   4.276  11.067  0.5672 -0.3802 -0.1715
  137SAPE  H12A14830   3.755   4.264  11.079  0.7933 -0.1958 -1.8408
  137SAPE  H12B14831   3.601   4.358  11.128 -2.3437 -1.0034 -1.3509
  137SAPE   C1114832   3.589   4.305  10.933  0.9827 -0.0493 -0.0386
  137SAPE  H11A14833   3.623   4.234  10.855  3.4918  0.2722  0.7208
  137SAPE  H11B14834   3.629   4.403  10.898 -0.9965  0.9906  0.4849
  137SAPE     P14835   3.350   4.232  10.848 -0.0783 -0.0034 -0.2624
  137SAPE   O1314836   3.381   4.094  10.878 -0.2795  0.6365 -0.1870
  137SAPE   O1414837   3.217   4.288  10.882 -1.1916 -0.3264 -0.0724
  137SAPE   O1214838   3.449   4.319  10.935  0.0833  0.3394 -0.3890
  137SAPE   O1114839   3.400   4.269  10.710 -0.0951 -0.2886  0.3353
  137SAPE    C114840   3.390   4.407  10.663 -0.1453 -0.5394  0.0261
  137SAPE    HA14841   3.284   4.426  10.636 -0.9822 -4.7895 -0.1279
  137SAPE    HB14842   3.422   4.479  10.741 -0.5078 -1.9844  1.5501
  137SAPE    C214843   3.459   4.420  10.525 -0.1272  0.4548 -0.1655
  137SAPE    HS14844   3.467   4.529  10.509  0.2257  0.2478 -1.4362
  137SAPE   O2114845   3.380   4.352  10.423  0.8558  0.5830  0.2144
  137SAPE   C2114846   3.306   4.428  10.355 -0.2475 -0.4320  1.3454
  137SAPE   O2214847   3.274   4.546  10.375  0.0279 -0.1071  0.6920
  137SAPE   C2214848   3.257   4.355  10.225 -0.0319  0.0825  0.0857
  137SAPE   H2R14849   3.343   4.304  10.177  0.0604 -0.0715  0.4130
  137SAPE   H2S14850   3.184   4.280  10.264  0.4460  0.2170  1.2721
  137SAPE    C314851   3.608   4.375  10.523  0.7125  0.1905  0.2850
  137SAPE    HX14852   3.613   4.271  10.561  0.0075  0.1280  0.2222
  137SAPE    HY14853   3.663   4.431  10.601 -0.7749 -2.1142  3.0970
  137SAPE   O3114854   3.662   4.406  10.396 -0.1197 -0.8524  0.5082
  137SAPE   C3114855   3.743   4.320  10.332  0.0287 -0.2466  0.0351
  137SAPE   O3214856   3.776   4.209  10.375  0.2056 -0.7867  0.0015
  137SAPE   C3214857   3.765   4.365  10.194 -0.6912 -0.6452 -0.2985
  137SAPE   H2X14858   3.863   4.334  10.151 -0.7544 -1.0618 -0.1518
  137SAPE   H2Y14859   3.754   4.475  10.182  1.4170 -0.3737  0.0658
  137SAPE   C2314860   3.179   4.445  10.125  1.0888  0.3108 -0.2710
  137SAPE   H3R14861   3.240   4.531  10.092 -0.8077  1.1274 -1.7389
  137SAPE   H3S14862   3.079   4.472  10.166  1.9271  0.6078  1.6171
  137SAPE   C2414863   3.140   4.361  10.004 -0.8349  0.3305 -0.1332
  137SAPE   H4R14864   3.069   4.284  10.040  1.4063 -0.3012  3.1801
  137SAPE   H4S14865   3.222   4.302   9.958 -1.5116 -2.1371  1.6967
  137SAPE   C2514866   3.071   4.456   9.907  0.1181 -0.1533  0.2695
  137SAPE   H5R14867   3.003   4.529   9.955 -0.9806 -0.0230 -1.4491
  137SAPE   C2614868   3.089   4.465   9.774 -0.1553  0.1981 -0.2551
  137SAPE   H6R14869   3.025   4.537   9.722  2.5679  2.0983 -1.1259
  137SAPE   C2714870   3.169   4.362   9.692 -0.2814 -0.0832 -0.4950
  137SAPE   H7R14871   3.089   4.318   9.628  2.3397 -3.9974 -1.2449
  137SAPE   H7S14872   3.195   4.271   9.751 -0.4206 -0.3718 -0.8747
  137SAPE   C2814873   3.285   4.432   9.626  0.2289  0.3226  0.1715
  137SAPE   H8R14874   3.350   4.496   9.688 -0.9575  0.9065  0.8180
  137SAPE   C2914875   3.309   4.432   9.492  0.8086 -0.2424 -0.5029
  137SAPE   H9R14876   3.392   4.496   9.460  0.1669  0.2958 -1.0951
  137SAPE  C21014877   3.223   4.366   9.391  0.8191  0.0010  0.2682
  137SAPE  H10R14878   3.139   4.435   9.370  0.6465  1.2174  4.4852
  137SAPE  H10S14879   3.183   4.269   9.428  0.6620 -0.2330 -0.5095
  137SAPE  C21114880   3.302   4.341   9.259  0.3632  0.1003 -0.3702
  137SAPE  H11R14881   3.397   4.288   9.277  0.0631 -0.7842 -1.3361
  137SAPE  C21214882   3.265   4.370   9.134  0.5293 -0.3854  0.7554
  137SAPE  H12R14883   3.339   4.352   9.054  1.7538  1.3910  1.4536
  137SAPE  C21314884   3.143   4.441   9.081  0.3380  0.5310  0.3295
  137SAPE  H13R14885   3.187   4.536   9.044  0.2898 -0.2419 -1.8091
  137SAPE  H13S14886   3.075   4.464   9.166  0.8978  0.1335  0.8816
  137SAPE  C21414887   3.068   4.367   8.975 -0.0539 -0.3278 -0.1257
  137SAPE  H14R14888   2.990   4.298   9.011  0.8408 -1.9550 -1.1954
  137SAPE  C21514889   3.084   4.378   8.847  0.2359  0.1533 -0.2954
  137SAPE  H15R14890   3.030   4.311   8.778 -0.2851 -0.3435  0.5866
  137SAPE  C21614891   3.185   4.468   8.766  0.3947  0.3194  0.8305
  137SAPE  H16R14892   3.206   4.560   8.824 -1.2115  1.6226 -0.6043
  137SAPE  H16S14893   3.140   4.489   8.667  1.0412 -1.1312  0.2155
  137SAPE  C21714894   3.328   4.407   8.742  0.2588  0.5404  0.6723
  137SAPE  H17R14895   3.305   4.302   8.713  1.8474 -0.0619  1.5281
  137SAPE  H17S14896   3.385   4.408   8.837 -1.1459 -1.3104  1.5562
  137SAPE  C21814897   3.412   4.476   8.637 -0.5012 -0.1912 -0.5842
  137SAPE  H18R14898   3.513   4.429   8.646 -1.3984 -2.1527 -0.5597
  137SAPE  H18S14899   3.415   4.587   8.641 -1.3579 -0.2386  2.0048
  137SAPE  C21914900   3.354   4.443   8.496  0.2078 -0.3791 -0.5097
  137SAPE  H19R14901   3.277   4.521   8.477  0.4498  0.6136  2.4466
  137SAPE  H19S14902   3.295   4.349   8.499  1.0170 -0.8407  0.9832
  137SAPE  C22014903   3.458   4.444   8.392 -0.1957  0.1133  0.1682
  137SAPE  H20R14904   3.501   4.545   8.379  0.3579 -0.4460 -2.7056
  137SAPE  H20S14905   3.409   4.408   8.299 -1.6766 -0.7239  1.2430
  137SAPE  H20T14906   3.542   4.377   8.420 -0.8070 -0.8810 -0.3542
  137SAPE   C3314907   3.667   4.299  10.096 -0.3050 -0.2964  1.1821
  137SAPE   H3X14908   3.560   4.311  10.126 -0.7732  1.9210 -1.1401
  137SAPE   H3Y14909   3.689   4.190  10.090  0.4650 -0.2475  2.8683
  137SAPE   C3414910   3.690   4.349   9.951  0.4238 -0.3174 -0.3968
  137SAPE   H4X14911   3.792   4.315   9.923  2.1957  2.5199  2.2075
  137SAPE   H4Y14912   3.698   4.460   9.949  0.6848 -0.3388 -0.5337
  137SAPE   C3514913   3.581   4.295   9.853  0.4529  0.0378 -0.4272
  137SAPE   H5X14914   3.489   4.346   9.891  1.1863  0.4898  0.7841
  137SAPE   H5Y14915   3.568   4.186   9.867  1.0753  0.0634  0.3843
  137SAPE   C3614916   3.605   4.314   9.702 -0.1170 -0.1737  0.3101
  137SAPE   H6X14917   3.588   4.416   9.659  0.2252  0.0746  0.7699
  137SAPE   H6Y14918   3.535   4.240   9.658 -0.4511  0.2086  0.1850
  137SAPE   C3714919   3.741   4.276   9.650  0.0978  0.9703 -0.2406
  137SAPE   H7X14920   3.766   4.179   9.699 -0.9078  0.4943 -0.6457
  137SAPE   H7Y14921   3.812   4.355   9.680 -0.3425  0.6426  1.8128
  137SAPE   C3814922   3.741   4.232   9.505  0.0865  0.4901  1.0365
  137SAPE   H8X14923   3.667   4.150   9.489 -0.5958  1.1816  0.6323
  137SAPE   H8Y14924   3.841   4.187   9.487 -0.2344  0.1056  0.1585
  137SAPE   C3914925   3.704   4.338   9.404 -0.9150  0.4504  0.3461
  137SAPE   H9X14926   3.780   4.419   9.413 -0.3298 -0.2920  2.2869
  137SAPE   H9Y14927   3.614   4.392   9.440 -1.5717 -0.9529  0.8229
  137SAPE  C31014928   3.692   4.286   9.263 -0.0286 -1.0300  0.0506
  137SAPE  H10X14929   3.600   4.224   9.260 -0.8886  0.2327 -0.0022
  137SAPE  H10Y14930   3.774   4.215   9.241 -0.1629 -1.6189  1.4309
  137SAPE  C31114931   3.682   4.409   9.172 -0.2682  0.4060  0.2120
  137SAPE  H11X14932   3.784   4.452   9.186  0.0902 -0.2726 -0.3201
  137SAPE  H11Y14933   3.600   4.473   9.210 -1.4500 -2.1973  2.1562
  137SAPE  C31214934   3.664   4.378   9.027  0.5873  0.1792 -0.3431
  137SAPE  H12X14935   3.585   4.301   9.016  0.2380  0.3057  1.1734
  137SAPE  H12Y14936   3.754   4.325   8.989  0.2960  0.4064 -1.3569
  137SAPE  C31314937   3.646   4.498   8.937  0.6002  0.8285  0.6586
  137SAPE  H13X14938   3.544   4.535   8.962 -2.3595 -2.9214 -4.7965
  137SAPE  H13Y14939   3.627   4.451   8.838  3.1202 -0.9793  0.9991
  137SAPE  C31414940   3.748   4.604   8.930  0.2552 -0.3909 -0.2361
  137SAPE  H14X14941   3.849   4.559   8.916  0.0705 -0.7782 -0.3294
  137SAPE  H14Y14942   3.753   4.650   9.031  1.9657 -2.1331  0.5216
  137SAPE  C31514943   3.734   4.706   8.817 -0.9377 -0.2780  0.3165
  137SAPE  H15X14944   3.788   4.798   8.849  0.1692 -0.9220  0.3139
  137SAPE  H15Y14945   3.626   4.730   8.805 -0.5016  0.9396 -1.3517
  137SAPE  C31614946   3.789   4.655   8.683  0.7520 -0.6400  0.6919
  137SAPE  H16X14947   3.729   4.564   8.659 -0.9859 -0.0656  2.7426
  137SAPE  H16Y14948   3.896   4.629   8.699  1.1328  0.3142 -0.2315
  137SAPE  C31714949   3.796   4.764   8.569 -0.1616 -0.5605  0.7023
  137SAPE  H17X14950   3.839   4.860   8.603 -1.4667  0.6039 -0.8663
  137SAPE  H17Y14951   3.694   4.798   8.541 -0.0120 -0.0458  0.7703
  137SAPE  C31814952   3.871   4.722   8.438  0.1032  0.1135  0.5625
  137SAPE  H18X14953   3.860   4.810   8.370 -1.7952  1.4538  2.5559
  137SAPE  H18Y14954   3.832   4.629   8.391 -1.3064  0.4728  1.0168
  137SAPE  H18Z14955   3.977   4.700   8.464 -0.0036 -1.6345 -0.4233
  138SAPE     N14956   1.110   4.973  10.899  0.6915  0.2256 -0.5110
  138SAPE   HN114957   1.209   4.946  10.918  0.5532 -0.6200 -1.0064
  138SAPE   HN214958   1.058   4.887  10.874  0.8264  0.4952 -1.7623
  138SAPE   HN314959   1.108   5.036  10.816 -1.3338  0.1087 -0.5679
  138SAPE   C1214960   1.048   5.066  10.995 -0.1302  0.5154  0.3477
  138SAPE  H12A14961   1.125   5.145  11.010  1.1667 -0.4043 -1.3601
  138SAPE  H12B14962   1.048   5.012  11.092 -0.7801 -0.8603 -0.4031
  138SAPE   C1114963   0.910   5.117  10.939  0.2249  0.1858  0.5369
  138SAPE  H11A14964   0.864   5.167  11.027 -3.1323  1.7303 -2.0063
  138SAPE  H11B14965   0.852   5.026  10.911 -0.4783  0.5124  0.9099
  138SAPE     P14966   0.828   5.289  10.754  0.3508  0.2089  0.2888
  138SAPE   O1314967   0.759   5.380  10.848 -0.2439 -0.6648 -0.1016
  138SAPE   O1414968   0.897   5.344  10.637  0.3646  0.2265 -0.7605
  138SAPE   O1214969   0.932   5.201  10.827  0.0268  0.1384  0.0705
  138SAPE   O1114970   0.726   5.184  10.699  0.0896 -0.1982 -0.2533
  138SAPE    C114971   0.753   5.106  10.587  0.4231  0.0723  0.1232
  138SAPE    HA14972   0.795   5.166  10.503 -0.6769  0.3859 -0.2213
  138SAPE    HB14973   0.829   5.033  10.620  0.9511  1.4212  2.0199
  138SAPE    C214974   0.628   5.026  10.527  0.2281 -0.1217  0.8485
  138SAPE    HS14975   0.650   4.942  10.458 -1.1888  1.4351 -1.5940
  138SAPE   O2114976   0.545   5.113  10.451  0.2163 -0.1103  0.4507
  138SAPE   C2114977   0.598   5.147  10.338  0.9713 -0.1603 -0.1081
  138SAPE   O2214978   0.705   5.111  10.296 -0.4325 -0.1953 -0.4332
  138SAPE   C2214979   0.502   5.236  10.258 -0.1960  0.0903  0.0036
  138SAPE   H2R14980   0.396   5.218  10.283  0.0211 -1.0906  0.1045
  138SAPE   H2S14981   0.533   5.337  10.294 -0.3008  0.3056 -0.5051
  138SAPE    C314982   0.546   4.971  10.640 -0.0428  0.6522  0.6512
  138SAPE    HX14983   0.523   5.045  10.719  1.4250  2.7745 -0.8506
  138SAPE    HY14984   0.605   4.893  10.694 -1.2032  0.5709  1.8365
  138SAPE   O3114985   0.432   4.897  10.586 -0.7469  0.2812  0.3793
  138SAPE   C3114986   0.318   4.897  10.656  0.3121 -0.0669  0.4129
  138SAPE   O3214987   0.301   4.958  10.762  0.1142  0.1965 -0.5664
  138SAPE   C3214988   0.211   4.812  10.583 -0.2673 -0.7351  0.0917
  138SAPE   H2X14989   0.132   4.785  10.657  0.4826  0.1729  1.2521
  138SAPE   H2Y14990   0.259   4.713  10.569  2.7380  0.5920  0.7089
  138SAPE   C2314991   0.518   5.202  10.113 -0.6994 -0.2896  1.1568
  138SAPE   H3R14992   0.479   5.099  10.110  1.2752 -1.0685  1.5946
  138SAPE   H3S14993   0.622   5.210  10.075 -1.4382 -0.5069 -0.9742
  138SAPE   C2414994   0.429   5.301  10.025 -0.1288 -0.0608  0.0653
  138SAPE   H4R14995   0.478   5.278   9.928  0.5465  4.3283 -0.7365
  138SAPE   H4S14996   0.454   5.405  10.056  0.0542 -0.3419  0.8858
  138SAPE   C2514997   0.287   5.279  10.035 -0.1947 -0.5282  0.5400
  138SAPE   H5R14998   0.243   5.308  10.131 -0.3912 -2.3482  1.0167
  138SAPE   C2614999   0.204   5.230   9.946  0.0749  0.1249 -0.0508
  138SAPE   H6R15000   0.095   5.222   9.959 -0.2436 -1.4206 -3.2815
  138SAPE   C2715001   0.245   5.190   9.805  0.0583  0.6035 -0.1398
  138SAPE   H7R15002   0.186   5.101   9.777  0.3735 -0.2719  1.8950
  138SAPE   H7S15003   0.343   5.140   9.808  0.0111  0.4589 -1.0051
  138SAPE   C2815004   0.236   5.295   9.698  0.4583 -0.5515  0.0111
  138SAPE   H8R15005   0.210   5.396   9.731 -1.7468 -0.5409 -1.6160
  138SAPE   C2915006   0.229   5.287   9.569  0.1049 -0.1664  0.0856
  138SAPE   H9R15007   0.199   5.381   9.521 -1.4433 -1.6223 -1.8927
  138SAPE  C21015008   0.241   5.155   9.495  0.4903 -0.2190  0.0482
  138SAPE  H10R15009   0.139   5.113   9.486  0.1089  0.9853 -1.4499
  138SAPE  H10S15010   0.300   5.082   9.556 -0.5266  1.0904  2.6768
  138SAPE  C21115011   0.320   5.171   9.370  0.1352 -0.7228 -0.0758
  138SAPE  H11R15012   0.421   5.213   9.381  0.3900 -1.2998 -0.1871
  138SAPE  C21215013   0.278   5.139   9.248  0.3620 -0.4443 -0.3410
  138SAPE  H12R15014   0.353   5.159   9.171  0.6484 -1.2796 -0.2747
  138SAPE  C21315015   0.148   5.070   9.221  0.5657  0.0475  0.2755
  138SAPE  H13R15016   0.144   4.991   9.299  0.6962  0.9546  1.2311
  138SAPE  H13S15017   0.141   5.012   9.127 -0.1216  0.3949  0.1080
  138SAPE  C21415018   0.022   5.137   9.248  0.6660 -0.5217 -0.1984
  138SAPE  H14R15019   0.022   5.233   9.301 -0.0385 -0.7561  0.2402
  138SAPE  C21515020  -0.103   5.105   9.217 -0.1950 -0.1180  0.1675
  138SAPE  H15R15021  -0.184   5.176   9.238 -0.3028 -0.0615 -0.4289
  138SAPE  C21615022  -0.142   4.976   9.146  0.1738  0.1263  0.4963
  138SAPE  H16R15023  -0.066   4.896   9.160 -1.6595 -2.1799 -2.0447
  138SAPE  H16S15024  -0.135   4.989   9.036  0.4904  2.2422  0.7553
  138SAPE  C21715025  -0.275   4.906   9.188 -0.3181  0.1528  0.3623
  138SAPE  H17R15026  -0.306   4.830   9.113  2.4008  0.3061 -0.9586
  138SAPE  H17S15027  -0.350   4.988   9.181  0.7681  1.2767  1.5840
  138SAPE  C21815028  -0.270   4.838   9.325  0.5523 -0.6470  0.1010
  138SAPE  H18R15029  -0.225   4.890   9.413 -1.7176  0.2531  0.7557
  138SAPE  H18S15030  -0.216   4.741   9.325 -0.3840 -1.1841  0.9135
  138SAPE  C21915031  -0.410   4.823   9.384  0.0607 -0.0730  0.0128
  138SAPE  H19R15032  -0.482   4.788   9.307  0.2925  2.6875 -1.5268
  138SAPE  H19S15033  -0.445   4.924   9.417  0.4201  0.3330 -0.8361
  138SAPE  C22015034  -0.416   4.734   9.508 -0.3206 -0.8185 -0.2131
  138SAPE  H20R15035  -0.440   4.632   9.472  0.0010 -1.9295  2.5902
  138SAPE  H20S15036  -0.492   4.775   9.578  0.8299 -0.7510  1.0436
  138SAPE  H20T15037  -0.316   4.726   9.556 -0.1982 -0.1182 -0.3556
  138SAPE   C3315038   0.155   4.883  10.453 -0.9095  0.4317 -0.2834
  138SAPE   H3X15039   0.172   4.992  10.450 -0.2369  0.3462  0.3628
  138SAPE   H3Y15040   0.047   4.860  10.442 -1.2211  2.0759 -0.6617
  138SAPE   C3415041   0.235   4.847  10.323  0.2520 -0.6512 -0.2575
  138SAPE   H4X15042   0.243   4.738  10.305 -3.6842 -0.8328 -1.2946
  138SAPE   H4Y15043   0.336   4.884  10.354 -1.0492  0.8013  2.4638
  138SAPE   C3515044   0.188   4.918  10.192  0.5402  0.0221 -0.4572
  138SAPE   H5X15045   0.181   5.029  10.199 -1.5893 -0.0844 -0.3788
  138SAPE   H5Y15046   0.088   4.873  10.172  0.3403  1.2804 -2.4340
  138SAPE   C3615047   0.276   4.875  10.075 -0.1269  0.0752 -0.3963
  138SAPE   H6X15048   0.383   4.904  10.079  0.0313 -0.2430 -2.2352
  138SAPE   H6Y15049   0.231   4.930   9.990 -0.6310 -0.0273 -0.1988
  138SAPE   C3715050   0.255   4.729  10.035 -0.0427 -0.8535 -0.6126
  138SAPE   H7X15051   0.145   4.711  10.045 -0.3443 -0.4341 -2.9542
  138SAPE   H7Y15052   0.302   4.650  10.097  1.6851 -0.1013 -0.9569
  138SAPE   C3815053   0.295   4.694   9.891 -0.5253  0.4812  0.0178
  138SAPE   H8X15054   0.220   4.719   9.813  0.0057 -0.0148 -0.6535
  138SAPE   H8Y15055   0.314   4.585   9.883 -1.8841  0.4247 -3.0215
  138SAPE   C3915056   0.432   4.757   9.852  0.0736 -0.0490  0.0413
  138SAPE   H9X15057   0.506   4.733   9.932  0.3010 -1.8895 -0.6959
  138SAPE   H9Y15058   0.419   4.867   9.850 -2.0353 -0.2963 -0.4974
  138SAPE  C31015059   0.479   4.693   9.724 -0.0992  0.1309 -0.2536
  138SAPE  H10X15060   0.478   4.583   9.738 -2.1836  0.1673 -0.0735
  138SAPE  H10Y15061   0.586   4.725   9.718 -0.4753  2.0403  2.2896
  138SAPE  C31115062   0.399   4.739   9.600 -0.2683  0.3397  0.2031
  138SAPE  H11X15063   0.381   4.847   9.621  1.4261  0.5112  0.8594
  138SAPE  H11Y15064   0.299   4.692   9.598 -2.1660  4.2211 -1.4326
  138SAPE  C31215065   0.470   4.709   9.465  0.2905 -0.6046  0.0068
  138SAPE  H12X15066   0.490   4.600   9.458  1.9966 -0.3973  1.1936
  138SAPE  H12Y15067   0.571   4.756   9.468 -0.4409  0.9339  0.9874
  138SAPE  C31315068   0.389   4.753   9.334 -0.2300  1.1202 -0.4018
  138SAPE  H13X15069   0.402   4.863   9.326  2.0407  1.0660  1.7976
  138SAPE  H13Y15070   0.280   4.729   9.338 -0.3847  1.6868 -1.0480
  138SAPE  C31415071   0.457   4.691   9.206  0.0039 -0.3003 -0.3993
  138SAPE  H14X15072   0.430   4.586   9.182  0.2899  0.1020 -2.5946
  138SAPE  H14Y15073   0.567   4.706   9.210  0.5498 -3.4745 -1.9228
  138SAPE  C31515074   0.410   4.758   9.067 -0.0495  0.2301  0.3543
  138SAPE  H15X15075   0.382   4.863   9.093 -0.3059  0.3390 -0.3452
  138SAPE  H15Y15076   0.314   4.708   9.042 -0.6970  0.5941  2.0426
  138SAPE  C31615077   0.512   4.754   8.953 -0.0732  0.1305 -0.4271
  138SAPE  H16X15078   0.533   4.649   8.924 -0.2820  0.1994 -0.8331
  138SAPE  H16Y15079   0.608   4.801   8.982 -0.0364  0.8125 -1.6389
  138SAPE  C31715080   0.456   4.840   8.844  0.2638  0.1165 -0.2288
  138SAPE  H17X15081   0.454   4.939   8.894  0.0426  0.0027 -0.0131
  138SAPE  H17Y15082   0.352   4.809   8.822  0.4181 -0.1496 -0.6130
  138SAPE  C31815083   0.535   4.838   8.709  0.0618  0.4121 -0.5304
  138SAPE  H18X15084   0.501   4.758   8.640 -1.3119  1.9663 -1.6804
  138SAPE  H18Y15085   0.644   4.832   8.728  0.5913 -0.5203 -3.5237
  138SAPE  H18Z15086   0.514   4.934   8.658 -1.9600  0.4146  0.2754
  139SAPE     N15087   6.275   3.344  10.880 -0.1923  0.0340  0.0721
  139SAPE   HN115088   6.240   3.251  10.910 -3.1683  1.1288  0.1815
  139SAPE   HN215089   6.372   3.361  10.914  0.1272 -1.0683 -0.2719
  139SAPE   HN315090   6.207   3.412  10.920 -0.7167 -0.3480 -0.1756
  139SAPE   C1215091   6.272   3.350  10.730 -0.6147 -0.5360 -0.4014
  139SAPE  H12A15092   6.283   3.458  10.705 -0.3417 -0.3605  0.4528
  139SAPE  H12B15093   6.166   3.321  10.712 -1.2631  0.9160  0.8717
  139SAPE   C1115094   6.378   3.265  10.656 -0.2060  0.2436  0.6260
  139SAPE  H11A15095   6.472   3.316  10.686 -1.2999  1.6954  1.6795
  139SAPE  H11B15096   6.361   3.275  10.547 -0.7514  2.1166  0.8593
  139SAPE     P15097   6.300   3.016  10.646 -0.3529  0.1565 -0.5444
  139SAPE   O1315098   6.341   2.886  10.712 -0.4517 -0.2320  0.6881
  139SAPE   O1415099   6.156   3.043  10.653  0.0193  0.0086  0.0103
  139SAPE   O1215100   6.383   3.133  10.710 -0.2255 -0.2042 -0.2609
  139SAPE   O1115101   6.347   3.015  10.489 -0.2656 -0.1253 -0.4940
  139SAPE    C115102   6.483   3.022  10.443  0.7158 -0.3140  0.2229
  139SAPE    HA15103   6.515   3.129  10.442  0.6120 -0.2052 -6.0632
  139SAPE    HB15104   6.551   2.962  10.507  0.1231 -1.8189 -0.5385
  139SAPE    C215105   6.502   2.974  10.295 -0.6221 -0.7999 -0.5434
  139SAPE    HS15106   6.609   2.944  10.287 -0.3890  0.2106 -1.4654
  139SAPE   O2115107   6.453   3.071  10.206  0.0311 -0.7911 -0.3091
  139SAPE   C2115108   6.539   3.163  10.169 -0.4198 -0.4306 -0.3793
  139SAPE   O2215109   6.646   3.192  10.221  0.6007 -0.2772  0.0060
  139SAPE   C2215110   6.483   3.242  10.046 -0.2923 -0.4495 -0.5573
  139SAPE   H2R15111   6.372   3.230  10.046 -0.2519 -0.8241 -0.1178
  139SAPE   H2S15112   6.514   3.347  10.063  0.2573 -0.3667 -1.9636
  139SAPE    C315113   6.424   2.837  10.280 -0.0553  0.1635  0.9784
  139SAPE    HX15114   6.318   2.867  10.295 -0.5792 -1.0012 -0.3072
  139SAPE    HY15115   6.442   2.767  10.365  1.8600 -0.1656  0.3288
  139SAPE   O3115116   6.438   2.766  10.151  0.1086  0.3992 -0.2744
  139SAPE   C3115117   6.538   2.676  10.143  0.1360 -0.3436  0.4636
  139SAPE   O3215118   6.631   2.683  10.221 -0.3627  0.2642  0.1205
  139SAPE   C3215119   6.527   2.589  10.015 -0.2806  0.5657  0.0567
  139SAPE   H2X15120   6.610   2.614   9.945 -0.9888 -0.7017 -1.2907
  139SAPE   H2Y15121   6.434   2.612   9.958 -1.3664 -1.2905  1.0210
  139SAPE   C2315122   6.542   3.181   9.918 -0.2419 -0.6730 -0.2127
  139SAPE   H3R15123   6.608   3.094   9.939 -1.3337 -1.0849  1.5778
  139SAPE   H3S15124   6.605   3.255   9.864  1.3000 -1.0942  0.9714
  139SAPE   C2415125   6.431   3.135   9.818  0.5124 -0.3835  0.1576
  139SAPE   H4R15126   6.357   3.075   9.874 -0.5697 -1.1842 -2.0513
  139SAPE   H4S15127   6.487   3.074   9.744 -0.4997 -2.3265  0.9637
  139SAPE   C2515128   6.346   3.241   9.757  0.6895 -0.0153  0.1589
  139SAPE   H5R15129   6.308   3.313   9.831 -0.7990  0.3282 -0.9374
  139SAPE   C2615130   6.314   3.260   9.630  0.3964 -0.0450  0.1097
  139SAPE   H6R15131   6.241   3.339   9.606  0.5041 -0.8976 -3.2834
  139SAPE   C2715132   6.350   3.184   9.507  0.8066 -0.1824  0.2084
  139SAPE   H7R15133   6.266   3.136   9.453 -0.1802  0.3604  1.2158
  139SAPE   H7S15134   6.411   3.099   9.544 -1.3203 -1.3208  1.2472
  139SAPE   C2815135   6.432   3.269   9.413 -0.1498  0.6761  0.1691
  139SAPE   H8R15136   6.531   3.298   9.448  1.8828 -1.1671 -3.7105
  139SAPE   C2915137   6.396   3.306   9.286  0.3380  0.7232 -0.2040
  139SAPE   H9R15138   6.469   3.358   9.222  3.2701 -0.6486  1.8894
  139SAPE  C21015139   6.271   3.268   9.212 -0.1619 -1.2003 -0.1803
  139SAPE  H10R15140   6.247   3.355   9.148 -0.2161 -1.1573 -0.1009
  139SAPE  H10S15141   6.181   3.268   9.277  0.0356 -0.0714  0.1061
  139SAPE  C21115142   6.280   3.133   9.158  0.2264 -0.5663 -0.0409
  139SAPE  H11R15143   6.304   3.062   9.238 -0.0998  0.0709  0.6279
  139SAPE  C21215144   6.267   3.100   9.028 -0.6938 -0.5358 -0.8682
  139SAPE  H12R15145   6.261   2.996   8.992  1.5039 -0.6527 -0.9643
  139SAPE  C21315146   6.244   3.201   8.916 -0.0053 -0.1386 -0.2667
  139SAPE  H13R15147   6.290   3.166   8.822  1.1106 -0.3833  0.3592
  139SAPE  H13S15148   6.282   3.304   8.936  2.3155 -1.0890  0.4876
  139SAPE  C21415149   6.096   3.216   8.885 -0.5316 -1.1900  0.1288
  139SAPE  H14R15150   6.036   3.128   8.913 -0.4865 -1.3259 -0.2011
  139SAPE  C21515151   6.043   3.335   8.845  0.5027 -0.1926 -0.0985
  139SAPE  H15R15152   5.934   3.329   8.830  0.4744 -0.7768  0.3315
  139SAPE  C21615153   6.112   3.460   8.801  0.0152  0.3725  0.3455
  139SAPE  H16R15154   6.213   3.437   8.760 -1.4009 -1.7645 -2.0898
  139SAPE  H16S15155   6.121   3.531   8.886  1.4646  0.0154  0.5076
  139SAPE  C21715156   6.014   3.528   8.700 -0.1283  0.4704 -0.1539
  139SAPE  H17R15157   5.912   3.531   8.743  0.2889 -3.1639  1.2316
  139SAPE  H17S15158   6.004   3.462   8.611 -1.8866 -2.1256  1.8975
  139SAPE  C21815159   6.061   3.663   8.658 -0.5137 -1.0580 -0.1347
  139SAPE  H18R15160   6.148   3.638   8.593 -1.6562 -0.8190 -1.7631
  139SAPE  H18S15161   6.103   3.727   8.739  0.7326  0.8661 -2.2163
  139SAPE  C21915162   5.965   3.733   8.565 -0.1390  0.3222 -0.0266
  139SAPE  H19R15163   5.867   3.756   8.613 -0.4648  1.1275 -1.0388
  139SAPE  H19S15164   5.942   3.667   8.478  2.6854  0.8658 -1.2276
  139SAPE  C22015165   6.011   3.868   8.517  0.0480 -0.2310  0.8295
  139SAPE  H20R15166   6.010   3.947   8.595  1.7993 -0.3123  0.9650
  139SAPE  H20S15167   5.944   3.902   8.436  0.6009  0.3620  0.6175
  139SAPE  H20T15168   6.115   3.871   8.477  0.1300  2.6168  1.1899
  139SAPE   C3315169   6.553   2.442  10.038 -0.0756  0.4405 -0.0324
  139SAPE   H3X15170   6.645   2.436  10.100  0.4893  2.1300 -0.6910
  139SAPE   H3Y15171   6.562   2.385   9.943  0.5975  0.8860 -0.2356
  139SAPE   C3415172   6.436   2.379  10.111 -0.1790 -0.1378  0.0457
  139SAPE   H4X15173   6.342   2.428  10.076  0.5823  0.7142 -0.8354
  139SAPE   H4Y15174   6.450   2.399  10.220 -0.6431 -1.1893  0.3057
  139SAPE   C3515175   6.419   2.228  10.092 -0.4735  0.4126 -0.2062
  139SAPE   H5X15176   6.364   2.179  10.175  0.0451  0.8220  0.3917
  139SAPE   H5Y15177   6.517   2.176  10.089  0.6561  2.1850  2.7310
  139SAPE   C3615178   6.342   2.179   9.963 -0.4838 -0.1713 -0.3949
  139SAPE   H6X15179   6.399   2.203   9.871  1.0619  0.8463  0.8138
  139SAPE   H6Y15180   6.244   2.232   9.958 -0.6160 -0.3490  0.2597
  139SAPE   C3715181   6.309   2.023   9.976 -0.6104  1.0480 -1.3499
  139SAPE   H7X15182   6.278   1.998  10.079  1.0047  0.8500 -0.9013
  139SAPE   H7Y15183   6.407   1.972   9.958  0.3060  2.0386  0.6641
  139SAPE   C3815184   6.202   1.980   9.870 -0.2910 -0.3737 -0.2604
  139SAPE   H8X15185   6.107   2.038   9.876  1.1206  1.9470 -0.0488
  139SAPE   H8Y15186   6.162   1.882   9.902 -1.5727  0.7138  1.5679
  139SAPE   C3915187   6.249   1.991   9.718 -0.2186 -0.3296  0.5092
  139SAPE   H9X15188   6.350   1.947   9.704 -0.4031  0.3211 -3.4165
  139SAPE   H9Y15189   6.279   2.093   9.687  0.9924 -0.4099  1.3805
  139SAPE  C31015190   6.153   1.924   9.624  1.0727  0.2446 -0.8567
  139SAPE  H10X15191   6.072   1.997   9.603  0.1101  0.3801  2.8449
  139SAPE  H10Y15192   6.109   1.828   9.659 -0.2458  1.4657  0.9270
  139SAPE  C31115193   6.227   1.891   9.486  0.1099  0.0852 -0.0801
  139SAPE  H11X15194   6.306   1.814   9.504 -0.5809 -0.0229  2.8003
  139SAPE  H11Y15195   6.278   1.980   9.444 -1.4544  0.7633 -0.5818
  139SAPE  C31215196   6.128   1.835   9.375 -0.1922  0.4317 -0.4985
  139SAPE  H12X15197   6.067   1.921   9.341 -0.1585  0.9222  0.6674
  139SAPE  H12Y15198   6.060   1.774   9.437 -1.0730 -0.1816 -2.0464
  139SAPE  C31315199   6.192   1.766   9.249  0.4008  0.0296  0.6236
  139SAPE  H13X15200   6.110   1.748   9.177 -0.4261  1.5311  1.1732
  139SAPE  H13Y15201   6.238   1.671   9.284 -1.8812 -1.7378 -1.0021
  139SAPE  C31415202   6.317   1.843   9.198  0.4531  0.2955  0.7580
  139SAPE  H14X15203   6.378   1.786   9.124  1.7442  2.1440  0.3521
  139SAPE  H14Y15204   6.389   1.854   9.282  0.9120 -0.1968  0.4312
  139SAPE  C31515205   6.279   1.987   9.150  0.2949 -0.0027  0.8049
  139SAPE  H15X15206   6.248   2.050   9.236  1.3849  3.2991 -1.1126
  139SAPE  H15Y15207   6.183   1.979   9.095  0.5781  0.1806  0.2849
  139SAPE  C31615208   6.386   2.052   9.067 -0.8005 -0.7373 -0.4961
  139SAPE  H16X15209   6.481   2.053   9.124 -0.1282  3.2920 -1.5392
  139SAPE  H16Y15210   6.415   1.991   8.979 -0.3313 -0.6393 -0.4066
  139SAPE  C31715211   6.359   2.197   9.027  0.2000 -0.0051  0.0232
  139SAPE  H17X15212   6.337   2.254   9.119  2.9440 -1.1330  1.4341
  139SAPE  H17Y15213   6.275   2.214   8.957  2.5311  0.9308 -2.6439
  139SAPE  C31815214   6.484   2.266   8.968 -0.1552 -0.1117 -0.7436
  139SAPE  H18X15215   6.566   2.269   9.043 -0.9166  3.0401  0.0422
  139SAPE  H18Y15216   6.466   2.371   8.938  1.3803  0.1122 -0.9148
  139SAPE  H18Z15217   6.515   2.217   8.873 -0.9363  0.5078 -1.3287
  140SAPE     N15218   2.311   6.709  11.423  0.1630 -0.3780  0.0685
  140SAPE   HN115219   2.302   6.627  11.486  0.4796 -0.7505 -0.3641
  140SAPE   HN215220   2.232   6.713  11.355 -0.7653  1.3457  1.1903
  140SAPE   HN315221   2.404   6.700  11.379  0.3608  0.2591  0.3442
  140SAPE   C1215222   2.299   6.848  11.478 -0.8726 -0.4788 -0.3192
  140SAPE  H12A15223   2.321   6.834  11.586  1.8847  1.2659 -0.6110
  140SAPE  H12B15224   2.198   6.893  11.475 -1.1003 -0.8501  1.1336
  140SAPE   C1115225   2.408   6.945  11.421  1.1103 -0.6797  0.0918
  140SAPE  H11A15226   2.512   6.911  11.443  0.8259 -0.0806  2.4933
  140SAPE  H11B15227   2.402   7.039  11.481  0.3970  0.5208 -1.8395
  140SAPE     P15228   2.315   7.092  11.224  0.1224 -0.5276 -0.0203
  140SAPE   O1315229   2.169   7.062  11.232  0.0409 -0.1343 -0.1497
  140SAPE   O1415230   2.356   7.219  11.292 -0.0324 -0.4135 -0.1296
  140SAPE   O1215231   2.390   6.974  11.286 -0.0853  0.3412  0.4405
  140SAPE   O1115232   2.349   7.102  11.077  0.2599  0.8436  0.3395
  140SAPE    C115233   2.357   6.992  10.983 -0.0463  0.1716 -0.3064
  140SAPE    HA15234   2.461   6.958  10.965 -0.1256  0.0930 -0.6162
  140SAPE    HB15235   2.308   6.900  11.020  1.1968 -0.3778 -0.0010
  140SAPE    C215236   2.292   7.022  10.849  0.7248 -0.5353 -0.3363
  140SAPE    HS15237   2.266   6.923  10.806  1.5141 -0.8266 -0.1366
  140SAPE   O2115238   2.387   7.096  10.777 -0.1082 -0.0412  0.4587
  140SAPE   C2115239   2.424   7.058  10.656 -0.2858  0.0119 -0.0714
  140SAPE   O2215240   2.409   6.949  10.610  0.0172 -0.5517 -0.1375
  140SAPE   C2215241   2.494   7.179  10.586 -1.1558 -0.1264  0.1919
  140SAPE   H2R15242   2.409   7.243  10.553 -2.3537 -1.8413 -0.0656
  140SAPE   H2S15243   2.566   7.230  10.655  0.0795 -0.6843 -0.6700
  140SAPE    C315244   2.146   7.096  10.869 -0.3167  0.0369 -0.2759
  140SAPE    HX15245   2.165   7.193  10.920 -1.9785  0.4812 -0.4729
  140SAPE    HY15246   2.092   7.034  10.944  0.6812  0.4024  0.7373
  140SAPE   O3115247   2.076   7.101  10.742 -0.2099 -0.1364 -1.0163
  140SAPE   C3115248   2.087   7.207  10.673 -0.7253  0.1840  0.6747
  140SAPE   O3215249   2.130   7.317  10.710 -0.2915 -0.3045  0.2363
  140SAPE   C3215250   2.046   7.175  10.528  0.3274 -1.1140  0.4292
  140SAPE   H2X15251   2.108   7.245  10.468 -0.5045  0.0870  0.9523
  140SAPE   H2Y15252   1.941   7.207  10.514  0.9087  0.8641  0.4435
  140SAPE   C2315253   2.566   7.144  10.454 -0.0545  0.1284 -0.6822
  140SAPE   H3R15254   2.613   7.045  10.474  0.9767  1.2218  2.7327
  140SAPE   H3S15255   2.651   7.215  10.440  0.3697 -0.1014  0.6584
  140SAPE   C2415256   2.474   7.142  10.324  0.8597 -0.0947  0.5961
  140SAPE   H4R15257   2.379   7.089  10.344  0.8836 -0.6923 -0.8118
  140SAPE   H4S15258   2.528   7.083  10.246  0.3968 -0.1702  0.3353
  140SAPE   C2515259   2.449   7.281  10.266 -0.7109 -0.6566 -0.4070
  140SAPE   H5R15260   2.432   7.362  10.338 -1.0884 -1.0913 -0.0026
  140SAPE   C2615261   2.434   7.312  10.137  0.5423 -0.0509 -0.0896
  140SAPE   H6R15262   2.413   7.419  10.118  0.5388 -0.1989 -0.9531
  140SAPE   C2715263   2.453   7.224  10.015  0.1926 -0.1659  0.6999
  140SAPE   H7R15264   2.362   7.234   9.952  0.2767 -0.2398  0.5661
  140SAPE   H7S15265   2.448   7.115  10.036  1.2258 -0.3460 -0.0065
  140SAPE   C2815266   2.580   7.250   9.942 -0.3529 -0.5840 -0.1744
  140SAPE   H8R15267   2.669   7.235  10.004 -1.1711 -0.6747  1.0075
  140SAPE   C2915268   2.592   7.294   9.815 -0.4751  0.8018 -0.4672
  140SAPE   H9R15269   2.695   7.290   9.775 -0.7196  0.8690 -1.1189
  140SAPE  C21015270   2.489   7.305   9.702  0.2754 -0.8461 -0.7770
  140SAPE  H10R15271   2.537   7.365   9.622  1.8075 -0.1123  0.6697
  140SAPE  H10S15272   2.408   7.372   9.739 -0.0004 -1.1651 -0.7980
  140SAPE  C21115273   2.430   7.179   9.649  0.4947 -0.5881  0.5657
  140SAPE  H11R15274   2.353   7.141   9.717  2.7236 -1.4926  2.6614
  140SAPE  C21215275   2.459   7.114   9.537  0.5841 -0.3300  0.0247
  140SAPE  H12R15276   2.413   7.017   9.511  0.4296 -0.4501  0.7218
  140SAPE  C21315277   2.554   7.150   9.428  0.1405  0.6822 -0.4114
  140SAPE  H13R15278   2.603   7.057   9.393  2.0662  0.9740  1.3742
  140SAPE  H13S15279   2.636   7.219   9.459  1.6145 -1.1659 -0.1453
  140SAPE  C21415280   2.476   7.203   9.310 -0.4682  0.5586  0.2776
  140SAPE  H14R15281   2.412   7.126   9.264 -0.7415  0.8314  0.1974
  140SAPE  C21515282   2.470   7.332   9.260 -0.2648 -0.2906 -0.0187
  140SAPE  H15R15283   2.404   7.354   9.175 -0.1712  0.7735  0.1849
  140SAPE  C21615284   2.557   7.446   9.299 -1.3591 -0.1101 -0.2699
  140SAPE  H16R15285   2.620   7.430   9.389 -3.2010 -1.4569  0.8188
  140SAPE  H16S15286   2.497   7.539   9.313 -2.3111 -0.3642 -2.5061
  140SAPE  C21715287   2.636   7.488   9.171  0.8091 -0.1790  0.2899
  140SAPE  H17R15288   2.697   7.400   9.141  2.8130  1.1190  0.4799
  140SAPE  H17S15289   2.695   7.580   9.189  1.2550 -0.2177 -0.9354
  140SAPE  C21815290   2.555   7.519   9.044 -0.0548  0.0847  0.5442
  140SAPE  H18R15291   2.478   7.586   9.089 -0.0280 -0.3907  1.3098
  140SAPE  H18S15292   2.493   7.432   9.015  0.7688  0.7984 -3.8083
  140SAPE  C21915293   2.628   7.584   8.927 -0.5633 -0.3061 -0.5391
  140SAPE  H19R15294   2.693   7.505   8.882  0.1082  0.0035 -0.1165
  140SAPE  H19S15295   2.683   7.673   8.964  0.0756 -1.2155  0.7296
  140SAPE  C22015296   2.534   7.623   8.817  0.1112 -0.2499  0.1353
  140SAPE  H20R15297   2.449   7.682   8.858  0.8032  0.4461  0.5752
  140SAPE  H20S15298   2.489   7.532   8.773 -0.0974  1.0451 -2.4248
  140SAPE  H20T15299   2.581   7.684   8.737 -2.0686 -0.9279 -1.7051
  140SAPE   C3315300   2.070   7.034  10.489  0.1946  0.4610  0.0777
  140SAPE   H3X15301   2.004   6.966  10.547  1.6416 -0.8288  0.2715
  140SAPE   H3Y15302   2.174   7.000  10.511 -0.0836  0.5101  1.4962
  140SAPE   C3415303   2.067   7.016  10.339 -0.3561  0.7975 -0.2688
  140SAPE   H4X15304   2.132   7.091  10.290 -0.6517  0.4664 -1.1805
  140SAPE   H4Y15305   1.972   7.028  10.282 -0.4314 -1.2201 -0.5983
  140SAPE   C3515306   2.124   6.877  10.294 -0.2409  0.1923  0.1432
  140SAPE   H5X15307   2.068   6.793  10.340  0.8046 -1.4791 -1.5712
  140SAPE   H5Y15308   2.233   6.877  10.318 -0.1288  1.2188 -0.3644
  140SAPE   C3615309   2.129   6.863  10.139  0.5243  0.1410 -0.2195
  140SAPE   H6X15310   2.028   6.864  10.091  0.4399 -1.8088 -0.1243
  140SAPE   H6Y15311   2.181   6.765  10.127  3.2300  1.5488 -0.2116
  140SAPE   C3715312   2.224   6.951  10.063 -0.5237 -0.4366 -0.5701
  140SAPE   H7X15313   2.324   6.936  10.108 -2.0947 -2.5541  2.4200
  140SAPE   H7Y15314   2.205   7.059  10.081  1.9655 -0.3079  1.5346
  140SAPE   C3815315   2.236   6.922   9.910  0.1079  0.2345 -0.8696
  140SAPE   H8X15316   2.235   7.015   9.850 -0.8859  0.9545  0.2408
  140SAPE   H8Y15317   2.142   6.870   9.880 -0.8675  1.2495  0.3697
  140SAPE   C3915318   2.356   6.840   9.873  0.5661  0.3117  0.0257
  140SAPE   H9X15319   2.371   6.758   9.947  0.7619 -1.5607 -2.0373
  140SAPE   H9Y15320   2.446   6.903   9.889  1.0470 -0.1281 -0.9270
  140SAPE  C31015321   2.356   6.771   9.736  0.8245  0.7884  0.1968
  140SAPE  H10X15322   2.303   6.836   9.663  1.0994  0.3454 -0.4048
  140SAPE  H10Y15323   2.288   6.684   9.736  1.4956  0.1967 -2.9618
  140SAPE  C31115324   2.492   6.712   9.700  0.2446 -0.2167  0.1947
  140SAPE  H11X15325   2.513   6.638   9.781  0.4451 -0.3901 -0.0153
  140SAPE  H11Y15326   2.570   6.790   9.713  0.0754 -0.0597  0.2661
  140SAPE  C31215327   2.495   6.645   9.560 -0.5828  0.3301  0.2512
  140SAPE  H12X15328   2.415   6.569   9.547 -0.7919  0.1659  2.2994
  140SAPE  H12Y15329   2.594   6.594   9.565 -0.1320  1.0861 -0.7321
  140SAPE  C31315330   2.512   6.732   9.436  0.5396  0.2365 -1.0004
  140SAPE  H13X15331   2.604   6.788   9.462  0.0770  1.3067 -1.6631
  140SAPE  H13Y15332   2.434   6.812   9.436 -0.2157 -0.4753  0.4374
  140SAPE  C31415333   2.533   6.662   9.306 -0.4838 -0.4644 -0.2772
  140SAPE  H14X15334   2.604   6.578   9.324  0.4967  0.2771 -0.6047
  140SAPE  H14Y15335   2.581   6.737   9.240 -2.6038  0.9089 -0.3097
  140SAPE  C31515336   2.407   6.628   9.222 -0.5419 -0.0776  0.1897
  140SAPE  H15X15337   2.343   6.716   9.246  1.1535  1.7845 -1.9564
  140SAPE  H15Y15338   2.385   6.532   9.274 -0.0679 -0.4896 -0.3627
  140SAPE  C31615339   2.425   6.634   9.068 -0.1860 -1.1790 -0.2769
  140SAPE  H16X15340   2.512   6.572   9.042 -1.1234 -2.8805  0.5698
  140SAPE  H16Y15341   2.439   6.737   9.028  2.0467 -1.2247  0.3260
  140SAPE  C31715342   2.307   6.562   9.000  0.5790 -0.1004 -0.2529
  140SAPE  H17X15343   2.209   6.610   9.021  0.8688  1.5706 -2.5837
  140SAPE  H17Y15344   2.303   6.461   9.046  1.1806  0.0608  0.1631
  140SAPE  C31815345   2.323   6.547   8.849 -0.6517 -0.4768 -0.5309
  140SAPE  H18X15346   2.268   6.461   8.805  0.4744 -1.3466 -0.2414
  140SAPE  H18Y15347   2.424   6.506   8.827 -0.0078  0.9648 -0.3243
  140SAPE  H18Z15348   2.294   6.640   8.795  1.5849  0.2113 -0.5993
  141SAPE     N15349   3.286   1.666  11.161 -0.6765  0.6512  0.3483
  141SAPE   HN115350   3.344   1.669  11.075 -3.1373  0.0551 -1.3995
  141SAPE   HN215351   3.190   1.698  11.136 -0.8377 -0.6715 -0.8275
  141SAPE   HN315352   3.314   1.721  11.244 -1.0085 -0.3432  1.1444
  141SAPE   C1215353   3.266   1.519  11.201  0.0273 -0.5029  0.0695
  141SAPE  H12A15354   3.246   1.470  11.103  0.4837 -2.8064  1.0972
  141SAPE  H12B15355   3.184   1.515  11.276 -0.2036  0.4779 -0.1227
  141SAPE   C1115356   3.394   1.452  11.261 -0.1511 -0.1740  0.4718
  141SAPE  H11A15357   3.404   1.499  11.361  0.8130 -1.0989  0.8184
  141SAPE  H11B15358   3.478   1.458  11.189 -0.9746  0.5896 -0.4521
  141SAPE     P15359   3.450   1.192  11.247 -0.2055  0.0618 -0.1209
  141SAPE   O1315360   3.588   1.228  11.271 -0.3392 -0.2341  0.0114
  141SAPE   O1415361   3.401   1.082  11.332 -0.8225 -0.6908  0.2621
  141SAPE   O1215362   3.362   1.312  11.285  0.7243 -0.0662  0.6804
  141SAPE   O1115363   3.423   1.159  11.091 -0.4538  0.3038 -1.0676
  141SAPE    C115364   3.466   1.247  10.988  0.6721  0.2583  0.3652
  141SAPE    HA15365   3.400   1.336  10.989  0.5704  0.2165 -1.2839
  141SAPE    HB15366   3.570   1.278  11.011  1.1082 -1.9601  1.4863
  141SAPE    C215367   3.453   1.180  10.848 -0.0029  0.0568  0.7233
  141SAPE    HS15368   3.489   1.247  10.768  0.6672  2.5363  3.0202
  141SAPE   O2115369   3.318   1.157  10.824  0.1650 -0.3044 -0.5054
  141SAPE   C2115370   3.240   1.256  10.781  0.2808 -0.1872 -0.0115
  141SAPE   O2215371   3.279   1.371  10.760  0.1789 -0.0388  0.0946
  141SAPE   C2215372   3.104   1.192  10.737  0.0971 -0.1844  0.0787
  141SAPE   H2R15373   3.055   1.148  10.826 -1.0039 -1.0611 -0.9477
  141SAPE   H2S15374   3.030   1.264  10.697  0.5568  0.0702 -0.3196
  141SAPE    C315375   3.526   1.045  10.838 -0.0590  0.4769  0.1458
  141SAPE    HX15376   3.474   0.981  10.913 -1.3875 -0.3545 -1.4314
  141SAPE    HY15377   3.631   1.066  10.868  0.5982 -1.2010 -0.8784
  141SAPE   O3115378   3.526   0.991  10.711  0.2138  0.1008 -0.3214
  141SAPE   C3115379   3.572   0.868  10.715 -0.2416 -0.2051  1.2378
  141SAPE   O3215380   3.608   0.804  10.814  0.0338 -0.1581  0.4715
  141SAPE   C3215381   3.562   0.806  10.576 -0.3471  0.3153  0.3903
  141SAPE   H2X15382   3.496   0.716  10.570  0.6324 -0.3571 -0.6262
  141SAPE   H2Y15383   3.659   0.769  10.538 -1.8541 -2.1260 -1.2865
  141SAPE   C2315384   3.128   1.065  10.644  0.6766  0.0615  0.1608
  141SAPE   H3R15385   3.047   0.991  10.658 -0.5756  1.4788  0.5524
  141SAPE   H3S15386   3.217   1.009  10.682 -0.2289 -1.3101  0.2924
  141SAPE   C2415387   3.146   1.096  10.492  0.3278  0.7620 -0.4047
  141SAPE   H4R15388   3.057   1.155  10.461  0.9694  1.5377 -0.8046
  141SAPE   H4S15389   3.122   1.005  10.433 -2.8434  0.5287  1.1749
  141SAPE   C2515390   3.267   1.168  10.442  0.4457  1.0630 -0.1118
  141SAPE   H5R15391   3.338   1.192  10.523  1.5734 -2.2501 -0.0239
  141SAPE   C2615392   3.288   1.227  10.317  0.1286 -0.5614  0.1894
  141SAPE   H6R15393   3.388   1.268  10.298  0.4393 -0.1870  2.5277
  141SAPE   C2715394   3.188   1.234  10.205  0.2526 -0.2428  0.2650
  141SAPE   H7R15395   3.087   1.198  10.235 -0.5896  0.4760 -1.6202
  141SAPE   H7S15396   3.219   1.174  10.117 -0.6303 -0.7693  0.2977
  141SAPE   C2815397   3.166   1.376  10.160 -0.1279 -0.0087  0.6798
  141SAPE   H8R15398   3.178   1.457  10.233 -1.9987  1.0186 -0.1090
  141SAPE   C2915399   3.130   1.412  10.034  0.0363  0.1713 -0.3214
  141SAPE   H9R15400   3.120   1.520  10.012  1.4847 -0.0143 -2.0519
  141SAPE  C21015401   3.107   1.320   9.907  1.1963  0.3519 -0.0706
  141SAPE  H10R15402   3.091   1.215   9.940 -0.4893  0.8440  0.7395
  141SAPE  H10S15403   3.187   1.316   9.830  3.4146  0.3333  2.1960
  141SAPE  C21115404   2.971   1.353   9.841 -0.0364  0.1368 -0.3412
  141SAPE  H11R15405   2.880   1.349   9.903  0.7502 -0.0320  0.8122
  141SAPE  C21215406   2.950   1.363   9.707  0.4434  0.0687  0.4230
  141SAPE  H12R15407   2.848   1.392   9.677 -0.1730 -0.3537  2.0563
  141SAPE  C21315408   3.042   1.353   9.589 -0.8477  0.6274 -0.0759
  141SAPE  H13R15409   3.138   1.400   9.618  0.3269 -1.4400 -0.5270
  141SAPE  H13S15410   3.006   1.411   9.501  1.1716  1.2644 -0.5058
  141SAPE  C21415411   3.070   1.210   9.542  0.0997 -0.6172 -0.4364
  141SAPE  H14R15412   3.099   1.151   9.630  1.8546  0.6186 -0.1604
  141SAPE  C21515413   3.086   1.158   9.419  0.7101 -0.1307  0.6217
  141SAPE  H15R15414   3.122   1.054   9.409  0.1066 -0.2889  0.0794
  141SAPE  C21615415   3.075   1.229   9.285 -0.9124  0.5513 -0.0093
  141SAPE  H16R15416   3.172   1.270   9.249 -0.4715  0.1964  0.7541
  141SAPE  H16S15417   2.994   1.303   9.306 -2.9413 -0.8398 -2.6040
  141SAPE  C21715418   3.023   1.135   9.172  0.3309  0.0066  0.2083
  141SAPE  H17R15419   2.923   1.099   9.203  0.7693 -0.5614  0.9531
  141SAPE  H17S15420   3.086   1.044   9.168  1.1050  0.4976  1.1820
  141SAPE  C21815421   3.011   1.204   9.030 -0.5416  0.2875 -0.5249
  141SAPE  H18R15422   2.952   1.124   8.978  0.4290  0.0604 -1.2826
  141SAPE  H18S15423   3.112   1.214   8.986 -0.0932 -1.0301  0.1826
  141SAPE  C21915424   2.940   1.344   9.029  0.2677 -0.4630 -0.1715
  141SAPE  H19R15425   2.950   1.407   8.938  1.4964  0.8045  0.8186
  141SAPE  H19S15426   2.995   1.405   9.104  0.9079 -0.8758 -0.3121
  141SAPE  C22015427   2.792   1.345   9.074 -0.0316  0.2724  0.0261
  141SAPE  H20R15428   2.773   1.366   9.181  0.8211  0.5881  0.1173
  141SAPE  H20S15429   2.753   1.244   9.049  0.0190  0.0600  0.8261
  141SAPE  H20T15430   2.731   1.414   9.011  1.4444  1.5266 -0.0525
  141SAPE   C3315431   3.526   0.901  10.455  0.7185 -0.5097  0.3968
  141SAPE   H3X15432   3.610   0.971  10.437  0.2464 -1.0002 -4.4155
  141SAPE   H3Y15433   3.441   0.972  10.464  0.1695 -0.8787 -1.5301
  141SAPE   C3415434   3.511   0.828  10.322  0.4357  0.0827 -0.3749
  141SAPE   H4X15435   3.591   0.755  10.297 -0.1865 -0.9291  0.4973
  141SAPE   H4Y15436   3.510   0.901  10.239 -1.3891  2.3573  1.6018
  141SAPE   C3515437   3.365   0.773  10.308  1.0554 -0.0787 -0.4248
  141SAPE   H5X15438   3.290   0.838  10.357  0.6321 -0.4897 -0.5300
  141SAPE   H5Y15439   3.363   0.678  10.366 -1.4441  0.3350  0.2068
  141SAPE   C3615440   3.304   0.756  10.167 -0.5029 -0.0990  0.5925
  141SAPE   H6X15441   3.204   0.708  10.180 -0.4142 -0.1188  1.2177
  141SAPE   H6Y15442   3.357   0.694  10.092 -0.6360  0.4341  0.0511
  141SAPE   C3715443   3.271   0.889  10.098  0.5097  0.3160 -0.4502
  141SAPE   H7X15444   3.367   0.917  10.049  0.5529  0.1967 -0.4349
  141SAPE   H7Y15445   3.258   0.967  10.175 -0.2586  0.5864 -0.8503
  141SAPE   C3815446   3.159   0.873   9.993 -0.3711  1.0069  0.4738
  141SAPE   H8X15447   3.129   0.974   9.956 -0.4941  0.6223 -0.4879
  141SAPE   H8Y15448   3.062   0.850  10.042 -0.1624 -0.0480  0.4015
  141SAPE   C3915449   3.191   0.788   9.873 -0.1972  0.1704  0.7101
  141SAPE   H9X15450   3.182   0.680   9.899 -1.2528  0.0667 -0.0964
  141SAPE   H9Y15451   3.294   0.814   9.840 -0.4219 -0.4251 -0.4561
  141SAPE  C31015452   3.092   0.814   9.758 -0.2319 -0.3709  1.5084
  141SAPE  H10X15453   3.100   0.920   9.726 -0.2336 -0.8979 -0.2841
  141SAPE  H10Y15454   2.987   0.788   9.785 -0.6595  0.9801  1.1731
  141SAPE  C31115455   3.123   0.734   9.637  0.2937 -0.1071  0.2161
  141SAPE  H11X15456   3.143   0.627   9.660  0.6253  0.0093  0.4897
  141SAPE  H11Y15457   3.222   0.763   9.596  1.0612 -1.6473  0.9610
  141SAPE  C31215458   3.028   0.774   9.525 -0.6163  0.7126 -0.0658
  141SAPE  H12X15459   3.024   0.885   9.526 -1.6855  0.6854 -0.8443
  141SAPE  H12Y15460   2.929   0.728   9.549 -0.4833  0.1988 -0.4797
  141SAPE  C31315461   3.071   0.709   9.391  0.2759  0.2988 -0.3118
  141SAPE  H13X15462   3.102   0.604   9.412  2.0490  0.6407 -1.1428
  141SAPE  H13Y15463   3.165   0.763   9.366  0.6605 -0.0028  0.4516
  141SAPE  C31415464   2.968   0.722   9.276  0.0035 -0.7076 -0.1509
  141SAPE  H14X15465   2.946   0.831   9.268 -0.0721 -0.8576 -2.1286
  141SAPE  H14Y15466   2.880   0.672   9.323  0.3551 -0.0652  1.2355
  141SAPE  C31515467   3.008   0.665   9.142  0.3529 -0.3003 -0.4426
  141SAPE  H15X15468   2.926   0.678   9.068  0.8098  1.0772 -0.7163
  141SAPE  H15Y15469   3.032   0.557   9.142 -1.0546 -0.6495 -3.0830
  141SAPE  C31615470   3.136   0.736   9.096 -0.4353  0.5411 -0.3298
  141SAPE  H16X15471   3.209   0.727   9.179 -0.9112 -0.9771 -0.0576
  141SAPE  H16Y15472   3.127   0.846   9.081 -0.8836  0.5786  0.2007
  141SAPE  C31715473   3.180   0.698   8.957 -0.0842  0.1241 -0.7263
  141SAPE  H17X15474   3.219   0.595   8.962  0.0404  0.2087  0.2076
  141SAPE  H17Y15475   3.255   0.773   8.924  2.0476 -0.9937  1.4299
  141SAPE  C31815476   3.057   0.700   8.861  0.2534  0.1697  0.2698
  141SAPE  H18X15477   2.993   0.613   8.889 -0.1127  0.7496  1.2895
  141SAPE  H18Y15478   3.085   0.685   8.755 -2.3853 -2.4141 -0.1300
  141SAPE  H18Z15479   3.000   0.795   8.868 -1.2172 -0.5800 -1.1132
  142SAPE     N15480   4.449   0.442  10.859 -0.3558  0.6288 -0.0940
  142SAPE   HN115481   4.418   0.357  10.910  0.1544  1.2380  1.2746
  142SAPE   HN215482   4.549   0.435  10.833 -0.6214  0.9981 -1.2278
  142SAPE   HN315483   4.437   0.505  10.941  0.8475  2.5305 -1.3436
  142SAPE   C1215484   4.367   0.490  10.742 -0.3297  0.1798  0.2995
  142SAPE  H12A15485   4.393   0.431  10.652 -0.3575  0.8284 -0.1388
  142SAPE  H12B15486   4.382   0.600  10.732 -0.1663  0.2000  0.7515
  142SAPE   C1115487   4.212   0.473  10.772  1.1370  0.0879  0.2944
  142SAPE  H11A15488   4.195   0.363  10.769 -0.3504  0.3121  0.1773
  142SAPE  H11B15489   4.155   0.532  10.698  0.9385  0.1094  0.4629
  142SAPE     P15490   4.069   0.475  10.997 -0.5402 -0.5400  0.4305
  142SAPE   O1315491   4.107   0.356  11.069  0.0200  0.2534  0.4005
  142SAPE   O1415492   4.007   0.585  11.073 -0.1408  0.1047  0.3541
  142SAPE   O1215493   4.194   0.522  10.906  0.1120 -0.3199 -0.1100
  142SAPE   O1115494   3.977   0.414  10.886  0.4011  0.1045  0.0091
  142SAPE    C115495   3.890   0.492  10.810 -0.4765  0.2897  0.3576
  142SAPE    HA15496   3.812   0.534  10.877 -1.4682 -2.0137  0.6998
  142SAPE    HB15497   3.949   0.576  10.769  1.2968 -0.8265  0.5709
  142SAPE    C215498   3.828   0.416  10.696  0.3283  0.2765  0.0566
  142SAPE    HS15499   3.753   0.347  10.740  0.8654 -0.5191 -0.2795
  142SAPE   O2115500   3.925   0.345  10.608  1.1166 -0.3280  0.6048
  142SAPE   C2115501   3.941   0.215  10.627  0.7080  0.0759  0.0264
  142SAPE   O2215502   3.886   0.149  10.717 -0.0999  0.1994 -0.2122
  142SAPE   C2215503   4.050   0.164  10.534 -0.8897  0.3756  0.0222
  142SAPE   H2R15504   4.132   0.238  10.526  1.0535 -1.6883  0.5518
  142SAPE   H2S15505   4.093   0.077  10.588  1.2654  2.4089  1.6597
  142SAPE    C315506   3.765   0.510  10.592 -0.2792 -0.9155  0.6422
  142SAPE    HX15507   3.849   0.559  10.538  0.0625  0.3555  2.2844
  142SAPE    HY15508   3.716   0.594  10.645  2.2807  1.6730 -0.9235
  142SAPE   O3115509   3.672   0.450  10.498  0.0282  0.8545  0.6592
  142SAPE   C3115510   3.723   0.406  10.389 -0.3492 -0.0696 -0.1021
  142SAPE   O3215511   3.827   0.438  10.331 -0.2639 -0.0811  0.4248
  142SAPE   C3215512   3.631   0.295  10.334  0.3806  0.1382 -0.0653
  142SAPE   H2X15513   3.529   0.340  10.329 -0.9198 -2.2346  3.3217
  142SAPE   H2Y15514   3.629   0.214  10.411 -0.2187 -0.5128 -0.7469
  142SAPE   C2315515   4.018   0.119  10.388 -0.2397 -1.0089  0.4783
  142SAPE   H3R15516   4.106   0.070  10.341 -0.3547 -1.7853  1.0770
  142SAPE   H3S15517   3.992   0.206  10.323 -0.8031 -2.1391 -0.8191
  142SAPE   C2415518   3.904   0.010  10.382  0.2208  0.3930  0.3685
  142SAPE   H4R15519   3.886  -0.028  10.280  1.6577 -2.8031  1.2469
  142SAPE   H4S15520   3.814   0.062  10.421 -0.3789 -0.9119  0.7556
  142SAPE   C2515521   3.934  -0.100  10.476  0.0536 -0.5158  0.2454
  142SAPE   H5R15522   3.901  -0.081  10.579 -2.1729 -1.7201 -0.2134
  142SAPE   C2615523   3.988  -0.217  10.444  0.9321 -0.0905 -0.2593
  142SAPE   H6R15524   4.017  -0.286  10.525  1.5545 -0.4123 -0.7518
  142SAPE   C2715525   4.037  -0.252  10.306  0.0664 -0.4354 -0.2424
  142SAPE   H7R15526   4.071  -0.160  10.254 -0.2714 -0.6791 -0.9025
  142SAPE   H7S15527   3.954  -0.285  10.240  0.7817 -1.0853 -0.8190
  142SAPE   C2815528   4.151  -0.356  10.301  0.1878  0.1357 -0.2254
  142SAPE   H8R15529   4.151  -0.419  10.392  0.4348  0.6163  0.1129
  142SAPE   C2915530   4.223  -0.391  10.193 -0.1713 -1.2656 -0.3105
  142SAPE   H9R15531   4.299  -0.469  10.209  1.6856  0.4619 -0.5422
  142SAPE  C21015532   4.218  -0.326  10.057  0.5122 -0.1283  0.2124
  142SAPE  H10R15533   4.314  -0.345  10.006  0.7459  1.1982  0.1418
  142SAPE  H10S15534   4.208  -0.219  10.086 -1.2127 -0.6967  1.8690
  142SAPE  C21115535   4.097  -0.375   9.982  0.3830  0.1235  0.4069
  142SAPE  H11R15536   4.039  -0.464  10.011  0.3301  0.0992  0.2261
  142SAPE  C21215537   4.039  -0.305   9.883  0.5557 -0.0987 -0.3895
  142SAPE  H12R15538   3.944  -0.334   9.836 -0.3014  1.3096  0.4494
  142SAPE  C21315539   4.087  -0.169   9.825  0.1071 -0.3588 -0.7165
  142SAPE  H13R15540   4.165  -0.109   9.876  1.1668 -1.6521 -0.7938
  142SAPE  H13S15541   3.998  -0.105   9.809 -0.3693 -0.8648 -0.0815
  142SAPE  C21415542   4.151  -0.224   9.695 -0.0729 -0.9256 -0.3147
  142SAPE  H14R15543   4.246  -0.277   9.709 -0.0235 -0.8082 -0.2088
  142SAPE  C21515544   4.100  -0.210   9.571 -0.0937 -0.6205  0.7395
  142SAPE  H15R15545   4.159  -0.259   9.492 -0.2439  0.6600 -0.1703
  142SAPE  C21615546   3.962  -0.146   9.533  0.0427 -0.2443 -0.2997
  142SAPE  H16R15547   3.916  -0.118   9.630 -1.2814 -1.5114 -0.5430
  142SAPE  H16S15548   3.886  -0.215   9.491 -2.2708  0.4038  2.6458
  142SAPE  C21715549   3.980  -0.025   9.435 -0.1399 -0.5907 -0.1240
  142SAPE  H17R15550   4.011  -0.066   9.336  1.3369  0.1917  0.0016
  142SAPE  H17S15551   4.068   0.034   9.469 -0.6831 -1.0008  2.0754
  142SAPE  C21815552   3.841   0.052   9.427 -0.3543  0.7780 -0.1465
  142SAPE  H18R15553   3.817   0.080   9.531  1.4026  0.2249  0.4261
  142SAPE  H18S15554   3.757  -0.009   9.385  0.4543  0.8346 -1.9153
  142SAPE  C21915555   3.868   0.177   9.338  0.5185  0.1623  0.2652
  142SAPE  H19R15556   3.933   0.241   9.401 -0.6614 -0.4586  2.1704
  142SAPE  H19S15557   3.768   0.225   9.329  0.3364  0.2482  2.3494
  142SAPE  C22015558   3.915   0.141   9.196  0.4332  0.7665  0.2653
  142SAPE  H20R15559   3.835   0.072   9.164  1.5984 -0.7388  0.5619
  142SAPE  H20S15560   4.005   0.077   9.191 -0.2908 -0.0885 -2.8465
  142SAPE  H20T15561   3.915   0.231   9.130 -0.4783 -0.5822 -1.6284
  142SAPE   C3315562   3.679   0.242  10.195  0.2164  0.9198 -0.5541
  142SAPE   H3X15563   3.635   0.142  10.179 -0.7574  1.0345  1.2937
  142SAPE   H3Y15564   3.788   0.221  10.185  0.1003  0.6842 -1.3337
  142SAPE   C3415565   3.639   0.339  10.086 -0.2171 -0.1496 -0.0896
  142SAPE   H4X15566   3.688   0.307   9.991  1.0667  0.5836  0.3136
  142SAPE   H4Y15567   3.674   0.443  10.108  1.7343 -0.5491 -1.1334
  142SAPE   C3515568   3.491   0.335  10.051  0.0992 -0.6604 -0.4188
  142SAPE   H5X15569   3.438   0.356  10.147  0.7633  1.2279 -0.4557
  142SAPE   H5Y15570   3.455   0.233  10.025 -1.3175 -0.4067  0.4377
  142SAPE   C3615571   3.445   0.439   9.955  0.8018  0.5322  0.4821
  142SAPE   H6X15572   3.502   0.525   9.996 -1.8012  2.4273  0.2724
  142SAPE   H6Y15573   3.338   0.462   9.973  0.5244  0.0921 -0.6135
  142SAPE   C3715574   3.464   0.405   9.805 -0.1295 -0.1034  0.0389
  142SAPE   H7X15575   3.384   0.330   9.794 -0.3972  0.1933 -0.0290
  142SAPE   H7Y15576   3.560   0.350   9.791 -0.9920 -1.2277 -1.5292
  142SAPE   C3815577   3.433   0.519   9.704 -0.4485 -0.4137 -0.2771
  142SAPE   H8X15578   3.523   0.583   9.715 -1.6016  0.8968  1.9822
  142SAPE   H8Y15579   3.344   0.582   9.723  0.0725 -0.5175  2.8780
  142SAPE   C3915580   3.416   0.457   9.558 -0.1211  0.2722  0.4400
  142SAPE   H9X15581   3.308   0.437   9.542 -0.3851  1.2747  0.9083
  142SAPE   H9Y15582   3.486   0.371   9.546  0.6460  0.8072  0.9795
  142SAPE  C31015583   3.449   0.550   9.443 -0.1928 -0.0290 -0.4572
  142SAPE  H10X15584   3.555   0.579   9.458 -0.6914  0.4884  2.4313
  142SAPE  H10Y15585   3.387   0.641   9.453  1.2632  0.7313  2.0836
  142SAPE  C31115586   3.442   0.491   9.304  0.1185  0.2746  0.5816
  142SAPE  H11X15587   3.347   0.442   9.273  1.3283 -0.7602 -1.5780
  142SAPE  H11Y15588   3.517   0.409   9.301  0.1361  0.3327 -0.4717
  142SAPE  C31215589   3.485   0.584   9.195  0.0916 -0.6040 -0.3258
  142SAPE  H12X15590   3.587   0.618   9.222  1.2557 -2.4982 -2.2261
  142SAPE  H12Y15591   3.422   0.676   9.191  0.8386 -0.0365  0.7306
  142SAPE  C31315592   3.491   0.501   9.068  0.1074 -0.6780 -0.2733
  142SAPE  H13X15593   3.386   0.475   9.041  0.6991 -2.6152 -0.8082
  142SAPE  H13Y15594   3.548   0.407   9.083  0.2759 -0.3579  1.0928
  142SAPE  C31415595   3.568   0.580   8.960 -0.4050  0.3622 -0.0138
  142SAPE  H14X15596   3.674   0.590   8.992 -0.2711 -0.8089 -0.0714
  142SAPE  H14Y15597   3.523   0.682   8.960 -0.4118  0.3787  1.4530
  142SAPE  C31515598   3.535   0.528   8.821  0.3720  0.1245  0.0843
  142SAPE  H15X15599   3.426   0.527   8.797  0.2762  2.0981  0.3497
  142SAPE  H15Y15600   3.565   0.422   8.806 -0.4336  0.1492 -1.9599
  142SAPE  C31615601   3.599   0.616   8.719  0.1243  0.4499 -0.3074
  142SAPE  H16X15602   3.649   0.705   8.763  0.9616 -0.8522  1.4199
  142SAPE  H16Y15603   3.521   0.676   8.666 -0.2218  1.4830  1.3404
  142SAPE  C31715604   3.670   0.542   8.601  0.0087  0.4265 -0.3950
  142SAPE  H17X15605   3.602   0.466   8.556 -0.1994  0.2542  0.2073
  142SAPE  H17Y15606   3.761   0.497   8.646  0.2733  0.4832 -0.8695
  142SAPE  C31815607   3.707   0.639   8.486  0.4341  0.4246  0.1842
  142SAPE  H18X15608   3.797   0.685   8.532 -0.4315 -0.1704  2.5226
  142SAPE  H18Y15609   3.621   0.708   8.470 -0.2035 -0.4098 -0.0698
  142SAPE  H18Z15610   3.728   0.582   8.392 -0.0560 -0.7876  0.7948
  143SAPE     N15611   5.942   0.771  10.830 -1.0035  0.0259  0.8542
  143SAPE   HN115612   5.926   0.871  10.805 -0.0873 -0.2500 -0.8837
  143SAPE   HN215613   5.859   0.722  10.870 -1.1867  1.0732  1.7801
  143SAPE   HN315614   6.012   0.776  10.907 -0.0604  1.1358 -0.0581
  143SAPE   C1215615   5.983   0.684  10.710  0.0185 -0.8331  0.2703
  143SAPE  H12A15616   6.093   0.689  10.694  0.0795 -0.1565  0.8373
  143SAPE  H12B15617   5.945   0.740  10.622  1.4193  0.7143  0.5980
  143SAPE   C1115618   5.932   0.541  10.725  0.1207 -0.1903 -0.3811
  143SAPE  H11A15619   5.987   0.477  10.797  1.2044 -0.2947 -1.2895
  143SAPE  H11B15620   5.940   0.484  10.630  0.5722 -2.8503  1.2100
  143SAPE     P15621   5.695   0.407  10.771  0.0243  0.2766  0.3075
  143SAPE   O1315622   5.662   0.386  10.914  0.1282  0.1502 -0.3809
  143SAPE   O1415623   5.579   0.426  10.671 -0.5916 -0.6055  0.6295
  143SAPE   O1215624   5.789   0.536  10.763 -0.1451  0.2229 -0.3826
  143SAPE   O1115625   5.789   0.290  10.717  0.2110  0.5681  0.2559
  143SAPE    C115626   5.724   0.160  10.716  0.7978  0.2998 -0.1884
  143SAPE    HA15627   5.765   0.107  10.805 -0.2315  0.0745  0.1549
  143SAPE    HB15628   5.613   0.164  10.724  0.6710 -0.8886 -1.2346
  143SAPE    C215629   5.750   0.076  10.590  0.7318  0.2193  0.3186
  143SAPE    HS15630   5.859   0.059  10.580  0.5299 -1.2754  0.6180
  143SAPE   O2115631   5.693   0.146  10.477  0.3266  0.0292 -0.3736
  143SAPE   C2115632   5.780   0.230  10.415  0.0549 -0.3977 -0.7064
  143SAPE   O2215633   5.901   0.231  10.425  0.1482  0.2185 -0.9896
  143SAPE   C2215634   5.702   0.327  10.334  0.3356  0.7768  0.6031
  143SAPE   H2R15635   5.610   0.359  10.388  0.2958  0.7041  0.5782
  143SAPE   H2S15636   5.753   0.425  10.338 -1.5102  1.8206 -0.5878
  143SAPE    C315637   5.680  -0.061  10.603  0.7014 -0.8154  0.2188
  143SAPE    HX15638   5.571  -0.044  10.619  0.6202  1.0884 -1.9696
  143SAPE    HY15639   5.725  -0.116  10.688 -0.9747  0.0154  1.6985
  143SAPE   O3115640   5.681  -0.128  10.475  0.3971 -0.4162  0.0237
  143SAPE   C3115641   5.790  -0.196  10.449 -0.3513 -0.5626  0.4887
  143SAPE   O3215642   5.887  -0.204  10.523 -0.3661  0.4118  0.4659
  143SAPE   C3215643   5.777  -0.261  10.309 -0.0857 -0.3178  0.2028
  143SAPE   H2X15644   5.776  -0.371  10.325 -0.1077 -0.1484  1.4159
  143SAPE   H2Y15645   5.881  -0.241  10.273 -0.0109 -2.2251 -0.7115
  143SAPE   C2315646   5.675   0.274  10.191  0.3298 -0.6270  0.7317
  143SAPE   H3R15647   5.593   0.342  10.161 -1.1516 -2.1864  1.1195
  143SAPE   H3S15648   5.628   0.173  10.202  0.4315 -0.7942 -0.3718
  143SAPE   C2415649   5.789   0.293  10.094 -0.4206  0.3677 -0.3644
  143SAPE   H4R15650   5.875   0.225  10.112 -0.5790 -0.2227 -1.7862
  143SAPE   H4S15651   5.830   0.396  10.101  2.4759 -0.7342 -0.2601
  143SAPE   C2515652   5.757   0.257   9.954 -0.1509 -0.9526  0.7849
  143SAPE   H5R15653   5.774   0.153   9.921 -0.1707 -0.2825 -1.3982
  143SAPE   C2615654   5.741   0.347   9.851  0.3347  0.2552 -0.9224
  143SAPE   H6R15655   5.716   0.298   9.755 -3.6458 -0.1785  0.2109
  143SAPE   C2715656   5.735   0.490   9.839 -0.0935  0.0783 -0.8461
  143SAPE   H7R15657   5.683   0.525   9.930  0.4247  0.2237 -0.6035
  143SAPE   H7S15658   5.677   0.506   9.746  0.5500  1.9914 -0.9480
  143SAPE   C2815659   5.876   0.559   9.833 -0.3761  0.4442 -0.4513
  143SAPE   H8R15660   5.935   0.544   9.925  0.1669 -2.7493 -1.2409
  143SAPE   C2915661   5.922   0.619   9.722 -0.9603 -0.2617 -0.0183
  143SAPE   H9R15662   6.026   0.656   9.720 -1.4080  0.9768 -1.7318
  143SAPE  C21015663   5.850   0.619   9.587  0.1901 -0.0966  0.3435
  143SAPE  H10R15664   5.757   0.680   9.584  0.1239 -0.2455 -0.9403
  143SAPE  H10S15665   5.814   0.515   9.571 -0.9227  0.1221  1.3772
  143SAPE  C21115666   5.934   0.668   9.468  0.6945 -0.3141  0.5508
  143SAPE  H11R15667   5.994   0.758   9.487 -0.1949  0.4629 -0.3394
  143SAPE  C21215668   5.964   0.599   9.361  0.5073  0.2333  0.5024
  143SAPE  H12R15669   6.015   0.651   9.279  0.2563  0.1447  0.2910
  143SAPE  C21315670   5.912   0.464   9.329 -0.2864 -0.2244 -0.0656
  143SAPE  H13R15671   5.886   0.418   9.426 -0.6787  0.2332  0.0498
  143SAPE  H13S15672   5.993   0.404   9.283 -1.1868 -1.7204  0.2469
  143SAPE  C21415673   5.799   0.464   9.223 -0.6653 -0.8288 -0.3793
  143SAPE  H14R15674   5.698   0.457   9.265 -0.4289 -1.4123  0.0940
  143SAPE  C21515675   5.820   0.463   9.089 -0.4773 -0.5466  0.9212
  143SAPE  H15R15676   5.738   0.465   9.016 -0.6563 -0.9298  1.1069
  143SAPE  C21615677   5.953   0.456   9.019  1.1556 -0.0050  0.3998
  143SAPE  H16R15678   6.032   0.413   9.084  0.0117 -3.5128 -0.4123
  143SAPE  H16S15679   5.974   0.562   8.992 -2.1382  0.4290 -0.6781
  143SAPE  C21715680   5.959   0.364   8.896 -0.4483  0.0411  0.0357
  143SAPE  H17R15681   6.061   0.378   8.854 -0.6530  0.5482 -0.2950
  143SAPE  H17S15682   5.886   0.401   8.821 -0.2450 -0.2121 -0.2866
  143SAPE  C21815683   5.919   0.220   8.932  0.2885 -0.3410  1.0039
  143SAPE  H18R15684   5.825   0.220   8.991  0.0540 -1.5917  0.6377
  143SAPE  H18S15685   5.999   0.177   8.997  3.3367  0.3673 -2.1334
  143SAPE  C21915686   5.898   0.126   8.819 -0.2658  0.5878  0.0621
  143SAPE  H19R15687   5.843   0.172   8.734 -0.4040 -1.9877 -1.2898
  143SAPE  H19S15688   5.841   0.036   8.847  1.1658  0.5272  2.9089
  143SAPE  C22015689   6.033   0.084   8.753 -0.2378  0.6301  0.0365
  143SAPE  H20R15690   6.108   0.054   8.830 -1.6473 -1.3276  0.6829
  143SAPE  H20S15691   6.077   0.171   8.700 -1.6009  1.3141  0.0022
  143SAPE  H20T15692   6.014   0.002   8.681  1.2168  1.7407 -1.6427
  143SAPE   C3315693   5.655  -0.212  10.223 -0.2248 -0.1045 -0.8221
  143SAPE   H3X15694   5.644  -0.101  10.228  1.9500  0.1610 -1.3217
  143SAPE   H3Y15695   5.562  -0.263  10.254 -0.2187 -0.8771 -2.0395
  143SAPE   C3415696   5.670  -0.237  10.066 -0.2863 -0.2080  0.1206
  143SAPE   H4X15697   5.698  -0.344  10.053 -0.5245 -0.3006  0.3708
  143SAPE   H4Y15698   5.749  -0.178  10.014  1.6366 -1.9762  0.9452
  143SAPE   C3515699   5.537  -0.222   9.989 -0.0873  0.8254  0.5522
  143SAPE   H5X15700   5.491  -0.125  10.018 -0.1330  1.3735 -1.2353
  143SAPE   H5Y15701   5.463  -0.295  10.027  0.6165 -1.2838 -2.0052
  143SAPE   C3615702   5.560  -0.223   9.832  0.4109  0.1420  0.1793
  143SAPE   H6X15703   5.669  -0.240   9.820  0.8436  2.3013  0.8467
  143SAPE   H6Y15704   5.531  -0.118   9.810 -2.0776 -0.0193  2.3795
  143SAPE   C3715705   5.489  -0.339   9.777  0.1178 -0.1515  0.0106
  143SAPE   H7X15706   5.386  -0.329   9.818  0.5626  0.8652  0.9138
  143SAPE   H7Y15707   5.523  -0.436   9.818  1.3137  1.3203  2.5889
  143SAPE   C3815708   5.479  -0.334   9.630 -0.0654  0.0766 -0.4489
  143SAPE   H8X15709   5.574  -0.317   9.574  0.7700  0.5238  1.0926
  143SAPE   H8Y15710   5.408  -0.252   9.607 -0.9198  0.8341  4.4052
  143SAPE   C3915711   5.405  -0.457   9.576  0.1859 -0.0599 -0.3009
  143SAPE   H9X15712   5.311  -0.471   9.634  0.7955 -1.7125  0.3300
  143SAPE   H9Y15713   5.468  -0.548   9.588 -0.9800 -0.8594 -0.1258
  143SAPE  C31015714   5.370  -0.446   9.425 -0.3964 -0.8687 -0.5692
  143SAPE  H10X15715   5.295  -0.365   9.410  0.8675  0.3480 -0.4145
  143SAPE  H10Y15716   5.325  -0.544   9.398 -2.8296 -0.1987  0.9063
  143SAPE  C31115717   5.490  -0.436   9.331 -0.2201 -0.2378 -1.1443
  143SAPE  H11X15718   5.539  -0.535   9.317 -0.4839 -0.6125  0.4839
  143SAPE  H11Y15719   5.568  -0.362   9.361  0.0785 -1.7382  1.9611
  143SAPE  C31215720   5.445  -0.396   9.192  0.1518 -0.2169  0.7803
  143SAPE  H12X15721   5.403  -0.293   9.201  0.6888  0.4005 -2.7654
  143SAPE  H12Y15722   5.365  -0.461   9.151  0.1831 -0.7206  1.5136
  143SAPE  C31315723   5.560  -0.398   9.085  0.3593  0.2068 -0.4013
  143SAPE  H13X15724   5.585  -0.502   9.055 -0.4896 -0.0570 -0.2141
  143SAPE  H13Y15725   5.646  -0.347   9.135  0.2959 -1.1342  1.1280
  143SAPE  C31415726   5.523  -0.315   8.963  0.4611 -0.0656 -0.5587
  143SAPE  H14X15727   5.485  -0.219   9.005 -0.1375 -0.2536 -0.6714
  143SAPE  H14Y15728   5.434  -0.364   8.919  0.8741  0.0259 -1.5057
  143SAPE  C31515729   5.639  -0.292   8.862  0.5187  0.0849  0.1359
  143SAPE  H15X15730   5.686  -0.382   8.818  1.2043 -0.4492  1.9231
  143SAPE  H15Y15731   5.733  -0.248   8.902  0.2157  0.2164  0.7090
  143SAPE  C31615732   5.587  -0.222   8.730 -0.3663  0.6117 -0.4206
  143SAPE  H16X15733   5.525  -0.134   8.757 -0.0531  1.7504 -3.2345
  143SAPE  H16Y15734   5.519  -0.294   8.680 -0.6540  0.4740  0.1570
  143SAPE  C31715735   5.696  -0.172   8.632  0.2030  0.1868 -0.1210
  143SAPE  H17X15736   5.747  -0.088   8.685 -0.9058  0.5567  0.3936
  143SAPE  H17Y15737   5.647  -0.117   8.549  0.5837  1.1074  0.2560
  143SAPE  C31815738   5.801  -0.269   8.580 -0.2358 -0.6941 -1.0027
  143SAPE  H18X15739   5.863  -0.313   8.661  0.6440 -2.4140 -2.5835
  143SAPE  H18Y15740   5.862  -0.210   8.509 -0.6003  0.5649 -0.2980
  143SAPE  H18Z15741   5.750  -0.353   8.528  0.1167 -0.4610 -1.7269
  144SAPE     N15742   1.321   4.498  10.879  0.4559 -0.3007  0.1379
  144SAPE   HN115743   1.339   4.587  10.931 -3.8320  0.8320 -0.0974
  144SAPE   HN215744   1.300   4.527  10.782  1.1776 -0.3025 -0.0167
  144SAPE   HN315745   1.235   4.448  10.911 -1.4033  1.2566 -2.2694
  144SAPE   C1215746   1.439   4.399  10.879  0.0015 -0.2021  0.0882
  144SAPE  H12A15747   1.410   4.311  10.818 -0.5173  0.7741 -1.1096
  144SAPE  H12B15748   1.474   4.379  10.982 -0.3745  0.4578  0.3486
  144SAPE   C1115749   1.550   4.480  10.807  0.2009 -0.4623 -0.1115
  144SAPE  H11A15750   1.564   4.570  10.872 -0.8234 -2.3879  2.8902
  144SAPE  H11B15751   1.523   4.512  10.704  1.4920  1.2223  0.0425
  144SAPE     P15752   1.807   4.473  10.774 -0.2580 -0.1383 -0.1251
  144SAPE   O1315753   1.830   4.582  10.872  0.1861 -0.0316  0.4371
  144SAPE   O1415754   1.918   4.377  10.768 -0.6481  0.2801  0.1250
  144SAPE   O1215755   1.670   4.402  10.812  0.5192  0.2305 -0.9689
  144SAPE   O1115756   1.788   4.521  10.618 -0.0022  0.3289 -0.3799
  144SAPE    C115757   1.742   4.423  10.525  0.0051 -0.4366 -0.4236
  144SAPE    HA15758   1.822   4.348  10.512 -0.1604 -0.4332 -1.5685
  144SAPE    HB15759   1.659   4.359  10.562 -0.1764  0.0482  0.0246
  144SAPE    C215760   1.694   4.476  10.382  0.5332  0.6714 -0.6956
  144SAPE    HS15761   1.665   4.399  10.308  0.6093  1.7449 -1.8526
  144SAPE   O2115762   1.801   4.556  10.326 -0.1774 -0.0633  0.5837
  144SAPE   C2115763   1.906   4.490  10.283 -0.2056 -0.1156  0.1609
  144SAPE   O2215764   1.912   4.373  10.260 -0.2073 -0.0910 -0.1302
  144SAPE   C2215765   2.029   4.580  10.263 -0.0204 -0.1372  0.2775
  144SAPE   H2R15766   1.981   4.679  10.245 -1.7549 -1.2965 -1.7109
  144SAPE   H2S15767   2.103   4.576  10.346  1.7636 -0.9824 -1.3074
  144SAPE    C315768   1.561   4.559  10.412 -0.6117 -0.2078  0.1851
  144SAPE    HX15769   1.587   4.652  10.467  0.3727 -1.0142  1.1193
  144SAPE    HY15770   1.491   4.519  10.488  1.5047 -0.5812  1.9918
  144SAPE   O3115771   1.487   4.577  10.285 -0.1847 -0.2703 -0.4200
  144SAPE   C3115772   1.406   4.484  10.255  0.6898 -0.6893 -0.9100
  144SAPE   O3215773   1.393   4.376  10.313  0.0970 -0.2455 -0.1005
  144SAPE   C3215774   1.312   4.539  10.142  0.6057  0.3733  0.0098
  144SAPE   H2X15775   1.312   4.650  10.149 -1.7675  0.3916  0.4044
  144SAPE   H2Y15776   1.213   4.495  10.168  0.1850  1.5671  0.4676
  144SAPE   C2315777   2.094   4.528  10.123  0.0241 -0.6268 -0.1157
  144SAPE   H3R15778   2.019   4.507  10.044 -0.8078  0.0771  0.4809
  144SAPE   H3S15779   2.146   4.431  10.142  1.4566 -0.3950 -2.7402
  144SAPE   C2415780   2.184   4.633  10.061 -1.2136 -0.0857 -0.8506
  144SAPE   H4R15781   2.246   4.687  10.135 -0.8774  0.1847 -1.3232
  144SAPE   H4S15782   2.116   4.718  10.037 -2.6123 -0.8236  0.4056
  144SAPE   C2515783   2.277   4.586   9.955 -0.1656  0.3564 -0.2666
  144SAPE   H5R15784   2.339   4.507  10.000 -0.2887  1.3741  1.7596
  144SAPE   C2615785   2.294   4.625   9.824  0.2382  0.1373 -0.1186
  144SAPE   H6R15786   2.370   4.577   9.760  1.4009  1.9389 -0.1419
  144SAPE   C2715787   2.218   4.733   9.738  0.1748 -0.1942  0.3524
  144SAPE   H7R15788   2.295   4.799   9.694 -0.1268  0.1726  0.3730
  144SAPE   H7S15789   2.156   4.802   9.799 -0.6862  0.2332 -0.9813
  144SAPE   C2815790   2.132   4.664   9.640 -0.3064  0.5115 -0.0192
  144SAPE   H8R15791   2.048   4.605   9.679 -0.5862 -0.8241 -2.5767
  144SAPE   C2915792   2.153   4.647   9.508  0.1773 -0.8182  0.1264
  144SAPE   H9R15793   2.082   4.591   9.446 -0.7069  1.3027 -0.8042
  144SAPE  C21015794   2.288   4.667   9.439  0.9285 -0.6421  0.0205
  144SAPE  H10R15795   2.355   4.583   9.468  0.4722 -0.4495  1.6969
  144SAPE  H10S15796   2.332   4.759   9.484  0.1527 -0.5661  0.6219
  144SAPE  C21115797   2.300   4.676   9.290 -1.0449  0.4545  0.3607
  144SAPE  H11R15798   2.378   4.608   9.252 -1.4498  1.0985 -1.6766
  144SAPE  C21215799   2.226   4.745   9.204 -0.0751  0.1352  0.3405
  144SAPE  H12R15800   2.263   4.746   9.100  1.0063  1.5939  0.7209
  144SAPE  C21315801   2.115   4.838   9.226  0.1859  0.1349 -0.7855
  144SAPE  H13R15802   2.107   4.871   9.331  0.4782  2.2144 -1.3953
  144SAPE  H13S15803   2.019   4.785   9.209 -1.1754  2.5988 -0.9998
  144SAPE  C21415804   2.124   4.963   9.143  0.2537 -0.3693 -0.7722
  144SAPE  H14R15805   2.175   5.042   9.201 -2.3388  1.0522 -0.3152
  144SAPE  C21515806   2.070   4.988   9.021  0.4053  0.4104  1.0425
  144SAPE  H15R15807   2.096   5.085   8.978 -1.4077  0.9741  1.1682
  144SAPE  C21615808   1.979   4.900   8.940  0.4116 -0.9427 -0.1258
  144SAPE  H16R15809   1.886   4.958   8.926  1.7812  1.1088 -0.9632
  144SAPE  H16S15810   1.956   4.807   8.997  1.6836 -2.2897 -1.7804
  144SAPE  C21715811   2.029   4.869   8.793 -0.4334  0.0331  0.3238
  144SAPE  H17R15812   2.119   4.805   8.798  0.0606  0.6266 -0.7554
  144SAPE  H17S15813   2.057   4.969   8.752 -1.8338 -0.2489 -1.3654
  144SAPE  C21815814   1.909   4.821   8.700  0.0461 -0.3545 -0.1937
  144SAPE  H18R15815   1.824   4.890   8.714 -0.0854 -0.4165 -0.6686
  144SAPE  H18S15816   1.862   4.728   8.737 -1.0948 -0.0702 -0.9250
  144SAPE  C21915817   1.945   4.823   8.549  0.2950 -0.6585  0.4546
  144SAPE  H19R15818   1.854   4.787   8.496 -0.3486  1.5567 -0.0030
  144SAPE  H19S15819   2.033   4.758   8.531 -0.8057 -2.4410  1.2920
  144SAPE  C22015820   1.971   4.960   8.484 -0.5289 -0.2545 -0.3787
  144SAPE  H20R15821   2.079   4.983   8.499  0.4538 -4.7851  0.2355
  144SAPE  H20S15822   1.906   5.038   8.528 -0.7161 -0.0303 -1.0364
  144SAPE  H20T15823   1.953   4.947   8.375 -1.0903 -1.4114 -0.1599
  144SAPE   C3315824   1.340   4.497   9.999  0.3211  0.3064  0.4016
  144SAPE   H3X15825   1.307   4.391   9.987  0.6672  0.3256 -0.7946
  144SAPE   H3Y15826   1.449   4.487   9.983  0.2434 -0.3444  0.2469
  144SAPE   C3415827   1.282   4.580   9.891 -0.1701 -0.1892  0.6835
  144SAPE   H4X15828   1.335   4.677   9.884  0.4971 -0.5605  0.5551
  144SAPE   H4Y15829   1.182   4.624   9.910 -0.0386  0.1446  0.5983
  144SAPE   C3515830   1.301   4.521   9.748  0.1936 -0.2741  0.0390
  144SAPE   H5X15831   1.235   4.433   9.734 -1.3903  0.6839  1.2182
  144SAPE   H5Y15832   1.408   4.497   9.736  0.1994  0.1793 -0.8667
  144SAPE   C3615833   1.272   4.628   9.638 -0.3183 -0.1641  1.0392
  144SAPE   H6X15834   1.345   4.710   9.650 -0.3411  0.1921 -1.1508
  144SAPE   H6Y15835   1.168   4.664   9.654 -0.2572  0.1119  0.8184
  144SAPE   C3715836   1.289   4.585   9.492 -0.4739 -0.2299 -0.7199
  144SAPE   H7X15837   1.211   4.507   9.480 -1.2826  0.6173 -1.0333
  144SAPE   H7Y15838   1.388   4.535   9.480 -0.4848 -0.1254 -1.2559
  144SAPE   C3815839   1.277   4.689   9.384  0.4636 -0.2168 -0.2403
  144SAPE   H8X15840   1.351   4.771   9.389 -0.2933  0.5133 -0.8094
  144SAPE   H8Y15841   1.179   4.739   9.399  1.3426  0.9935  1.5770
  144SAPE   C3915842   1.288   4.630   9.240  0.2579  0.2033  0.8416
  144SAPE   H9X15843   1.220   4.544   9.220 -1.7602  1.9280  0.0799
  144SAPE   H9Y15844   1.391   4.603   9.209  0.1669  0.0117  0.7049
  144SAPE  C31015845   1.251   4.736   9.137 -0.4071  0.2763  0.2150
  144SAPE  H10X15846   1.316   4.826   9.136  1.8361 -1.2958 -0.9274
  144SAPE  H10Y15847   1.142   4.754   9.148 -0.3493  1.1131 -0.4934
  144SAPE  C31115848   1.256   4.687   8.992  0.2446 -0.1004  0.4965
  144SAPE  H11X15849   1.179   4.608   8.981  0.1786  0.2511 -1.8968
  144SAPE  H11Y15850   1.352   4.639   8.964 -0.7194 -0.1311 -3.0402
  144SAPE  C31215851   1.234   4.811   8.889  0.1439  0.9414  0.0272
  144SAPE  H12X15852   1.288   4.902   8.923  0.5672  0.9234 -0.5799
  144SAPE  H12Y15853   1.128   4.839   8.872 -0.1745 -1.5311 -2.2990
  144SAPE  C31315854   1.303   4.771   8.753  0.0250  0.6762  0.9618
  144SAPE  H13X15855   1.246   4.686   8.710 -1.7908  2.0673  0.5312
  144SAPE  H13Y15856   1.406   4.731   8.759  0.9718  2.3384 -2.6713
  144SAPE  C31415857   1.299   4.887   8.652  0.2593 -0.0775  0.6305
  144SAPE  H14X15858   1.361   4.962   8.705 -1.0340  0.5882  1.2068
  144SAPE  H14Y15859   1.194   4.922   8.650  0.4799  0.5791  0.5992
  144SAPE  C31515860   1.363   4.840   8.514 -0.0863  1.1688 -0.2887
  144SAPE  H15X15861   1.301   4.759   8.470  1.3446 -0.7353  1.1293
  144SAPE  H15Y15862   1.466   4.802   8.533 -0.0598  0.6183 -1.4795
  144SAPE  C31615863   1.375   4.957   8.420  0.7096  0.3653  0.2818
  144SAPE  H16X15864   1.281   4.997   8.376  0.6598  0.3115  0.3395
  144SAPE  H16Y15865   1.431   4.933   8.327  0.7149  2.4428 -0.2767
  144SAPE  C31715866   1.440   5.077   8.487 -0.4302  0.2095 -0.2894
  144SAPE  H17X15867   1.520   5.027   8.545 -1.0134 -0.3626  0.0297
  144SAPE  H17Y15868   1.367   5.132   8.549 -1.0804 -0.3330 -0.5641
  144SAPE  C31815869   1.497   5.179   8.395 -0.1152 -0.0360 -0.5722
  144SAPE  H18X15870   1.563   5.127   8.322  0.3044  0.1785 -0.3483
  144SAPE  H18Y15871   1.559   5.257   8.444 -0.2046 -1.4004  1.8013
  144SAPE  H18Z15872   1.410   5.227   8.345 -1.8003 -0.1774  2.1475
  145SAPE     N15873   5.418   6.512  11.073 -0.4575 -0.3543  0.3057
  145SAPE   HN115874   5.377   6.420  11.050 -2.7313  0.5553  0.6121
  145SAPE   HN215875   5.409   6.595  11.010  0.4546 -1.6443 -1.5865
  145SAPE   HN315876   5.521   6.499  11.081 -0.7437 -3.1923 -0.3352
  145SAPE   C1215877   5.371   6.565  11.203  0.6653 -0.7486 -0.2283
  145SAPE  H12A15878   5.265   6.536  11.222  0.2905 -0.0532 -1.2328
  145SAPE  H12B15879   5.383   6.675  11.199 -1.1187 -0.4379  2.0987
  145SAPE   C1115880   5.456   6.520  11.326  0.6007  0.6207  0.7072
  145SAPE  H11A15881   5.448   6.409  11.333  1.9329  0.3495 -1.7051
  145SAPE  H11B15882   5.402   6.551  11.418 -0.6237 -1.1795  0.6363
  145SAPE     P15883   5.708   6.460  11.272 -0.0736  0.0264  0.1842
  145SAPE   O1315884   5.836   6.538  11.286 -0.0291  0.1263  0.4063
  145SAPE   O1415885   5.700   6.328  11.342  0.6498 -0.1514  0.5992
  145SAPE   O1215886   5.590   6.551  11.336 -0.6567 -0.7232  0.5652
  145SAPE   O1115887   5.668   6.443  11.122 -0.1995  0.0612  0.4347
  145SAPE    C115888   5.752   6.485  11.011  0.7430  1.1770 -0.1512
  145SAPE    HA15889   5.727   6.586  10.973  1.9315  0.8014 -2.0312
  145SAPE    HB15890   5.857   6.480  11.046  1.0366  2.4968 -0.8321
  145SAPE    C215891   5.722   6.411  10.888 -0.1545 -0.3044  0.2320
  145SAPE    HS15892   5.794   6.429  10.805 -1.1557 -1.5385 -0.9420
  145SAPE   O2115893   5.593   6.456  10.848 -0.0701  0.2063  0.0833
  145SAPE   C2115894   5.576   6.448  10.713  0.2171 -0.5087  0.0267
  145SAPE   O2215895   5.659   6.411  10.636  0.3501  0.0626  0.6912
  145SAPE   C2215896   5.437   6.491  10.674  0.5941  0.7028  0.4422
  145SAPE   H2R15897   5.362   6.420  10.717 -0.0858  1.2557  0.1826
  145SAPE   H2S15898   5.422   6.597  10.702 -0.3773  0.2911  1.5237
  145SAPE    C315899   5.720   6.253  10.917  0.0437 -0.5884  0.3064
  145SAPE    HX15900   5.640   6.238  10.993 -1.6072 -1.5953 -1.5898
  145SAPE    HY15901   5.814   6.229  10.972  1.5883 -2.5521 -2.9972
  145SAPE   O3115902   5.690   6.171  10.801 -0.3812 -0.3580  0.3946
  145SAPE   C3115903   5.804   6.122  10.735 -0.7943  0.2377 -0.2601
  145SAPE   O3215904   5.915   6.142  10.773 -0.3613  0.3994 -0.4124
  145SAPE   C3215905   5.768   6.049  10.611  0.0602  0.0294 -0.3747
  145SAPE   H2X15906   5.696   5.970  10.641  0.7867  0.0609  1.5365
  145SAPE   H2Y15907   5.855   5.997  10.566 -1.0706  0.1526 -2.7707
  145SAPE   C2315908   5.408   6.493  10.523 -0.1171  0.2127  0.7013
  145SAPE   H3R15909   5.399   6.391  10.480  0.9898  1.2165 -2.0262
  145SAPE   H3S15910   5.486   6.546  10.464 -1.3434  0.3708 -0.8176
  145SAPE   C2415911   5.282   6.571  10.479  0.3556 -0.0831  0.1661
  145SAPE   H4R15912   5.195   6.531  10.536  0.2004 -1.4216 -0.9556
  145SAPE   H4S15913   5.248   6.537  10.378  2.4137 -3.6999  0.6012
  145SAPE   C2515914   5.290   6.725  10.495  0.0939  0.3973  0.6943
  145SAPE   H5R15915   5.297   6.753  10.601  1.1851 -1.7857  1.2425
  145SAPE   C2615916   5.294   6.812  10.395 -0.1958  0.4613 -0.2641
  145SAPE   H6R15917   5.287   6.916  10.430  1.7076  0.7551 -0.6771
  145SAPE   C2715918   5.287   6.777  10.247  0.3293  0.2441 -0.3293
  145SAPE   H7R15919   5.330   6.677  10.223 -0.4387 -0.0040 -0.6877
  145SAPE   H7S15920   5.353   6.849  10.193  1.5080 -0.9701 -0.5249
  145SAPE   C2815921   5.155   6.804  10.186 -0.7221  0.2850 -0.4521
  145SAPE   H8R15922   5.106   6.891  10.231 -1.2304  0.2717 -0.9854
  145SAPE   C2915923   5.099   6.740  10.078  0.2854 -0.1110 -0.0828
  145SAPE   H9R15924   4.998   6.779  10.056  0.8393  0.9374 -0.8379
  145SAPE  C21015925   5.170   6.634   9.995 -0.4695 -0.1343 -0.1976
  145SAPE  H10R15926   5.276   6.659   9.974  0.1600 -1.5574  1.1707
  145SAPE  H10S15927   5.124   6.637   9.894  2.5908 -0.7193 -1.6759
  145SAPE  C21115928   5.150   6.494  10.048  0.5336 -0.2861 -0.7187
  145SAPE  H11R15929   5.219   6.475  10.131  0.5767  0.1889 -0.6421
  145SAPE  C21215930   5.068   6.392  10.004  0.0190 -0.8699  0.1546
  145SAPE  H12R15931   5.068   6.292  10.050 -2.2300 -1.1612 -0.4189
  145SAPE  C21315932   4.983   6.401   9.882  0.0770 -0.0789 -0.5545
  145SAPE  H13R15933   5.023   6.466   9.802 -2.8214  1.0187 -1.1684
  145SAPE  H13S15934   4.886   6.449   9.908  0.1185 -0.2621 -0.0649
  145SAPE  C21415935   4.957   6.256   9.830  0.2280  0.3559 -0.2242
  145SAPE  H14R15936   4.961   6.174   9.903 -4.6739  0.1148 -0.0640
  145SAPE  C21515937   4.954   6.211   9.704 -0.1450  0.1542  0.2788
  145SAPE  H15R15938   4.945   6.105   9.676 -1.3364  0.8157 -2.0034
  145SAPE  C21615939   4.950   6.305   9.590 -0.3091  0.6941  0.4562
  145SAPE  H16R15940   5.030   6.378   9.610 -0.8640  1.3267  0.3711
  145SAPE  H16S15941   4.857   6.366   9.590 -0.9155 -0.2001 -0.2616
  145SAPE  C21715942   4.972   6.228   9.454 -0.8704  0.0837 -0.4372
  145SAPE  H17R15943   4.901   6.143   9.450 -0.8204  0.1007 -2.1717
  145SAPE  H17S15944   5.070   6.176   9.453 -0.8047  0.1838  0.5240
  145SAPE  C21815945   4.968   6.319   9.326 -0.1507 -0.1419  0.4721
  145SAPE  H18R15946   4.982   6.263   9.231  0.0999  0.3369  0.2291
  145SAPE  H18S15947   5.056   6.386   9.322  0.5472 -1.1328 -0.8737
  145SAPE  C21915948   4.827   6.370   9.309  0.0007 -0.1628  0.0086
  145SAPE  H19R15949   4.792   6.424   9.400  0.9369 -1.5426  1.2055
  145SAPE  H19S15950   4.769   6.276   9.306 -0.5159  0.1403  0.4798
  145SAPE  C22015951   4.817   6.453   9.184 -0.6077 -0.6538 -0.3059
  145SAPE  H20R15952   4.895   6.532   9.188 -1.1846 -0.1585  1.6782
  145SAPE  H20S15953   4.710   6.482   9.177 -0.5303 -0.4474 -0.6311
  145SAPE  H20T15954   4.839   6.391   9.094  0.8349  0.3969 -0.7000
  145SAPE   C3315955   5.712   6.143  10.503 -0.9838  0.6338 -0.0701
  145SAPE   H3X15956   5.782   6.229  10.512 -0.1154 -0.1692  0.9792
  145SAPE   H3Y15957   5.609   6.168  10.535 -1.0039 -0.0956  0.4264
  145SAPE   C3415958   5.729   6.077  10.365 -0.4448  0.3980  0.6190
  145SAPE   H4X15959   5.680   5.978  10.372 -0.7220  0.4506 -0.4444
  145SAPE   H4Y15960   5.835   6.048  10.345 -1.2085 -1.3655 -1.0016
  145SAPE   C3515961   5.668   6.156  10.250  0.0234  0.4581 -0.2651
  145SAPE   H5X15962   5.727   6.246  10.222 -1.2523  1.9109  1.6146
  145SAPE   H5Y15963   5.569   6.181  10.292  0.2147 -0.1901  0.5731
  145SAPE   C3615964   5.643   6.069  10.128 -0.0980 -0.6075 -0.2261
  145SAPE   H6X15965   5.599   5.972  10.160  0.1598 -1.1808 -1.5567
  145SAPE   H6Y15966   5.741   6.054  10.079 -0.7916  0.4436 -1.9662
  145SAPE   C3715967   5.553   6.131  10.018  0.1598  0.2604 -0.3281
  145SAPE   H7X15968   5.587   6.079   9.926 -1.8146  0.4995 -1.2093
  145SAPE   H7Y15969   5.569   6.240   9.997  1.8714 -0.1051 -1.0139
  145SAPE   C3815970   5.409   6.115  10.043  0.9755  1.2640 -0.0333
  145SAPE   H8X15971   5.391   6.183  10.129 -0.4949  0.2598  0.4672
  145SAPE   H8Y15972   5.379   6.013  10.076  1.1085  1.0036 -0.7094
  145SAPE   C3915973   5.324   6.153   9.920  0.1265  0.2900  0.3811
  145SAPE   H9X15974   5.335   6.262   9.898  0.0380 -0.0248 -1.2539
  145SAPE   H9Y15975   5.217   6.144   9.949  0.8136 -3.6675  2.0268
  145SAPE  C31015976   5.341   6.073   9.786 -0.0422 -0.4374  0.3693
  145SAPE  H10X15977   5.441   6.028   9.771 -0.1150 -0.0912 -1.3309
  145SAPE  H10Y15978   5.313   6.147   9.707  0.7102  0.6034  1.0581
  145SAPE  C31115979   5.242   5.957   9.775  0.4849 -0.2862 -0.3101
  145SAPE  H11X15980   5.138   5.993   9.787  0.9781  1.1240 -0.1573
  145SAPE  H11Y15981   5.264   5.887   9.859  1.7898 -0.9631 -1.1992
  145SAPE  C31215982   5.250   5.873   9.643  0.0815 -0.2956  0.2725
  145SAPE  H12X15983   5.193   5.779   9.656 -2.9764  1.3176 -0.9849
  145SAPE  H12Y15984   5.355   5.843   9.624  0.0891  0.5475 -1.0969
  145SAPE  C31315985   5.184   5.942   9.523 -0.0350 -0.4773 -0.1484
  145SAPE  H13X15986   5.245   6.032   9.499  0.9894 -0.8826  0.8795
  145SAPE  H13Y15987   5.078   5.968   9.545 -0.3640 -1.4978 -0.5352
  145SAPE  C31415988   5.186   5.864   9.391  0.1689  0.0178  0.4277
  145SAPE  H14X15989   5.170   5.756   9.413 -0.6547  0.3509  1.4963
  145SAPE  H14Y15990   5.287   5.866   9.345  0.0043  1.3507  0.0993
  145SAPE  C31515991   5.073   5.906   9.291  1.0152  0.7769  0.4347
  145SAPE  H15X15992   5.093   6.011   9.259  2.2983  0.2880 -0.4550
  145SAPE  H15Y15993   4.972   5.895   9.334 -0.1117  3.6000 -1.3318
  145SAPE  C31615994   5.076   5.818   9.157 -0.5259  0.2974 -0.3680
  145SAPE  H16X15995   5.049   5.712   9.177  0.2286  0.5339  2.0783
  145SAPE  H16Y15996   5.181   5.817   9.121  0.2473 -1.8774  1.7953
  145SAPE  C31715997   4.991   5.882   9.048 -0.1357  0.3778  0.2479
  145SAPE  H17X15998   4.995   5.835   8.947 -1.7955 -1.1011  0.8344
  145SAPE  H17Y15999   5.023   5.984   9.018 -2.1102  0.8165 -0.4592
  145SAPE  C31816000   4.845   5.906   9.092 -0.1022  0.6754  0.0607
  145SAPE  H18X16001   4.791   5.981   9.030  3.5102  2.0238 -1.6128
  145SAPE  H18Y16002   4.831   5.938   9.198 -0.0965 -2.3046  0.9914
  145SAPE  H18Z16003   4.796   5.806   9.093 -1.9740  1.5295 -1.5443
  146SAPE     N16004   3.908   5.443  10.736 -0.2119  0.4260 -0.2371
  146SAPE   HN116005   3.955   5.373  10.796 -2.6787 -1.1076 -0.0353
  146SAPE   HN216006   3.855   5.379  10.673 -0.8928  0.6349  0.1123
  146SAPE   HN316007   3.977   5.487  10.672  0.8442 -0.1463  0.5080
  146SAPE   C1216008   3.820   5.535  10.820  0.3695 -0.4803 -0.0680
  146SAPE  H12A16009   3.767   5.598  10.746  0.0307 -0.2517  0.3681
  146SAPE  H12B16010   3.890   5.595  10.882 -1.0147 -1.5714  2.6497
  146SAPE   C1116011   3.722   5.459  10.913  0.1759 -0.3251  0.7814
  146SAPE  H11A16012   3.669   5.542  10.964  0.7832  0.3180  0.3688
  146SAPE  H11B16013   3.782   5.415  10.996 -2.3424 -0.9361  2.3506
  146SAPE     P16014   3.510   5.391  10.763  0.3503 -0.2013 -0.0297
  146SAPE   O1316015   3.465   5.263  10.705 -0.0803  0.2424 -0.0974
  146SAPE   O1416016   3.415   5.462  10.852 -0.5540  0.1516  0.6532
  146SAPE   O1216017   3.644   5.364  10.843 -0.6053  0.1817 -0.4908
  146SAPE   O1116018   3.552   5.486  10.649  0.0279 -0.0829  0.1278
  146SAPE    C116019   3.551   5.428  10.524 -0.3506  0.0542  0.2798
  146SAPE    HA16020   3.609   5.334  10.512  0.4905  0.5508  0.3760
  146SAPE    HB16021   3.453   5.391  10.489  1.0132 -0.8031 -2.8598
  146SAPE    C216022   3.616   5.518  10.415  1.0134 -0.2991 -0.3154
  146SAPE    HS16023   3.720   5.529  10.453  0.9529  1.5420 -0.6464
  146SAPE   O2116024   3.543   5.642  10.405 -0.2325 -0.4523  0.4588
  146SAPE   C2116025   3.627   5.743  10.368  0.6633 -0.2762  0.5776
  146SAPE   O2216026   3.746   5.733  10.338 -0.1298  0.1220 -0.1163
  146SAPE   C2216027   3.552   5.873  10.354  0.3306  0.2164  0.0680
  146SAPE   H2R16028   3.513   5.899  10.455 -0.2141  2.6244 -0.7246
  146SAPE   H2S16029   3.631   5.948  10.334 -0.6496  0.6198 -2.4884
  146SAPE    C316030   3.632   5.442  10.272 -0.5651 -0.2714 -0.4164
  146SAPE    HX16031   3.524   5.418  10.260 -0.0535 -1.9000 -2.0743
  146SAPE    HY16032   3.681   5.343  10.286  0.4191  0.3722  0.8616
  146SAPE   O3116033   3.684   5.522  10.167  0.1447 -0.0497 -0.1302
  146SAPE   C3116034   3.819   5.520  10.150  0.2236  0.1612  0.6451
  146SAPE   O3216035   3.887   5.434  10.200 -0.2231  0.4955  0.3654
  146SAPE   C3216036   3.867   5.641  10.074  0.3227 -0.4428  0.0739
  146SAPE   H2X16037   3.939   5.693  10.141 -1.6306  0.1635  1.7636
  146SAPE   H2Y16038   3.786   5.716  10.067  0.5502 -0.3324 -1.6707
  146SAPE   C2316039   3.442   5.864  10.243  0.1782  0.1941 -0.6121
  146SAPE   H3R16040   3.379   5.954  10.261  0.3247 -0.1876  2.1214
  146SAPE   H3S16041   3.373   5.779  10.259  0.6263 -0.2270 -0.9219
  146SAPE   C2416042   3.495   5.874  10.101 -0.0480 -0.6208  0.1825
  146SAPE   H4R16043   3.565   5.791  10.075 -0.2200 -1.4500  2.2605
  146SAPE   H4S16044   3.542   5.974  10.095 -0.7836 -0.3649 -1.3624
  146SAPE   C2516045   3.380   5.876  10.003  0.4170  0.2153  0.8354
  146SAPE   H5R16046   3.291   5.835  10.053  1.8800 -1.2854  2.2702
  146SAPE   C2616047   3.387   5.931   9.882 -0.5498  0.0118 -0.0306
  146SAPE   H6R16048   3.300   5.924   9.815 -0.2408  1.0359 -0.5412
  146SAPE   C2716049   3.517   5.972   9.818  0.1600 -0.2860 -0.1661
  146SAPE   H7R16050   3.588   5.995   9.900  0.2253  0.1152 -0.3324
  146SAPE   H7S16051   3.499   6.070   9.768 -3.8494 -0.0932  1.4897
  146SAPE   C2816052   3.573   5.861   9.733  0.3269  0.3327 -0.5500
  146SAPE   H8R16053   3.633   5.786   9.787  1.7300  0.0632 -2.4143
  146SAPE   C2916054   3.575   5.842   9.599 -0.6202 -0.1043 -0.7938
  146SAPE   H9R16055   3.614   5.745   9.566  2.2318  0.9731 -0.7598
  146SAPE  C21016056   3.506   5.931   9.498 -0.9692  0.2537  0.0978
  146SAPE  H10R16057   3.457   6.017   9.547  1.9866  1.1584  1.6103
  146SAPE  H10S16058   3.423   5.866   9.463 -0.3237 -1.7570  2.1985
  146SAPE  C21116059   3.607   5.968   9.393  0.1245  0.2909 -0.4305
  146SAPE  H11R16060   3.689   6.036   9.421 -0.4203 -0.3627  2.9510
  146SAPE  C21216061   3.597   5.923   9.267 -0.2355 -0.3171  0.0890
  146SAPE  H12R16062   3.663   5.969   9.192 -0.6843  0.2324  0.0305
  146SAPE  C21316063   3.499   5.832   9.208  0.8565  0.4770 -0.4326
  146SAPE  H13R16064   3.466   5.760   9.286  1.4068 -0.2863 -0.8976
  146SAPE  H13S16065   3.544   5.778   9.122  4.2978 -1.4385  2.4197
  146SAPE  C21416066   3.373   5.903   9.154 -0.3685  0.2823  1.1190
  146SAPE  H14R16067   3.291   5.917   9.227 -0.7477  2.3983  0.3326
  146SAPE  C21516068   3.352   5.949   9.026 -0.3499  0.6878  0.2538
  146SAPE  H15R16069   3.262   6.012   9.013  0.3620  1.6333 -0.1419
  146SAPE  C21616070   3.449   5.920   8.908 -0.4143 -0.7652  0.7161
  146SAPE  H16R16071   3.535   5.859   8.942  1.2734 -0.4112 -2.6659
  146SAPE  H16S16072   3.491   6.018   8.876 -0.7240 -1.1789 -1.0124
  146SAPE  C21716073   3.366   5.859   8.793  0.1164  0.2686 -0.2643
  146SAPE  H17R16074   3.270   5.913   8.780 -0.1654  0.1976  1.4230
  146SAPE  H17S16075   3.349   5.756   8.832  3.9684 -1.0439 -1.7724
  146SAPE  C21816076   3.436   5.852   8.662  0.1409 -0.0659 -0.2319
  146SAPE  H18R16077   3.535   5.801   8.667 -0.0918 -0.4145  1.0006
  146SAPE  H18S16078   3.467   5.952   8.626 -1.7545 -0.0374 -1.8751
  146SAPE  C21916079   3.342   5.793   8.557  0.6232  0.0204  0.5994
  146SAPE  H19R16080   3.258   5.739   8.606 -0.3292  1.4587  0.5587
  146SAPE  H19S16081   3.377   5.720   8.482  0.7868  0.7223 -0.0033
  146SAPE  C22016082   3.276   5.908   8.483  0.1489 -0.0511  0.5169
  146SAPE  H20R16083   3.267   5.990   8.558  0.5859 -0.8609  1.4603
  146SAPE  H20S16084   3.176   5.885   8.441  0.5090 -2.2228  0.7871
  146SAPE  H20T16085   3.340   5.933   8.395 -0.2190  0.7942  0.4821
  146SAPE   C3316086   3.912   5.609   9.931 -0.6162  0.7023  0.3375
  146SAPE   H3X16087   4.004   5.548   9.935 -0.8728  0.4188  2.3650
  146SAPE   H3Y16088   3.918   5.706   9.876 -0.6515  0.3214 -0.3427
  146SAPE   C3416089   3.804   5.531   9.847  0.1638 -0.1428 -0.1540
  146SAPE   H4X16090   3.698   5.564   9.858  1.3713  4.1429 -0.3919
  146SAPE   H4Y16091   3.815   5.429   9.888 -0.2951 -1.2464 -2.6785
  146SAPE   C3516092   3.842   5.522   9.702  0.0051 -0.7409 -0.8977
  146SAPE   H5X16093   3.942   5.476   9.692  0.6449  0.2033  0.9873
  146SAPE   H5Y16094   3.845   5.625   9.660 -3.1255 -0.1904  0.0958
  146SAPE   C3616095   3.744   5.437   9.618 -0.1068 -0.0010 -0.0573
  146SAPE   H6X16096   3.647   5.446   9.669 -0.8677  2.2741 -1.8252
  146SAPE   H6Y16097   3.781   5.334   9.635  1.3860  0.3311 -1.1403
  146SAPE   C3716098   3.748   5.480   9.472 -0.0529 -0.1962  0.1081
  146SAPE   H7X16099   3.706   5.582   9.458 -1.1326 -0.5327  0.7914
  146SAPE   H7Y16100   3.679   5.408   9.422 -2.1177 -0.6438  3.4470
  146SAPE   C3816101   3.884   5.474   9.396 -0.3094 -0.1953  0.1550
  146SAPE   H8X16102   3.924   5.373   9.420 -0.0320 -0.2450 -0.5025
  146SAPE   H8Y16103   3.953   5.556   9.423 -0.1777  0.5865 -2.4655
  146SAPE   C3916104   3.873   5.471   9.246  0.1826  0.6595  0.8291
  146SAPE   H9X16105   3.799   5.393   9.220 -0.3118  2.3319 -3.2213
  146SAPE   H9Y16106   3.961   5.428   9.193 -0.7878 -2.2669  1.5342
  146SAPE  C31016107   3.832   5.607   9.190 -0.0598  0.8230  0.0331
  146SAPE  H10X16108   3.897   5.684   9.237  0.5502  0.6377 -0.5164
  146SAPE  H10Y16109   3.729   5.614   9.233  0.1138 -0.8290  0.7351
  146SAPE  C31116110   3.823   5.608   9.040 -0.3150  0.8739  0.5365
  146SAPE  H11X16111   3.735   5.670   9.013 -2.0000 -0.2440  3.2644
  146SAPE  H11Y16112   3.809   5.505   9.000  0.8708  0.7236  0.5011
  146SAPE  C31216113   3.947   5.675   8.986  0.3218 -0.2207 -0.0782
  146SAPE  H12X16114   4.031   5.633   9.044 -0.7928 -0.6866  1.2452
  146SAPE  H12Y16115   3.948   5.784   9.008 -2.1494 -0.2793  0.5001
  146SAPE  C31316116   3.968   5.644   8.837 -0.1253  0.6700  0.1416
  146SAPE  H13X16117   3.882   5.679   8.776  0.5428 -0.6895 -1.6189
  146SAPE  H13Y16118   3.972   5.534   8.820  0.2241  0.5529  0.9836
  146SAPE  C31416119   4.099   5.703   8.797  0.7766 -0.8081 -0.2574
  146SAPE  H14X16120   4.178   5.657   8.860 -0.4690 -2.3055  0.2597
  146SAPE  H14Y16121   4.090   5.812   8.815 -0.3848 -0.4212 -2.9203
  146SAPE  C31516122   4.139   5.691   8.650  0.2225 -0.1725 -0.2373
  146SAPE  H15X16123   4.174   5.790   8.614  0.6747 -0.7203 -1.3130
  146SAPE  H15Y16124   4.051   5.673   8.584 -0.2951  2.2961 -0.2477
  146SAPE  C31616125   4.238   5.584   8.622  0.1668  0.4022  0.2702
  146SAPE  H16X16126   4.210   5.482   8.655  0.9581  0.6386  1.7177
  146SAPE  H16Y16127   4.328   5.598   8.686  1.3105 -0.9430 -1.0080
  146SAPE  C31716128   4.288   5.570   8.478  0.0759 -0.6438 -0.1441
  146SAPE  H17X16129   4.332   5.667   8.447 -0.1166 -0.0597  1.3456
  146SAPE  H17Y16130   4.201   5.542   8.415 -0.4470  1.0135 -0.1845
  146SAPE  C31816131   4.388   5.459   8.468  0.6566  1.0223 -0.0577
  146SAPE  H18X16132   4.452   5.452   8.559 -0.6340  1.7712  0.9351
  146SAPE  H18Y16133   4.465   5.448   8.389  1.5399  1.3333  0.7549
  146SAPE  H18Z16134   4.331   5.364   8.461  0.2376  1.2975 -0.3901
  147SAPE     N16135   1.061   3.307   6.212  0.1838 -0.3146 -0.0688
  147SAPE   HN116136   1.059   3.203   6.205 -2.5862 -0.3243  0.0155
  147SAPE   HN216137   0.980   3.346   6.159  2.1060  1.2799 -1.9048
  147SAPE   HN316138   1.152   3.341   6.175  0.4149 -0.8698 -0.0071
  147SAPE   C1216139   1.044   3.350   6.357  0.6186 -0.3965  0.0877
  147SAPE  H12A16140   1.069   3.457   6.346  0.4076 -0.0378  2.7684
  147SAPE  H12B16141   1.116   3.299   6.425  1.1673  0.2462 -0.0070
  147SAPE   C1116142   0.894   3.332   6.408  0.4062 -0.0637  0.1281
  147SAPE  H11A16143   0.891   3.378   6.509 -2.7256 -1.6294  0.8151
  147SAPE  H11B16144   0.860   3.226   6.405  1.1105 -0.3167  0.9638
  147SAPE     P16145   0.681   3.359   6.256 -0.9763  0.3524  0.1794
  147SAPE   O1316146   0.618   3.469   6.183 -0.7187 -0.3121  0.0295
  147SAPE   O1416147   0.731   3.249   6.173  0.7497  0.4008  0.5638
  147SAPE   O1216148   0.804   3.411   6.330 -0.2768 -0.5360 -0.3244
  147SAPE   O1116149   0.592   3.301   6.371 -0.2345 -0.8129 -0.3561
  147SAPE    C116150   0.546   3.388   6.478 -0.6584 -0.4006 -0.3256
  147SAPE    HA16151   0.557   3.494   6.448 -0.0802 -0.5817 -0.7747
  147SAPE    HB16152   0.436   3.379   6.475 -0.9571  3.1088 -2.0579
  147SAPE    C216153   0.594   3.348   6.617  0.1072  0.3013  0.1538
  147SAPE    HS16154   0.698   3.385   6.627  1.1521 -1.7989 -2.1827
  147SAPE   O2116155   0.600   3.203   6.622 -0.2138 -0.0574  0.3109
  147SAPE   C2116156   0.698   3.149   6.685 -0.0042 -0.4055  0.0363
  147SAPE   O2216157   0.800   3.203   6.731 -0.6915  0.1440 -0.0954
  147SAPE   C2216158   0.680   3.000   6.686 -0.1621  0.0858  0.2114
  147SAPE   H2R16159   0.574   2.980   6.712 -0.9554  4.9604  1.1209
  147SAPE   H2S16160   0.699   2.960   6.584  2.1817 -0.4751  0.8325
  147SAPE    C316161   0.495   3.396   6.727  0.0618  0.0595  0.5242
  147SAPE    HX16162   0.403   3.337   6.708 -0.4774  1.8245 -2.5966
  147SAPE    HY16163   0.472   3.503   6.709  0.6304 -0.0610 -0.9288
  147SAPE   O3116164   0.544   3.376   6.859 -0.0818 -0.5292 -0.0529
  147SAPE   C3116165   0.637   3.464   6.896 -0.6349  0.1304 -0.0466
  147SAPE   O3216166   0.679   3.563   6.833  0.3752  0.1174  0.3876
  147SAPE   C3216167   0.689   3.436   7.034 -0.4105  0.1753  0.2422
  147SAPE   H2X16168   0.749   3.343   7.024 -1.5446 -0.9155  2.9964
  147SAPE   H2Y16169   0.596   3.428   7.095  0.5152  0.7204  1.7529
  147SAPE   C2316170   0.782   2.916   6.769 -0.5455  0.2372  0.6179
  147SAPE   H3R16171   0.786   2.953   6.873 -0.5221 -2.5351  1.6296
  147SAPE   H3S16172   0.881   2.938   6.725 -1.0730 -2.7186 -2.2662
  147SAPE   C2416173   0.755   2.765   6.789  0.3044 -0.4178  0.4304
  147SAPE   H4R16174   0.735   2.724   6.688  1.4119 -0.8535  0.3865
  147SAPE   H4S16175   0.661   2.751   6.847 -0.8328  0.2004 -1.2506
  147SAPE   C2516176   0.882   2.711   6.849  0.1463 -0.7908  0.2571
  147SAPE   H5R16177   0.968   2.739   6.786 -2.3227  1.0074 -2.4600
  147SAPE   C2616178   0.887   2.646   6.965  0.3666 -0.1151  1.0114
  147SAPE   H6R16179   0.983   2.613   7.007 -0.0815 -3.7315 -0.5755
  147SAPE   C2716180   0.766   2.609   7.048  0.2860  0.0581  0.4247
  147SAPE   H7R16181   0.697   2.554   6.981  2.4202 -0.3038 -1.5514
  147SAPE   H7S16182   0.716   2.705   7.072  2.4494  1.2842  0.1415
  147SAPE   C2816183   0.806   2.520   7.167  0.3139 -0.4906  1.1061
  147SAPE   H8R16184   0.900   2.464   7.163  1.2695  1.1805 -0.8888
  147SAPE   C2916185   0.730   2.508   7.275 -0.6647  0.3798  0.6946
  147SAPE   H9R16186   0.766   2.454   7.364  0.2730 -0.1198  0.0098
  147SAPE  C21016187   0.599   2.579   7.298  0.4465 -0.0275  0.0255
  147SAPE  H10R16188   0.562   2.632   7.208 -0.4813 -0.2891  0.2439
  147SAPE  H10S16189   0.606   2.659   7.375  1.9589  1.6810 -1.8368
  147SAPE  C21116190   0.501   2.479   7.355 -0.0410 -0.2446  0.2849
  147SAPE  H11R16191   0.525   2.375   7.326  1.3513  0.8153 -2.5672
  147SAPE  C21216192   0.378   2.504   7.407 -0.3689 -0.4479  0.0377
  147SAPE  H12R16193   0.313   2.420   7.438  0.4493 -0.2018  2.5151
  147SAPE  C21316194   0.318   2.652   7.418 -0.2594  0.4148 -0.0921
  147SAPE  H13R16195   0.284   2.689   7.319  0.3534  0.0687 -0.4350
  147SAPE  H13S16196   0.394   2.728   7.448 -0.6708  0.5462  0.6549
  147SAPE  C21416197   0.211   2.666   7.517 -0.6561  0.4163  0.2372
  147SAPE  H14R16198   0.136   2.585   7.516  0.4267 -0.6115  1.6993
  147SAPE  C21516199   0.207   2.756   7.616 -0.2992 -0.0491  0.1923
  147SAPE  H15R16200   0.118   2.752   7.681  0.6294  1.4939  1.6153
  147SAPE  C21616201   0.297   2.873   7.646 -0.0175  0.1531 -0.4662
  147SAPE  H16R16202   0.400   2.871   7.604  0.9130  1.0835  1.6579
  147SAPE  H16S16203   0.306   2.887   7.756  1.1842  0.5230 -0.6051
  147SAPE  C21716204   0.236   3.010   7.603 -0.1222  1.0025  0.0128
  147SAPE  H17R16205   0.309   3.093   7.615 -2.0210  2.5119  1.4887
  147SAPE  H17S16206   0.144   3.043   7.656  0.6144  3.3588 -0.0957
  147SAPE  C21816207   0.200   3.016   7.457  0.1654 -0.8569  0.5346
  147SAPE  H18R16208   0.128   2.940   7.421  0.0829  0.6107 -2.5794
  147SAPE  H18S16209   0.294   2.995   7.401  0.1523 -0.8303  0.5031
  147SAPE  C21916210   0.136   3.153   7.426 -0.4429 -0.1896  0.4938
  147SAPE  H19R16211   0.198   3.228   7.478  0.7015 -1.3827  0.8681
  147SAPE  H19S16212   0.027   3.152   7.450 -1.2029 -0.0448 -2.6316
  147SAPE  C22016213   0.150   3.177   7.272  0.4947  0.7662  0.9584
  147SAPE  H20R16214   0.104   3.272   7.240 -2.3766 -1.0558 -0.4821
  147SAPE  H20S16215   0.080   3.104   7.226  2.5912 -0.3238 -0.6232
  147SAPE  H20T16216   0.253   3.156   7.234 -0.2192  0.3791 -0.8155
  147SAPE   C3316217   0.777   3.548   7.086 -0.1031  0.8261  0.3992
  147SAPE   H3X16218   0.702   3.628   7.102  0.1878  1.7484 -2.5753
  147SAPE   H3Y16219   0.860   3.586   7.024  0.1109  0.6605  0.5803
  147SAPE   C3416220   0.820   3.516   7.227  0.0701 -0.8895 -0.6679
  147SAPE   H4X16221   0.889   3.429   7.228  0.6020 -0.5456 -3.6219
  147SAPE   H4Y16222   0.737   3.483   7.293 -0.8514 -1.8934 -2.2949
  147SAPE   C3516223   0.898   3.634   7.278 -0.3187  0.2131 -0.2074
  147SAPE   H5X16224   0.837   3.701   7.342  0.2534 -0.2728  0.8437
  147SAPE   H5Y16225   0.939   3.691   7.191 -3.0530 -1.3958 -2.6356
  147SAPE   C3616226   1.021   3.594   7.352 -0.5494  0.3317  0.3781
  147SAPE   H6X16227   1.084   3.685   7.354  0.6305 -0.4897  1.3718
  147SAPE   H6Y16228   1.059   3.512   7.286  1.3476  0.3611  1.4047
  147SAPE   C3716229   0.994   3.549   7.501 -0.4153  0.6539 -0.1911
  147SAPE   H7X16230   1.095   3.549   7.548 -0.9541 -0.8862  0.9972
  147SAPE   H7Y16231   0.954   3.446   7.508  1.0527  0.0172 -0.9203
  147SAPE   C3816232   0.893   3.638   7.583  0.3723  0.1432 -0.2810
  147SAPE   H8X16233   0.787   3.634   7.550 -0.8247  0.7055  3.3473
  147SAPE   H8Y16234   0.934   3.740   7.568 -0.0128  0.1604 -1.2889
  147SAPE   C3916235   0.898   3.589   7.725  0.2056 -0.1971  0.4749
  147SAPE   H9X16236   1.002   3.588   7.766 -0.2944 -1.6062  1.7496
  147SAPE   H9Y16237   0.844   3.492   7.729  2.2614 -1.4356 -0.9388
  147SAPE  C31016238   0.810   3.692   7.805  1.0350 -0.7281  0.4570
  147SAPE  H10X16239   0.706   3.686   7.767 -1.2358 -1.2797  6.1933
  147SAPE  H10Y16240   0.846   3.797   7.794 -0.7233  0.1368  2.4128
  147SAPE  C31116241   0.802   3.665   7.953  0.5007  1.0254 -0.0988
  147SAPE  H11X16242   0.748   3.749   8.002 -1.2897 -0.7955  1.1238
  147SAPE  H11Y16243   0.905   3.672   7.995 -0.0820 -1.2455  1.8467
  147SAPE  C31216244   0.737   3.537   7.999  0.0648  0.3305 -0.8120
  147SAPE  H12X16245   0.786   3.452   7.948 -1.5752 -0.4396 -1.1427
  147SAPE  H12Y16246   0.629   3.542   7.974 -0.2296 -2.3498 -0.2288
  147SAPE  C31316247   0.736   3.512   8.157 -0.4249 -0.3165  0.2467
  147SAPE  H13X16248   0.682   3.600   8.198 -0.3963 -0.6047  0.9123
  147SAPE  H13Y16249   0.843   3.505   8.189 -0.8600 -3.5824  1.1138
  147SAPE  C31416250   0.647   3.392   8.189 -0.2085 -0.6782 -0.4382
  147SAPE  H14X16251   0.716   3.306   8.190  0.7261  0.0580 -0.2886
  147SAPE  H14Y16252   0.576   3.378   8.105 -0.5559 -0.2391 -0.2250
  147SAPE  C31516253   0.581   3.395   8.323  0.1550 -0.3224  0.6754
  147SAPE  H15X16254   0.541   3.496   8.347 -0.3603  0.0409 -1.6565
  147SAPE  H15Y16255   0.652   3.384   8.408  0.7013 -1.1922  0.1179
  147SAPE  C31616256   0.477   3.283   8.337  0.7508  0.1181 -0.1101
  147SAPE  H16X16257   0.521   3.185   8.306  0.3048 -0.1988  0.2505
  147SAPE  H16Y16258   0.403   3.303   8.256  0.8048 -0.8182 -0.4001
  147SAPE  C31716259   0.413   3.264   8.472 -0.1840 -0.4002 -0.1211
  147SAPE  H17X16260   0.492   3.245   8.548  0.9980 -0.6631 -1.3976
  147SAPE  H17Y16261   0.345   3.177   8.464 -1.5864  0.8255 -2.1397
  147SAPE  C31816262   0.314   3.380   8.503  0.0478 -0.0125 -0.1110
  147SAPE  H18X16263   0.288   3.384   8.611  1.2328 -2.1796  0.2840
  147SAPE  H18Y16264   0.216   3.365   8.453  0.3856  1.1731 -1.1555
  147SAPE  H18Z16265   0.348   3.480   8.468  2.7539 -0.6382  0.5987
  148SAPE     N16266   0.421   1.114   6.721  0.0327  0.1612  0.2210
  148SAPE   HN116267   0.473   1.197   6.686 -0.6607  0.9034  0.9247
  148SAPE   HN216268   0.451   1.093   6.818  0.9330  1.7626  0.3123
  148SAPE   HN316269   0.464   1.040   6.662 -0.5258 -0.8380  1.0532
  148SAPE   C1216270   0.274   1.119   6.713  0.7423 -0.1037  0.2598
  148SAPE  H12A16271   0.249   1.152   6.610  1.3493  2.0009  0.7470
  148SAPE  H12B16272   0.227   1.201   6.772 -0.0957 -0.1730 -0.3103
  148SAPE   C1116273   0.215   0.984   6.733  0.6250  0.2565 -0.3933
  148SAPE  H11A16274   0.232   0.953   6.839 -1.6177 -1.5224 -0.5114
  148SAPE  H11B16275   0.271   0.906   6.678  0.4886 -0.1997  0.1028
  148SAPE     P16276  -0.039   1.080   6.746  0.0886  0.5015 -0.2411
  148SAPE   O1316277  -0.045   1.198   6.666  0.3562  0.0967 -0.0991
  148SAPE   O1416278  -0.165   1.005   6.766  0.2316  0.4249 -0.2547
  148SAPE   O1216279   0.074   0.983   6.694 -0.1665  0.2805  0.5633
  148SAPE   O1116280   0.015   1.129   6.887  0.3168 -0.3163  0.1986
  148SAPE    C116281   0.001   1.044   7.002  0.5903 -0.5802  0.0494
  148SAPE    HA16282  -0.102   1.005   7.014  0.7133 -0.5288  1.3071
  148SAPE    HB16283   0.071   0.959   6.989  1.3375  0.0527 -0.1300
  148SAPE    C216284   0.045   1.125   7.128 -0.1749 -0.0802 -0.1029
  148SAPE    HS16285   0.150   1.156   7.111 -0.0745 -1.2671 -1.7689
  148SAPE   O2116286   0.031   1.042   7.244  0.6038 -0.4621  0.3250
  148SAPE   C2116287   0.110   1.067   7.345  0.5191  1.0647 -0.0028
  148SAPE   O2216288   0.192   1.161   7.355  0.3318 -0.1390 -0.1917
  148SAPE   C2216289   0.092   0.950   7.445 -0.2089 -0.0432 -0.4380
  148SAPE   H2R16290  -0.017   0.931   7.457 -0.1732  2.1404  4.0675
  148SAPE   H2S16291   0.137   0.856   7.405  0.4421 -0.7407  1.8427
  148SAPE    C316292  -0.051   1.244   7.138 -0.2070  0.8042  0.0295
  148SAPE    HX16293  -0.154   1.203   7.142 -0.4787  1.3004 -1.6224
  148SAPE    HY16294  -0.047   1.301   7.043  1.4395  3.1840  1.4639
  148SAPE   O3116295  -0.019   1.328   7.250  0.9296  0.0231 -0.2275
  148SAPE   C3116296  -0.097   1.436   7.245 -0.4808  0.0622 -0.2422
  148SAPE   O3216297  -0.179   1.456   7.155 -0.2026 -0.2827 -0.0563
  148SAPE   C3216298  -0.075   1.531   7.367  0.0034  0.2271  0.4607
  148SAPE   H2X16299  -0.176   1.569   7.392  0.7107  2.4486  0.0263
  148SAPE   H2Y16300  -0.017   1.619   7.333 -3.7086  1.7861 -2.1199
  148SAPE   C2316301   0.144   0.974   7.589  0.0630  0.2080 -0.2261
  148SAPE   H3R16302   0.109   1.074   7.623 -1.7260 -0.5739  0.3037
  148SAPE   H3S16303   0.255   0.973   7.581  0.1749 -1.4403  1.0740
  148SAPE   C2416304   0.095   0.880   7.706  0.7775 -0.4167 -0.1443
  148SAPE   H4R16305  -0.014   0.888   7.726  0.5161 -0.2425 -1.5848
  148SAPE   H4S16306   0.139   0.917   7.801 -0.2050  0.1524  0.1016
  148SAPE   C2516307   0.122   0.736   7.697 -0.0235  0.1145 -0.3321
  148SAPE   H5R16308   0.138   0.712   7.591  1.8470 -0.0972 -0.0150
  148SAPE   C2616309   0.136   0.649   7.800 -0.5897 -0.1482  0.6337
  148SAPE   H6R16310   0.142   0.544   7.769  2.4443 -0.2490  1.4660
  148SAPE   C2716311   0.140   0.683   7.949 -0.2602 -0.4866 -0.3347
  148SAPE   H7R16312   0.112   0.587   7.997 -0.4488  0.0926  0.7278
  148SAPE   H7S16313   0.047   0.736   7.977 -0.4793 -1.6106  1.1612
  148SAPE   C2816314   0.260   0.742   8.022  0.0965  0.1192  0.1556
  148SAPE   H8R16315   0.297   0.828   7.966  1.8237 -0.6095  0.1475
  148SAPE   C2916316   0.328   0.697   8.128  0.3507 -0.3049  0.8890
  148SAPE   H9R16317   0.421   0.745   8.163 -0.1544  1.5681 -0.2771
  148SAPE  C21016318   0.299   0.580   8.221  1.0590 -0.3484  0.4063
  148SAPE  H10R16319   0.381   0.575   8.296  0.7432  0.6095  0.8237
  148SAPE  H10S16320   0.317   0.496   8.151  0.6832  1.4410 -1.9236
  148SAPE  C21116321   0.170   0.576   8.299 -0.1811  0.0515  0.2608
  148SAPE  H11R16322   0.076   0.593   8.245 -0.5254 -0.5936  0.6598
  148SAPE  C21216323   0.173   0.563   8.434  0.5310 -0.1323  0.8659
  148SAPE  H12R16324   0.080   0.545   8.490  0.2115  0.4337  0.5144
  148SAPE  C21316325   0.296   0.542   8.518  0.0169  0.1329 -0.8391
  148SAPE  H13R16326   0.368   0.472   8.469  0.8094  1.5657 -1.7659
  148SAPE  H13S16327   0.267   0.482   8.607 -0.7283  0.5188 -0.8238
  148SAPE  C21416328   0.352   0.678   8.543 -0.5684  0.3197  0.4691
  148SAPE  H14R16329   0.392   0.725   8.452 -1.9999 -0.5841 -0.6347
  148SAPE  C21516330   0.385   0.743   8.661 -0.3174  0.7981 -0.1343
  148SAPE  H15R16331   0.444   0.835   8.647  1.2323  0.3574  2.9655
  148SAPE  C21616332   0.356   0.703   8.806  0.0374  0.9495  0.1801
  148SAPE  H16R16333   0.346   0.794   8.868 -0.2863  2.9219 -2.6985
  148SAPE  H16S16334   0.442   0.644   8.844  0.2024  2.3578  2.0383
  148SAPE  C21716335   0.231   0.621   8.826  0.2266 -0.7433  0.4707
  148SAPE  H17R16336   0.265   0.517   8.810  0.5653 -0.9196  2.2333
  148SAPE  H17S16337   0.150   0.635   8.751 -0.3086  0.0116  1.1663
  148SAPE  C21816338   0.158   0.643   8.964 -0.5711  0.0973  0.4101
  148SAPE  H18R16339   0.109   0.742   8.964 -0.6563  0.0615  1.8070
  148SAPE  H18S16340   0.236   0.647   9.043  0.6721  1.2167 -0.8581
  148SAPE  C21916341   0.062   0.530   8.997  0.0723  0.4857 -0.8127
  148SAPE  H19R16342   0.023   0.555   9.098  1.7045  0.8543 -0.2562
  148SAPE  H19S16343   0.119   0.437   9.020 -3.4107 -1.6054 -0.2514
  148SAPE  C22016344  -0.061   0.513   8.900  0.3102 -0.3771 -0.4736
  148SAPE  H20R16345  -0.118   0.605   8.879 -1.0834 -1.1076  0.0540
  148SAPE  H20S16346  -0.133   0.445   8.951 -2.3358  1.7852 -1.2779
  148SAPE  H20T16347  -0.034   0.457   8.808 -1.2682 -0.2703 -1.0154
  148SAPE   C3316348  -0.011   1.477   7.499  0.5187 -0.0202 -0.2920
  148SAPE   H3X16349   0.032   1.568   7.547  0.0029 -0.8103  1.7106
  148SAPE   H3Y16350   0.071   1.409   7.465 -1.1734 -1.9695 -0.5612
  148SAPE   C3416351  -0.116   1.420   7.601 -0.1837 -0.0977  0.0816
  148SAPE   H4X16352  -0.149   1.327   7.550  0.1978 -0.2355  0.0866
  148SAPE   H4Y16353  -0.204   1.487   7.587 -1.4308 -1.6683  0.2923
  148SAPE   C3516354  -0.077   1.417   7.746  0.2996  0.1976 -0.5872
  148SAPE   H5X16355  -0.177   1.442   7.787  0.6587  0.9193 -0.1325
  148SAPE   H5Y16356  -0.002   1.494   7.775 -0.2229  0.5113 -0.0330
  148SAPE   C3616357  -0.019   1.283   7.797  0.3729  0.4264 -0.0725
  148SAPE   H6X16358   0.074   1.255   7.743 -0.1453  1.6505 -1.6226
  148SAPE   H6Y16359  -0.098   1.209   7.772  1.7453 -0.8296 -0.7961
  148SAPE   C3716360  -0.020   1.279   7.955  0.1999  0.3582  0.2834
  148SAPE   H7X16361  -0.117   1.300   8.006 -0.0159 -1.3670  0.6121
  148SAPE   H7Y16362   0.052   1.353   7.995 -0.6225  1.6029 -0.4870
  148SAPE   C3816363   0.029   1.143   7.997  0.4189  0.1998 -0.5571
  148SAPE   H8X16364   0.136   1.129   7.969  1.0799  1.0546  1.4564
  148SAPE   H8Y16365  -0.026   1.063   7.943 -3.4518  2.2002  0.2462
  148SAPE   C3916366   0.028   1.105   8.145  0.2950 -0.1839  0.2223
  148SAPE   H9X16367   0.060   1.000   8.164  2.3465  0.8043  2.5811
  148SAPE   H9Y16368  -0.076   1.115   8.182 -0.1252 -1.2613 -0.6215
  148SAPE  C31016369   0.119   1.193   8.230  0.1180 -0.0658 -0.6303
  148SAPE  H10X16370   0.095   1.297   8.199 -0.8029  0.0916  0.5897
  148SAPE  H10Y16371   0.226   1.179   8.203  0.2387 -0.3695 -0.0184
  148SAPE  C31116372   0.114   1.160   8.380 -0.1498 -0.2386  0.0299
  148SAPE  H11X16373   0.011   1.188   8.413 -0.8047 -3.4775  0.8783
  148SAPE  H11Y16374   0.189   1.213   8.443  0.7135 -2.2158  0.6978
  148SAPE  C31216375   0.129   1.009   8.405 -0.3844  0.4206  0.3451
  148SAPE  H12X16376   0.208   0.952   8.354  1.0064  2.2406  0.4094
  148SAPE  H12Y16377   0.037   0.969   8.358  1.3028 -1.5933 -1.3121
  148SAPE  C31316378   0.120   0.964   8.549 -0.6458 -0.0914  0.3923
  148SAPE  H13X16379   0.213   1.002   8.597 -0.0507 -1.0988  0.0423
  148SAPE  H13Y16380   0.128   0.853   8.547  0.4854  0.0007 -2.1251
  148SAPE  C31416381   0.005   1.019   8.637  0.6367 -0.0164  0.4626
  148SAPE  H14X16382  -0.093   0.982   8.600  0.8796 -0.6136  0.4108
  148SAPE  H14Y16383   0.008   1.130   8.628 -3.0036  0.1909  1.0984
  148SAPE  C31516384   0.010   0.977   8.786 -0.1612 -0.8470  0.1414
  148SAPE  H15X16385   0.102   1.001   8.842 -0.3516 -1.1122  0.5668
  148SAPE  H15Y16386  -0.023   0.872   8.800  0.6426 -1.1114  0.0200
  148SAPE  C31616387  -0.092   1.058   8.865  0.2944  0.2804  0.8219
  148SAPE  H16X16388  -0.188   1.058   8.808  0.8637 -0.3882 -0.1511
  148SAPE  H16Y16389  -0.065   1.165   8.876  1.3202  0.0948  0.2085
  148SAPE  C31716390  -0.113   1.007   9.007  0.5893 -0.1748  0.1793
  148SAPE  H17X16391  -0.012   1.009   9.055  1.4274 -0.6110 -1.5138
  148SAPE  H17Y16392  -0.147   0.902   8.997 -0.3604  0.0123  1.3619
  148SAPE  C31816393  -0.208   1.089   9.091  0.4143  0.5872 -0.3488
  148SAPE  H18X16394  -0.314   1.088   9.060  0.3091 -2.1254 -0.0478
  148SAPE  H18Y16395  -0.178   1.196   9.088 -0.0555  0.7977  1.7257
  148SAPE  H18Z16396  -0.195   1.070   9.200  2.4578  0.2966 -0.6296
  149SAPE     N16397   6.119   1.969   6.395  0.2230 -0.1410 -0.3155
  149SAPE   HN116398   6.175   2.053   6.417  1.4184 -0.7368 -1.0265
  149SAPE   HN216399   6.025   2.008   6.372  0.3950 -0.1371 -1.0340
  149SAPE   HN316400   6.109   1.911   6.480  0.6010  1.2765  0.7017
  149SAPE   C1216401   6.177   1.880   6.281  0.4496  0.2932  0.7868
  149SAPE  H12A16402   6.145   1.913   6.180  2.6879  1.9369  0.5696
  149SAPE  H12B16403   6.146   1.777   6.308 -0.9515  0.9014  1.5494
  149SAPE   C1116404   6.328   1.888   6.277  0.6171  0.9962  0.0975
  149SAPE  H11A16405   6.365   1.983   6.233 -2.1748  2.2742  0.4506
  149SAPE  H11B16406   6.362   1.806   6.210  0.5640  0.3996  0.7950
  149SAPE     P16407   6.542   1.853   6.424  0.1690 -0.0855 -0.5090
  149SAPE   O1316408   6.566   1.760   6.542  0.1377 -0.4447  0.7413
  149SAPE   O1416409   6.596   1.817   6.290  0.4998 -0.0383 -0.3113
  149SAPE   O1216410   6.388   1.874   6.408  0.1070 -0.4441  0.1442
  149SAPE   O1116411   6.582   2.001   6.449 -0.0677  0.0581 -0.3201
  149SAPE    C116412   6.654   2.033   6.574  0.2548  0.3403  0.1687
  149SAPE    HA16413   6.734   1.959   6.595 -0.0733 -0.0946 -0.1163
  149SAPE    HB16414   6.697   2.135   6.581 -0.7679  0.8368 -0.7035
  149SAPE    C216415   6.553   2.040   6.697 -0.6394 -0.4402  0.1005
  149SAPE    HS16416   6.453   2.024   6.651 -0.3409 -0.2207 -0.6358
  149SAPE   O2116417   6.558   2.170   6.762 -0.3054 -0.2468  0.5668
  149SAPE   C2116418   6.515   2.279   6.699 -0.2444 -0.4844  0.3553
  149SAPE   O2216419   6.458   2.278   6.592 -0.8666 -0.7714  0.0473
  149SAPE   C2216420   6.564   2.407   6.769 -0.4560 -0.2819  0.1322
  149SAPE   H2R16421   6.675   2.407   6.771 -0.4690  1.1151  0.9105
  149SAPE   H2S16422   6.521   2.495   6.717  2.9921  1.3988  0.0055
  149SAPE    C316423   6.578   1.931   6.802  0.2675  0.8816 -0.1938
  149SAPE    HX16424   6.681   1.945   6.842  0.3687 -2.0277  0.6393
  149SAPE    HY16425   6.569   1.836   6.745  2.4329  0.4752  0.0930
  149SAPE   O3116426   6.476   1.921   6.906  0.1179 -0.2990  0.3998
  149SAPE   C3116427   6.502   1.872   7.030 -0.3556 -0.2549 -0.0536
  149SAPE   O3216428   6.618   1.840   7.063 -0.0158  0.1857  0.2039
  149SAPE   C3216429   6.372   1.866   7.120 -0.4002 -0.2186 -0.2076
  149SAPE   H2X16430   6.284   1.872   7.052 -1.0540  2.6019  0.8091
  149SAPE   H2Y16431   6.364   1.958   7.181 -1.6626  1.4178 -2.7726
  149SAPE   C2316432   6.515   2.404   6.915  0.2726 -0.4599  0.7068
  149SAPE   H3R16433   6.603   2.451   6.965  0.0487 -1.2434  1.8522
  149SAPE   H3S16434   6.504   2.303   6.960 -1.0480 -1.8334 -2.5749
  149SAPE   C2416435   6.393   2.490   6.938  0.7455 -0.0111 -0.1425
  149SAPE   H4R16436   6.397   2.575   6.867  0.4945  0.5039  0.4553
  149SAPE   H4S16437   6.397   2.550   7.032  0.5558  3.0205 -1.9944
  149SAPE   C2516438   6.263   2.427   6.918  0.2553 -0.0758 -0.3146
  149SAPE   H5R16439   6.216   2.430   6.818  0.0967  2.5503 -0.2020
  149SAPE   C2616440   6.192   2.361   7.011  0.0963  0.4860  0.2942
  149SAPE   H6R16441   6.099   2.312   6.978 -0.2703  0.6261  1.0987
  149SAPE   C2716442   6.236   2.332   7.154 -0.2377  0.5514  0.5631
  149SAPE   H7R16443   6.168   2.379   7.228  1.4758  0.1873  2.4300
  149SAPE   H7S16444   6.337   2.374   7.177  0.1895 -0.9770  1.5842
  149SAPE   C2816445   6.220   2.185   7.188  0.8224  0.0960 -0.5858
  149SAPE   H8R16446   6.211   2.112   7.107  0.2856 -0.3343 -0.1467
  149SAPE   C2916447   6.203   2.130   7.314  0.1664 -0.2887 -0.1356
  149SAPE   H9R16448   6.200   2.020   7.324 -0.2265 -0.3114 -0.4967
  149SAPE  C21016449   6.202   2.204   7.445 -0.5498 -0.1289  0.4834
  149SAPE  H10R16450   6.152   2.302   7.425 -0.0390 -0.6936 -4.2064
  149SAPE  H10S16451   6.308   2.232   7.462 -0.3740 -1.0761  0.9872
  149SAPE  C21116452   6.141   2.124   7.551  0.1437 -0.3234  0.0878
  149SAPE  H11R16453   6.032   2.112   7.541 -0.0295  2.5979 -2.5192
  149SAPE  C21216454   6.196   2.052   7.647  0.0182  0.7391  0.1071
  149SAPE  H12R16455   6.141   2.011   7.734  3.7472  1.3463  2.9070
  149SAPE  C21316456   6.345   2.046   7.678 -0.3340  0.1242  0.3230
  149SAPE  H13R16457   6.357   2.069   7.786 -0.9023  1.0601  0.1965
  149SAPE  H13S16458   6.403   2.124   7.626  1.7224 -1.7767 -0.3110
  149SAPE  C21416459   6.392   1.904   7.638  0.6565 -0.7868 -0.0652
  149SAPE  H14R16460   6.347   1.859   7.548  0.5483 -1.4655  0.3316
  149SAPE  C21516461   6.496   1.826   7.685 -0.3378 -0.2724 -0.2475
  149SAPE  H15R16462   6.505   1.727   7.637  1.7897  1.0623 -2.6890
  149SAPE  C21616463   6.597   1.871   7.792  0.2880  0.0446  0.6371
  149SAPE  H16R16464   6.595   1.981   7.811  1.7235  0.2358 -0.2023
  149SAPE  H16S16465   6.702   1.838   7.780  0.2288 -0.1440  0.6293
  149SAPE  C21716466   6.557   1.793   7.926 -0.2718 -0.0898  0.7122
  149SAPE  H17R16467   6.549   1.686   7.899  0.4652  0.4814 -1.8740
  149SAPE  H17S16468   6.460   1.830   7.965 -1.3763 -0.0931 -1.9616
  149SAPE  C21816469   6.663   1.818   8.030  0.0173 -0.0316 -0.6694
  149SAPE  H18R16470   6.667   1.927   8.050  0.6556 -0.5561  2.1978
  149SAPE  H18S16471   6.764   1.800   7.986  0.0530 -1.3626 -0.0753
  149SAPE  C21916472   6.646   1.727   8.147 -0.5800 -0.1373  0.2788
  149SAPE  H19R16473   6.551   1.672   8.130 -0.9000  0.6064 -0.3401
  149SAPE  H19S16474   6.621   1.776   8.243  0.4570 -2.2420  1.6795
  149SAPE  C22016475   6.753   1.621   8.166 -0.2001 -0.1022  0.8803
  149SAPE  H20R16476   6.781   1.572   8.070  0.9203  2.3417 -0.0818
  149SAPE  H20S16477   6.721   1.538   8.232 -0.5432 -1.1900 -0.6276
  149SAPE  H20T16478   6.846   1.665   8.209 -0.7527  3.9184 -1.7627
  149SAPE   C3316479   6.386   1.758   7.217 -0.6214 -0.4095 -0.5183
  149SAPE   H3X16480   6.467   1.778   7.290 -0.7849  1.6767 -0.8662
  149SAPE   H3Y16481   6.409   1.662   7.167 -1.1564 -0.9427  0.2456
  149SAPE   C3416482   6.256   1.711   7.282  1.1468 -0.4893 -0.1288
  149SAPE   H4X16483   6.185   1.672   7.205 -0.3279  0.9197  0.4739
  149SAPE   H4Y16484   6.219   1.799   7.340  1.3102 -1.3171  1.2447
  149SAPE   C3516485   6.276   1.594   7.375 -0.5605 -0.1141  0.1753
  149SAPE   H5X16486   6.345   1.623   7.457 -1.1193 -1.1885  1.0513
  149SAPE   H5Y16487   6.318   1.510   7.316  2.2050  1.0765  0.4110
  149SAPE   C3616488   6.143   1.537   7.435 -0.2469 -0.2344  0.5137
  149SAPE   H6X16489   6.074   1.487   7.365 -0.1459  0.3122  0.0209
  149SAPE   H6Y16490   6.092   1.629   7.470 -1.4736 -0.1601 -1.4081
  149SAPE   C3716491   6.156   1.446   7.556 -0.2659 -1.0394 -0.1378
  149SAPE   H7X16492   6.165   1.339   7.525 -1.8356 -1.3531  0.4246
  149SAPE   H7Y16493   6.055   1.456   7.602 -0.5784 -0.0703 -1.0067
  149SAPE   C3816494   6.251   1.484   7.669  0.0412 -0.1349 -0.2296
  149SAPE   H8X16495   6.243   1.592   7.694 -1.8413 -0.5482  1.0794
  149SAPE   H8Y16496   6.355   1.481   7.631  0.0737  1.7836 -0.3563
  149SAPE   C3916497   6.224   1.396   7.788 -0.5428 -0.1463 -0.4813
  149SAPE   H9X16498   6.207   1.291   7.756  3.3028 -0.9250 -0.2467
  149SAPE   H9Y16499   6.126   1.429   7.827 -0.3487 -0.6825  0.4867
  149SAPE  C31016500   6.341   1.402   7.888  0.1785  0.2145  1.1024
  149SAPE  H10X16501   6.368   1.510   7.900  2.5952 -0.0215 -1.7488
  149SAPE  H10Y16502   6.427   1.357   7.834 -1.4103 -1.6154  0.0392
  149SAPE  C31116503   6.301   1.333   8.015 -0.1697 -0.8177  0.3123
  149SAPE  H11X16504   6.273   1.228   7.995  0.9868 -1.2312  0.8418
  149SAPE  H11Y16505   6.215   1.384   8.063 -0.4883  0.5122 -1.5837
  149SAPE  C31216506   6.413   1.326   8.122 -0.2406  0.4733 -0.1315
  149SAPE  H12X16507   6.468   1.422   8.115 -0.5960  0.5860 -1.5934
  149SAPE  H12Y16508   6.479   1.242   8.091  2.5396  2.0064  1.4333
  149SAPE  C31316509   6.365   1.316   8.266 -0.3831 -0.0119 -0.4976
  149SAPE  H13X16510   6.316   1.217   8.272  2.2184 -1.3904 -1.1280
  149SAPE  H13Y16511   6.287   1.390   8.292 -0.7031 -0.9413  1.2187
  149SAPE  C31416512   6.481   1.329   8.377 -0.1549 -0.4181 -0.0551
  149SAPE  H14X16513   6.518   1.433   8.374  0.3678 -0.6063 -0.3349
  149SAPE  H14Y16514   6.566   1.263   8.347  0.4333 -0.2203  1.1561
  149SAPE  C31516515   6.440   1.312   8.519  0.1612  0.2566 -0.0751
  149SAPE  H15X16516   6.355   1.380   8.543 -0.3005 -1.0861  2.2283
  149SAPE  H15Y16517   6.523   1.343   8.586  1.7633  0.0161 -1.9056
  149SAPE  C31616518   6.409   1.170   8.555 -0.3738  0.4041 -0.2283
  149SAPE  H16X16519   6.492   1.099   8.533  0.3717  1.0153  0.5550
  149SAPE  H16Y16520   6.325   1.139   8.489 -0.6973  0.3002  0.2321
  149SAPE  C31716521   6.363   1.149   8.699  0.3961 -0.0020  0.0912
  149SAPE  H17X16522   6.261   1.195   8.694 -0.2134 -1.3739 -0.4198
  149SAPE  H17Y16523   6.422   1.207   8.773  0.3570  0.2628 -0.0805
  149SAPE  C31816524   6.349   1.001   8.741 -0.0338 -0.2797  0.5084
  149SAPE  H18X16525   6.266   0.958   8.681 -0.0756  1.9211 -1.0898
  149SAPE  H18Y16526   6.298   1.005   8.840  0.4527 -1.2519  0.7926
  149SAPE  H18Z16527   6.440   0.938   8.739 -0.8964 -1.5644  1.1503
  150SAPE     N16528   5.492   3.121   6.184 -0.0353  1.1085  0.3507
  150SAPE   HN116529   5.450   3.202   6.234  1.2760  0.2525  2.9771
  150SAPE   HN216530   5.557   3.152   6.109 -0.5510 -0.9491 -0.9839
  150SAPE   HN316531   5.423   3.058   6.139  0.3546 -0.4505  1.8605
  150SAPE   C1216532   5.567   3.057   6.291  0.7897 -0.4757  0.2288
  150SAPE  H12A16533   5.633   3.138   6.329 -2.7075  0.5072  4.7849
  150SAPE  H12B16534   5.625   2.974   6.248 -0.1631 -0.4728 -1.1021
  150SAPE   C1116535   5.475   3.013   6.411 -1.0761  0.1782  0.2948
  150SAPE  H11A16536   5.535   2.973   6.496 -0.6274  0.6494  0.1981
  150SAPE  H11B16537   5.422   2.926   6.366  1.2696 -0.8769 -0.5444
  150SAPE     P16538   5.237   3.087   6.499  0.1420  0.1016 -0.4263
  150SAPE   O1316539   5.177   3.213   6.554 -0.4944  0.4979 -0.2524
  150SAPE   O1416540   5.170   3.030   6.381  0.2577 -0.1000  0.4412
  150SAPE   O1216541   5.390   3.116   6.458 -0.9148 -0.1418 -0.4664
  150SAPE   O1116542   5.263   2.975   6.609  0.2157  0.4084  0.5543
  150SAPE    C116543   5.158   2.924   6.693  0.6571  0.4919 -0.7942
  150SAPE    HA16544   5.056   2.966   6.676  0.8037  1.3853  0.4097
  150SAPE    HB16545   5.156   2.813   6.696 -1.5789  0.5131  2.7913
  150SAPE    C216546   5.200   2.953   6.842 -0.3639 -0.6611  0.0149
  150SAPE    HS16547   5.122   2.904   6.905 -2.1226  0.1161 -1.4804
  150SAPE   O2116548   5.209   3.098   6.872 -0.3333 -0.1556  0.2722
  150SAPE   C2116549   5.096   3.167   6.887 -1.0451 -0.2351 -0.2786
  150SAPE   O2216550   4.983   3.131   6.875 -0.0582  0.3741  0.5766
  150SAPE   C2216551   5.123   3.308   6.925 -0.0878  0.2700  0.2991
  150SAPE   H2R16552   5.231   3.331   6.916 -0.6289  2.2293 -1.6347
  150SAPE   H2S16553   5.054   3.371   6.864 -1.0989  1.2114  2.3335
  150SAPE    C316554   5.346   2.895   6.881  0.1536  0.5254 -0.2763
  150SAPE    HX16555   5.416   2.929   6.801 -1.4333  1.5491 -1.2435
  150SAPE    HY16556   5.341   2.784   6.876  0.1469  0.4543  1.1767
  150SAPE   O3116557   5.389   2.939   7.016 -0.4066 -0.0689 -0.1258
  150SAPE   C3116558   5.517   2.923   7.033 -0.4439  0.0354  0.7778
  150SAPE   O3216559   5.588   2.856   6.961 -0.2567 -0.3242 -0.4915
  150SAPE   C3216560   5.561   2.977   7.166 -0.4993 -0.4873 -0.4905
  150SAPE   H2X16561   5.513   2.906   7.238  0.8103 -1.9347 -1.0342
  150SAPE   H2Y16562   5.528   3.083   7.173 -0.9435 -0.5984 -0.8723
  150SAPE   C2316563   5.057   3.333   7.069  0.3317 -0.1253 -0.1227
  150SAPE   H3R16564   4.974   3.264   7.093  1.0912 -1.5292 -1.4281
  150SAPE   H3S16565   5.009   3.433   7.062 -3.5343 -2.0412 -2.2913
  150SAPE   C2416566   5.167   3.315   7.179  1.3134 -0.4751 -0.0402
  150SAPE   H4R16567   5.116   3.344   7.273 -1.9547 -2.9961 -0.9350
  150SAPE   H4S16568   5.240   3.395   7.153  1.0382  0.6976  2.6995
  150SAPE   C2516569   5.222   3.171   7.193 -0.2980  0.1400 -0.5236
  150SAPE   H5R16570   5.269   3.129   7.103  1.0518 -1.1981  0.7798
  150SAPE   C2616571   5.215   3.089   7.301 -0.6309  0.1271 -0.0746
  150SAPE   H6R16572   5.272   2.995   7.298  0.1272  0.5937 -0.2734
  150SAPE   C2716573   5.157   3.129   7.429  0.3302  0.3772 -0.0952
  150SAPE   H7R16574   5.046   3.133   7.419  0.3463  0.1428 -0.3503
  150SAPE   H7S16575   5.183   3.236   7.444 -0.9571  0.7869 -0.7202
  150SAPE   C2816576   5.203   3.044   7.546 -0.4640 -0.1658  0.3952
  150SAPE   H8R16577   5.124   2.987   7.597 -3.4639  2.4644 -1.1027
  150SAPE   C2916578   5.321   3.043   7.611  0.0835 -0.8820  0.0585
  150SAPE   H9R16579   5.328   2.975   7.698 -1.5887  0.5503  1.3440
  150SAPE  C21016580   5.444   3.132   7.580  0.1769  0.3438 -0.3694
  150SAPE  H10R16581   5.473   3.191   7.669 -1.2561 -0.0942  0.3929
  150SAPE  H10S16582   5.414   3.207   7.504  1.1442  0.5874 -0.5253
  150SAPE  C21116583   5.568   3.059   7.536  0.1930 -0.3070  0.0256
  150SAPE  H11R16584   5.594   3.081   7.431 -2.1377  0.7301 -0.3471
  150SAPE  C21216585   5.643   2.971   7.610 -0.0205  0.4699  0.5440
  150SAPE  H12R16586   5.728   2.920   7.564 -0.5131 -1.9641  2.2071
  150SAPE  C21316587   5.624   2.936   7.754 -0.1716  0.0639  0.1166
  150SAPE  H13R16588   5.647   2.829   7.774  1.0734  0.4450  0.8122
  150SAPE  H13S16589   5.519   2.948   7.787 -0.1454  0.0230  0.2160
  150SAPE  C21416590   5.705   3.024   7.846 -0.0193 -0.6613 -0.6143
  150SAPE  H14R16591   5.653   3.102   7.903  0.0584 -0.8356 -0.3011
  150SAPE  C21516592   5.828   3.005   7.886  1.0206 -0.5053 -0.6539
  150SAPE  H15R16593   5.866   3.077   7.961  0.1888  0.9959 -1.6485
  150SAPE  C21616594   5.929   2.906   7.848  0.4684  0.3397  0.0526
  150SAPE  H16R16595   6.003   2.947   7.775  0.9127  2.7180  1.7671
  150SAPE  H16S16596   5.881   2.824   7.790  1.0269 -0.0442  0.1271
  150SAPE  C21716597   6.010   2.850   7.970 -0.2084 -0.1094  0.6975
  150SAPE  H17R16598   6.052   2.936   8.028 -0.1114  1.0031 -0.9734
  150SAPE  H17S16599   6.097   2.799   7.922  0.1772  0.7516  0.4627
  150SAPE  C21816600   5.935   2.740   8.049 -0.3246  0.7175  0.2856
  150SAPE  H18R16601   5.901   2.656   7.984 -0.8262  0.1473  1.2684
  150SAPE  H18S16602   5.853   2.802   8.091  0.7772  3.0745 -0.9664
  150SAPE  C21916603   6.016   2.683   8.165  0.5767 -0.3788 -1.0293
  150SAPE  H19R16604   6.060   2.768   8.221 -0.1688 -0.0613 -0.9177
  150SAPE  H19S16605   6.098   2.620   8.126  0.8789 -0.8134  0.2793
  150SAPE  C22016606   5.929   2.594   8.259 -0.1992  0.8225 -0.0947
  150SAPE  H20R16607   5.906   2.508   8.193  0.0900  1.8616 -1.5950
  150SAPE  H20S16608   5.835   2.646   8.285  0.2041  1.3307  0.3557
  150SAPE  H20T16609   5.988   2.566   8.348 -3.6172  1.7166  2.5609
  150SAPE   C3316610   5.718   2.963   7.193 -0.2927 -0.3672  0.0458
  150SAPE   H3X16611   5.752   3.044   7.262  1.3188 -0.6571 -0.3940
  150SAPE   H3Y16612   5.773   2.985   7.100  2.1244  0.2608  1.5689
  150SAPE   C3416613   5.769   2.833   7.253  0.2372  0.1449 -0.2447
  150SAPE   H4X16614   5.782   2.759   7.172  1.5986 -0.1011  0.1862
  150SAPE   H4Y16615   5.704   2.790   7.332 -1.1224  0.7448 -1.0320
  150SAPE   C3516616   5.912   2.866   7.294 -0.4516  0.4296 -0.0693
  150SAPE   H5X16617   5.931   2.933   7.380 -1.5044  1.8803 -0.9437
  150SAPE   H5Y16618   5.977   2.895   7.209  1.3891  0.3957  1.3050
  150SAPE   C3616619   5.990   2.737   7.346 -0.8621 -0.1735  1.2278
  150SAPE   H6X16620   5.994   2.674   7.254  0.8475  0.1339  1.0635
  150SAPE   H6Y16621   5.922   2.691   7.421 -2.4997 -1.6532 -1.1117
  150SAPE   C3716622   6.132   2.765   7.390 -0.6745  0.3483  0.5723
  150SAPE   H7X16623   6.137   2.832   7.479  4.8794 -1.3246  1.7056
  150SAPE   H7Y16624   6.197   2.816   7.316 -0.0562 -0.9564  0.2107
  150SAPE   C3816625   6.208   2.636   7.443 -0.2802  0.3090 -0.6153
  150SAPE   H8X16626   6.306   2.638   7.390  0.8217 -1.1083  1.2899
  150SAPE   H8Y16627   6.157   2.547   7.400  0.7767  0.6621 -2.6662
  150SAPE   C3916628   6.221   2.622   7.590  0.0641  0.4123 -0.1597
  150SAPE   H9X16629   6.234   2.720   7.642  0.4379 -1.3650  3.2885
  150SAPE   H9Y16630   6.302   2.548   7.608 -0.6205 -1.1492 -3.3019
  150SAPE  C31016631   6.094   2.561   7.654 -0.8839 -0.5329  0.1615
  150SAPE  H10X16632   6.034   2.499   7.584  0.1284 -1.1966 -0.1204
  150SAPE  H10Y16633   6.022   2.639   7.686 -0.0552  0.4199 -0.2733
  150SAPE  C31116634   6.136   2.488   7.781 -0.8194  0.2594  0.2298
  150SAPE  H11X16635   6.176   2.549   7.865 -0.6008  0.0239  0.2980
  150SAPE  H11Y16636   6.218   2.418   7.754 -1.8135 -0.9322  0.2346
  150SAPE  C31216637   6.020   2.403   7.830 -0.3521  0.0523  0.0833
  150SAPE  H12X16638   5.960   2.362   7.745  1.9335  0.1057 -1.5888
  150SAPE  H12Y16639   5.953   2.463   7.896 -2.0227 -2.9773  1.2295
  150SAPE  C31316640   6.060   2.283   7.918  0.2943 -0.2011  0.6379
  150SAPE  H13X16641   6.136   2.323   7.988 -0.0937  1.3027  0.2156
  150SAPE  H13Y16642   6.087   2.191   7.863  1.1512  1.0368 -1.0619
  150SAPE  C31416643   5.931   2.244   7.996  0.0380  0.6895  0.0290
  150SAPE  H14X16644   5.848   2.224   7.924  0.3633  0.1589 -0.1984
  150SAPE  H14Y16645   5.901   2.333   8.056 -0.2793  1.6541 -1.5543
  150SAPE  C31516646   5.951   2.117   8.085  0.0022 -0.7179  0.0636
  150SAPE  H15X16647   6.028   2.119   8.165 -0.7743 -0.0421  0.7988
  150SAPE  H15Y16648   5.991   2.042   8.014 -0.4071 -2.4771  1.6376
  150SAPE  C31616649   5.811   2.070   8.134 -0.6309 -0.4509 -0.2701
  150SAPE  H16X16650   5.814   1.972   8.186 -0.4833 -0.2369  0.1294
  150SAPE  H16Y16651   5.751   2.043   8.044  0.3964 -2.8387 -0.2617
  150SAPE  C31716652   5.731   2.165   8.228  0.3778 -0.7100  0.4503
  150SAPE  H17X16653   5.625   2.141   8.206  0.8878 -1.2629 -1.5875
  150SAPE  H17Y16654   5.728   2.268   8.186  0.2215 -0.4363  1.1355
  150SAPE  C31816655   5.771   2.159   8.377  0.4372 -0.4362 -0.0927
  150SAPE  H18X16656   5.866   2.213   8.401  0.0417  0.0465  0.3908
  150SAPE  H18Y16657   5.770   2.056   8.417  1.4755 -0.4754 -0.1390
  150SAPE  H18Z16658   5.695   2.209   8.441 -0.8892 -2.2466 -0.2318
  151SAPE     N16659   1.634   0.462   6.528  0.3594 -0.0577  0.6913
  151SAPE   HN116660   1.735   0.478   6.546 -0.0613  1.3214  1.9429
  151SAPE   HN216661   1.583   0.551   6.549  0.4261  0.2418 -0.3591
  151SAPE   HN316662   1.609   0.393   6.602  0.5872  1.2836  2.0437
  151SAPE   C1216663   1.592   0.407   6.390  0.3805  0.6863  0.4936
  151SAPE  H12A16664   1.601   0.296   6.384  0.2605  0.8123 -3.2054
  151SAPE  H12B16665   1.644   0.463   6.309 -0.2078 -0.5031 -0.7245
  151SAPE   C1116666   1.441   0.423   6.363 -0.7582  0.0319  0.0492
  151SAPE  H11A16667   1.374   0.407   6.451 -1.2443  0.4763 -0.2352
  151SAPE  H11B16668   1.408   0.348   6.288 -1.0765 -0.7113  0.9162
  151SAPE     P16669   1.355   0.669   6.407 -0.4936  0.0913 -0.1570
  151SAPE   O1316670   1.379   0.801   6.337  0.0155 -0.2537 -0.2216
  151SAPE   O1416671   1.217   0.634   6.428 -0.2102  0.3210  0.1000
  151SAPE   O1216672   1.417   0.556   6.311 -0.0020 -0.1843  0.0898
  151SAPE   O1116673   1.432   0.645   6.539  0.4197 -0.3087 -0.0214
  151SAPE    C116674   1.468   0.752   6.620 -0.6127 -0.1549  0.3484
  151SAPE    HA16675   1.562   0.713   6.663  0.1524  0.4348 -0.7488
  151SAPE    HB16676   1.493   0.849   6.572  1.3483  0.5051  2.6344
  151SAPE    C216677   1.364   0.770   6.736 -0.2623 -0.0797 -0.5225
  151SAPE    HS16678   1.422   0.793   6.827 -0.8396 -0.8598  0.0493
  151SAPE   O2116679   1.271   0.656   6.755 -0.3891  0.0656 -0.8963
  151SAPE   C2116680   1.336   0.550   6.812 -0.1720 -0.2194  0.6414
  151SAPE   O2216681   1.453   0.545   6.836  0.2305 -0.2451 -0.1861
  151SAPE   C2216682   1.227   0.444   6.869 -1.2001 -0.2585  0.2556
  151SAPE   H2R16683   1.186   0.393   6.779  3.1904  3.0575 -3.9017
  151SAPE   H2S16684   1.285   0.370   6.928  1.0595  0.6631 -0.7476
  151SAPE    C316685   1.277   0.905   6.726  0.1631  0.9917 -0.3344
  151SAPE    HX16686   1.199   0.877   6.651  0.5492 -1.6778  0.1988
  151SAPE    HY16687   1.342   0.981   6.679  1.4809  0.0543 -0.0544
  151SAPE   O3116688   1.234   0.951   6.856 -0.2914  0.0555  0.3080
  151SAPE   C3116689   1.104   0.966   6.876 -0.4306 -0.2272 -0.1945
  151SAPE   O3216690   1.018   0.951   6.791  0.3556 -0.1586 -0.1913
  151SAPE   C3216691   1.087   1.028   7.012  0.4208  0.3582 -0.0016
  151SAPE   H2X16692   0.992   0.995   7.060  0.5843  2.0614  1.5539
  151SAPE   H2Y16693   1.078   1.137   6.993  1.3562  0.2571 -1.0702
  151SAPE   C2316694   1.109   0.486   6.960 -0.4056  0.0062  0.2388
  151SAPE   H3R16695   1.048   0.397   6.987  0.9312 -1.4276 -1.3672
  151SAPE   H3S16696   1.053   0.559   6.898  0.9329 -0.3492 -1.4279
  151SAPE   C2416697   1.159   0.556   7.089 -0.1029  0.7201 -0.7084
  151SAPE   H4R16698   1.211   0.647   7.051 -0.6921  1.0907 -0.6308
  151SAPE   H4S16699   1.238   0.491   7.134 -1.8465 -0.9111  0.0325
  151SAPE   C2516700   1.047   0.608   7.175 -0.0277  0.0822 -0.0395
  151SAPE   H5R16701   0.945   0.592   7.137 -0.2406 -1.9975  1.3073
  151SAPE   C2616702   1.063   0.645   7.301  0.6374  0.1666  0.8276
  151SAPE   H6R16703   0.973   0.681   7.353  0.1086  1.4736 -0.9408
  151SAPE   C2716704   1.186   0.645   7.389 -0.4979 -0.4737  0.6675
  151SAPE   H7R16705   1.182   0.744   7.439  0.7719  0.7032 -1.4806
  151SAPE   H7S16706   1.280   0.653   7.330 -0.4816  2.4861  1.0057
  151SAPE   C2816707   1.196   0.526   7.487  0.0636  0.5615  0.0833
  151SAPE   H8R16708   1.237   0.429   7.455  1.6747 -0.7126  5.5296
  151SAPE   C2916709   1.167   0.533   7.618 -0.8037  0.2018  0.0130
  151SAPE   H9R16710   1.197   0.447   7.681  0.2876  1.8342  1.7540
  151SAPE  C21016711   1.114   0.654   7.680  0.0766  0.0965 -0.7690
  151SAPE  H10R16712   1.042   0.710   7.617 -1.5516  0.1933  1.1245
  151SAPE  H10S16713   1.192   0.729   7.705 -0.2473  0.5379 -1.0926
  151SAPE  C21116714   1.024   0.623   7.801  0.2088  0.1482  0.5282
  151SAPE  H11R16715   0.918   0.616   7.774  0.7153 -2.3089 -1.0647
  151SAPE  C21216716   1.055   0.613   7.934  0.6515 -0.0977 -0.1798
  151SAPE  H12R16717   0.967   0.602   7.997  0.9926 -0.4717  0.2331
  151SAPE  C21316718   1.187   0.624   7.999  0.1825 -0.1460  0.3625
  151SAPE  H13R16719   1.196   0.725   8.043  2.3371 -0.1346 -0.0640
  151SAPE  H13S16720   1.266   0.616   7.922 -0.9772 -1.8551 -0.6777
  151SAPE  C21416721   1.213   0.520   8.098 -0.0024  0.4000 -0.1489
  151SAPE  H14R16722   1.153   0.427   8.102 -1.1470  1.1007 -0.5294
  151SAPE  C21516723   1.306   0.528   8.193  0.3537  0.0707 -0.5770
  151SAPE  H15R16724   1.326   0.447   8.264  1.0829  0.0227 -0.8307
  151SAPE  C21616725   1.387   0.647   8.221 -0.2754 -0.2121  0.2973
  151SAPE  H16R16726   1.366   0.717   8.138  0.0243  0.2580  0.6175
  151SAPE  H16S16727   1.497   0.634   8.236 -0.3604 -1.2130  0.0755
  151SAPE  C21716728   1.333   0.700   8.352  0.3526  0.0442 -0.4069
  151SAPE  H17R16729   1.372   0.804   8.362  1.5475 -0.1947 -2.3978
  151SAPE  H17S16730   1.367   0.628   8.430 -0.0302 -0.7931 -1.0099
  151SAPE  C21816731   1.179   0.699   8.371  0.2708  0.1661  0.4436
  151SAPE  H18R16732   1.144   0.594   8.377  2.5785 -0.6488  0.1886
  151SAPE  H18S16733   1.142   0.739   8.274 -1.1055  1.1703  1.3582
  151SAPE  C21916734   1.135   0.766   8.503  0.5433 -0.3586 -0.1123
  151SAPE  H19R16735   1.027   0.791   8.505  0.4277 -0.6026 -2.1782
  151SAPE  H19S16736   1.194   0.860   8.503  3.5673 -2.1655  1.6102
  151SAPE  C22016737   1.170   0.691   8.631 -0.0311 -0.3218 -0.0903
  151SAPE  H20R16738   1.281   0.686   8.635  0.1652  0.9267 -2.8165
  151SAPE  H20S16739   1.127   0.748   8.716  1.4319  1.0239 -0.2370
  151SAPE  H20T16740   1.127   0.589   8.636  0.1838 -0.3309  1.8731
  151SAPE   C3316741   1.202   0.992   7.111  0.7404 -0.2208  0.4406
  151SAPE   H3X16742   1.299   1.016   7.061  1.0001  0.0601  1.0712
  151SAPE   H3Y16743   1.201   0.884   7.138 -2.5451 -0.2112  0.5338
  151SAPE   C3416744   1.203   1.072   7.242  0.6299  0.5065  0.0210
  151SAPE   H4X16745   1.196   1.183   7.239  0.7872  0.4879 -2.0511
  151SAPE   H4Y16746   1.298   1.050   7.296 -1.3453 -0.7839  3.0846
  151SAPE   C3516747   1.093   1.033   7.338 -0.2426  0.1228  0.2488
  151SAPE   H5X16748   1.069   0.925   7.335 -1.7791  0.4298  0.9002
  151SAPE   H5Y16749   1.011   1.098   7.300 -0.0133  0.2707  0.0000
  151SAPE   C3616750   1.132   1.071   7.480 -0.0048  0.2032  0.4248
  151SAPE   H6X16751   1.162   1.177   7.486 -0.7707  0.5008 -0.9000
  151SAPE   H6Y16752   1.215   1.003   7.509 -0.8226 -0.5160  1.1295
  151SAPE   C3716753   1.015   1.053   7.579  1.2230  0.0575 -0.8679
  151SAPE   H7X16754   0.986   0.946   7.586  0.1661  0.4002  0.2412
  151SAPE   H7Y16755   0.924   1.113   7.557  0.3653 -1.4109 -1.3798
  151SAPE   C3816756   1.054   1.087   7.722  0.2176 -0.2881  0.0898
  151SAPE   H8X16757   1.075   1.196   7.725  0.9748 -0.4229 -0.3288
  151SAPE   H8Y16758   1.144   1.034   7.761  0.3569 -0.0066  0.1552
  151SAPE   C3916759   0.937   1.069   7.823 -0.1952 -0.7360  0.0310
  151SAPE   H9X16760   0.893   0.968   7.818 -5.0461  1.2751 -0.9290
  151SAPE   H9Y16761   0.861   1.149   7.807 -0.0113 -0.5273  0.1895
  151SAPE  C31016762   0.988   1.071   7.970  0.0636 -0.0790 -0.9356
  151SAPE  H10X16763   1.047   0.978   7.987  0.9777  0.9570  1.7532
  151SAPE  H10Y16764   0.896   1.046   8.026  0.5698  0.3662  0.1038
  151SAPE  C31116765   1.065   1.189   8.023  0.7881 -0.5279 -0.0280
  151SAPE  H11X16766   1.052   1.282   7.963 -0.2425 -0.3492  0.4813
  151SAPE  H11Y16767   1.173   1.169   8.005  1.3055  0.6670  1.6306
  151SAPE  C31216768   1.031   1.214   8.170  0.0597 -0.3063 -0.9035
  151SAPE  H12X16769   0.921   1.225   8.187 -0.0464 -2.1323 -0.3160
  151SAPE  H12Y16770   1.079   1.311   8.196  1.9906 -0.9563 -1.9537
  151SAPE  C31316771   1.079   1.105   8.264  0.0184 -0.3869 -0.1839
  151SAPE  H13X16772   1.185   1.078   8.241  1.3566  1.8048  2.9794
  151SAPE  H13Y16773   1.012   1.020   8.239 -0.2219 -0.0883 -0.5603
  151SAPE  C31416774   1.064   1.135   8.414 -0.8238  0.2048 -0.1877
  151SAPE  H14X16775   1.095   1.040   8.463  1.3911  0.6433 -0.7036
  151SAPE  H14Y16776   0.955   1.155   8.424 -1.2077 -1.3533 -1.0439
  151SAPE  C31516777   1.148   1.248   8.463  0.4440 -0.2860  0.3668
  151SAPE  H15X16778   1.229   1.278   8.393 -0.7930  0.6767 -0.6861
  151SAPE  H15Y16779   1.202   1.213   8.553 -1.7846 -0.0621  1.8250
  151SAPE  C31616780   1.067   1.379   8.482  0.3004  0.4694 -0.0644
  151SAPE  H16X16781   0.985   1.337   8.544 -1.1508  0.8255 -1.7329
  151SAPE  H16Y16782   1.026   1.412   8.385  3.2951  1.2329 -1.1371
  151SAPE  C31716783   1.142   1.501   8.542  0.0629  0.9165  0.3840
  151SAPE  H17X16784   1.076   1.589   8.558 -1.6196 -0.2382 -0.0775
  151SAPE  H17Y16785   1.193   1.546   8.454 -1.7089 -0.3176 -1.3290
  151SAPE  C31816786   1.230   1.473   8.661  0.4436 -0.4274 -0.7339
  151SAPE  H18X16787   1.281   1.564   8.699 -0.7648 -1.0222  2.4596
  151SAPE  H18Y16788   1.298   1.392   8.627 -0.7004 -0.9788 -1.7695
  151SAPE  H18Z16789   1.170   1.435   8.746  1.9169 -2.5499 -0.6040
  152SAPE     N16790   5.535   4.298   6.373 -0.2110  0.1121  0.0263
  152SAPE   HN116791   5.594   4.306   6.459  2.8410  0.8883 -2.0396
  152SAPE   HN216792   5.543   4.198   6.343  2.0198  0.2267  0.1088
  152SAPE   HN316793   5.587   4.360   6.308 -2.0876 -0.1007 -1.7390
  152SAPE   C1216794   5.396   4.352   6.388 -0.1599  0.0504  0.2574
  152SAPE  H12A16795   5.417   4.461   6.402  2.2447 -0.2149 -0.9724
  152SAPE  H12B16796   5.352   4.305   6.479 -0.7203  1.0389  0.4987
  152SAPE   C1116797   5.313   4.338   6.259 -0.5931  0.3317 -0.3628
  152SAPE  H11A16798   5.350   4.397   6.172 -2.0184  0.8826 -0.6179
  152SAPE  H11B16799   5.210   4.380   6.262  0.0189  1.8186  0.5995
  152SAPE     P16800   5.194   4.106   6.246  0.5007  0.2223 -0.3418
  152SAPE   O1316801   5.083   4.152   6.153  0.2734 -0.6300  0.7883
  152SAPE   O1416802   5.237   3.966   6.227 -0.1876 -0.5295  1.0855
  152SAPE   O1216803   5.312   4.202   6.217 -0.1477  0.4544 -0.1353
  152SAPE   O1116804   5.142   4.133   6.400 -0.1263 -0.1292 -0.3709
  152SAPE    C116805   5.193   4.032   6.488 -0.1232 -0.1437 -0.4185
  152SAPE    HA16806   5.196   3.929   6.445  1.1920 -0.2364 -0.1084
  152SAPE    HB16807   5.295   4.061   6.519 -0.5372 -0.7296  1.5602
  152SAPE    C216808   5.098   4.014   6.610 -0.0421  0.9350  0.1627
  152SAPE    HS16809   5.000   4.011   6.558 -0.5072  0.3409  1.0573
  152SAPE   O2116810   5.121   4.123   6.699  0.1958  0.0152 -0.1902
  152SAPE   C2116811   5.008   4.181   6.741  0.0910  1.1543 -0.8121
  152SAPE   O2216812   4.892   4.151   6.702 -0.0143 -0.1246 -0.5152
  152SAPE   C2216813   5.042   4.280   6.849 -1.1092 -0.8888 -0.7431
  152SAPE   H2R16814   5.138   4.254   6.898 -0.6981 -1.4164 -1.8044
  152SAPE   H2S16815   5.048   4.380   6.800 -1.7980 -0.1787  0.5784
  152SAPE    C316816   5.124   3.876   6.677 -0.4055 -0.5130 -0.2193
  152SAPE    HX16817   5.231   3.878   6.707 -0.0634  1.6632 -1.4983
  152SAPE    HY16818   5.117   3.795   6.601 -3.4358 -0.1652 -0.3632
  152SAPE   O3116819   5.040   3.850   6.795  0.6619  0.0779 -0.0318
  152SAPE   C3116820   5.106   3.805   6.907 -0.2521  0.7642  0.2048
  152SAPE   O3216821   5.228   3.798   6.922 -0.2197  0.0659  0.1999
  152SAPE   C3216822   5.007   3.761   7.017  0.4683 -0.6599 -0.4446
  152SAPE   H2X16823   4.958   3.668   6.983  1.1444 -2.2730  2.8164
  152SAPE   H2Y16824   4.930   3.840   7.013  0.7456 -0.3560  0.0966
  152SAPE   C2316825   4.930   4.295   6.950 -0.3595  0.4839  0.6229
  152SAPE   H3R16826   4.843   4.344   6.901  0.1781  0.1267 -0.6915
  152SAPE   H3S16827   4.969   4.365   7.027 -0.9056  0.7735  0.6358
  152SAPE   C2416828   4.892   4.161   7.025 -0.5534  0.1185 -0.3276
  152SAPE   H4R16829   4.848   4.088   6.954  0.8803 -0.8920 -0.2169
  152SAPE   H4S16830   4.816   4.174   7.105 -0.9516 -1.2013 -0.4808
  152SAPE   C2516831   5.008   4.094   7.091  0.4729  0.3233 -0.2307
  152SAPE   H5R16832   5.088   4.060   7.024 -0.4644 -1.9828 -0.2231
  152SAPE   C2616833   5.032   4.068   7.220 -0.4960  0.1829 -0.4504
  152SAPE   H6R16834   5.134   4.029   7.237 -1.1771 -0.8275  1.3660
  152SAPE   C2716835   4.953   4.106   7.339 -0.1402  0.2623 -0.0873
  152SAPE   H7R16836   4.933   4.013   7.396  0.8191 -0.1616 -0.4264
  152SAPE   H7S16837   4.861   4.154   7.300 -0.0991  1.2997  1.0613
  152SAPE   C2816838   5.027   4.206   7.429 -0.1487 -0.3136  0.3791
  152SAPE   H8R16839   5.032   4.304   7.380 -4.0521 -0.1035  0.2125
  152SAPE   C2916840   5.057   4.193   7.562 -0.5596 -0.1408 -0.1946
  152SAPE   H9R16841   5.090   4.286   7.612 -2.2288  2.1273 -3.1225
  152SAPE  C21016842   5.023   4.084   7.667 -0.0865 -0.2913 -0.0091
  152SAPE  H10R16843   4.929   4.040   7.629 -0.4688 -0.4568  1.1009
  152SAPE  H10S16844   4.974   4.135   7.753 -0.4604 -0.3454 -0.1910
  152SAPE  C21116845   5.119   3.980   7.705  1.7286 -0.4112  0.1723
  152SAPE  H11R16846   5.134   3.896   7.637  0.9613 -2.5473  2.5710
  152SAPE  C21216847   5.192   3.988   7.820 -0.5348 -0.3960 -0.1715
  152SAPE  H12R16848   5.251   3.897   7.838 -1.7662 -1.3816 -1.0056
  152SAPE  C21316849   5.173   4.093   7.928 -0.5406  0.8860  0.8273
  152SAPE  H13R16850   5.069   4.130   7.943 -0.2195  2.0280  0.2920
  152SAPE  H13S16851   5.216   4.187   7.888  0.1268  0.7647  1.2548
  152SAPE  C21416852   5.239   4.074   8.062 -0.5759 -0.3905  0.2412
  152SAPE  H14R16853   5.335   4.126   8.072 -1.7364  2.1252 -1.0117
  152SAPE  C21516854   5.191   3.987   8.156  0.0989 -0.2083  0.8899
  152SAPE  H15R16855   5.240   3.997   8.255  2.7292  3.0093 -0.6427
  152SAPE  C21616856   5.062   3.908   8.144 -0.6514 -1.1049  0.0877
  152SAPE  H16R16857   5.048   3.900   8.034 -0.5579 -1.4525  0.1003
  152SAPE  H16S16858   4.975   3.961   8.189  0.7047  1.7412 -0.5083
  152SAPE  C21716859   5.054   3.761   8.198  0.1153  0.7318  0.0823
  152SAPE  H17R16860   5.144   3.701   8.168 -0.2750  1.4154 -2.6266
  152SAPE  H17S16861   4.973   3.723   8.133  1.3968 -0.2389 -0.9882
  152SAPE  C21816862   5.014   3.754   8.351 -0.2627  0.8408  0.2401
  152SAPE  H18R16863   4.931   3.826   8.370  0.7634  1.4942  2.2958
  152SAPE  H18S16864   5.104   3.784   8.407 -0.4067  0.6208  0.5887
  152SAPE  C21916865   4.967   3.612   8.382  0.1591 -0.1003  0.0038
  152SAPE  H19R16866   5.043   3.543   8.340  0.9515  0.6674  0.1591
  152SAPE  H19S16867   4.880   3.598   8.315  1.7796 -1.7870 -1.8186
  152SAPE  C22016868   4.935   3.596   8.531  0.3752  0.3863  0.1344
  152SAPE  H20R16869   5.028   3.586   8.591 -0.2969  0.1071  1.1419
  152SAPE  H20S16870   4.863   3.516   8.557 -0.8002  1.8479  1.5076
  152SAPE  H20T16871   4.885   3.687   8.572 -2.2202 -0.1379 -1.7444
  152SAPE   C3316872   5.083   3.727   7.156  0.0664  0.3870 -1.0266
  152SAPE   H3X16873   5.164   3.798   7.183  0.1714 -0.1791  0.1791
  152SAPE   H3Y16874   5.125   3.624   7.160 -2.0104 -0.4408  0.5163
  152SAPE   C3416875   4.974   3.719   7.264  0.0828  0.5389  0.1942
  152SAPE   H4X16876   4.910   3.631   7.242  2.7867 -0.9517 -2.0235
  152SAPE   H4Y16877   4.912   3.810   7.250 -1.8255 -0.6182  0.8015
  152SAPE   C3516878   5.024   3.709   7.409  0.7776 -0.2281 -0.0328
  152SAPE   H5X16879   4.936   3.727   7.474 -1.7943 -1.4302 -3.0623
  152SAPE   H5Y16880   5.086   3.797   7.437 -1.2515  1.3813 -0.5361
  152SAPE   C3616881   5.120   3.591   7.440  0.4797 -0.0088  0.4278
  152SAPE   H6X16882   5.201   3.591   7.364 -1.1566  0.1541 -1.3532
  152SAPE   H6Y16883   5.070   3.494   7.419  1.5326 -0.4986  0.1585
  152SAPE   C3716884   5.182   3.585   7.575 -0.1486  0.4338 -0.5224
  152SAPE   H7X16885   5.208   3.686   7.613  3.2278 -0.2375 -0.8038
  152SAPE   H7Y16886   5.270   3.516   7.574 -1.1675 -0.8834 -1.2753
  152SAPE   C3816887   5.080   3.540   7.685 -0.4094 -0.5589  0.1041
  152SAPE   H8X16888   5.041   3.437   7.679 -2.2655 -0.0226  2.2852
  152SAPE   H8Y16889   4.994   3.609   7.677  1.3328  1.2969 -3.9525
  152SAPE   C3916890   5.143   3.555   7.825  0.0173 -0.0284  0.2266
  152SAPE   H9X16891   5.059   3.539   7.895  0.3690 -1.8622  0.2482
  152SAPE   H9Y16892   5.178   3.660   7.840 -4.0204  1.6699 -1.5810
  152SAPE  C31016893   5.247   3.444   7.854 -0.3354  0.4461 -0.1766
  152SAPE  H10X16894   5.329   3.464   7.781  0.1888  0.4850  0.4137
  152SAPE  H10Y16895   5.194   3.349   7.832 -1.6951  1.7535 -2.7340
  152SAPE  C31116896   5.314   3.436   7.995  1.0296  0.2418 -0.1872
  152SAPE  H11X16897   5.236   3.387   8.057  1.7248 -1.0839 -0.3637
  152SAPE  H11Y16898   5.341   3.538   8.030 -1.1210  0.2959  1.4418
  152SAPE  C31216899   5.432   3.343   8.003 -0.1627 -0.5946  0.2345
  152SAPE  H12X16900   5.513   3.388   7.943 -0.3520  0.2466  0.5989
  152SAPE  H12Y16901   5.400   3.248   7.956 -0.2683 -0.7777  0.6764
  152SAPE  C31316902   5.484   3.315   8.147  0.2446 -0.6517  0.4313
  152SAPE  H13X16903   5.401   3.288   8.216 -2.6168  0.5391 -2.3954
  152SAPE  H13Y16904   5.539   3.406   8.181  0.2768 -1.8185  3.6376
  152SAPE  C31416905   5.594   3.211   8.142 -0.5683 -0.2869 -0.2481
  152SAPE  H14X16906   5.684   3.248   8.090  0.6458 -1.7810  0.7402
  152SAPE  H14Y16907   5.549   3.127   8.084  2.1399 -0.3227 -2.3744
  152SAPE  C31516908   5.629   3.148   8.275 -0.1614 -0.0062  0.0044
  152SAPE  H15X16909   5.544   3.087   8.312 -1.1672  0.7668 -1.0056
  152SAPE  H15Y16910   5.648   3.237   8.339  0.2523 -1.3601  1.8172
  152SAPE  C31616911   5.764   3.073   8.270 -0.1282 -0.4849 -0.5863
  152SAPE  H16X16912   5.841   3.140   8.225 -0.2339 -0.3389 -0.5491
  152SAPE  H16Y16913   5.750   2.981   8.209 -0.3389 -1.7819  1.3441
  152SAPE  C31716914   5.807   3.030   8.413  0.0057 -0.0662  0.7056
  152SAPE  H17X16915   5.718   2.980   8.457  0.0437  0.8640  1.8750
  152SAPE  H17Y16916   5.824   3.116   8.481  0.4085  0.5458 -0.1640
  152SAPE  C31816917   5.929   2.934   8.421  0.1440  0.6379  0.5458
  152SAPE  H18X16918   5.976   2.946   8.521  2.7280  0.2586 -0.5695
  152SAPE  H18Y16919   6.000   2.958   8.338 -1.9437 -1.2637 -1.8832
  152SAPE  H18Z16920   5.894   2.833   8.391  0.4317  1.1929 -1.7714
  153SAPE     N16921   1.802   4.992   6.201 -0.1295 -0.1870 -0.0591
  153SAPE   HN116922   1.729   4.979   6.128  0.8006  0.0691 -1.0533
  153SAPE   HN216923   1.833   5.090   6.212 -3.1878  0.7923  0.3990
  153SAPE   HN316924   1.874   4.922   6.172  0.1985  0.7981 -1.6502
  153SAPE   C1216925   1.738   4.960   6.333 -0.4906  0.0105  0.1004
  153SAPE  H12A16926   1.816   4.942   6.410 -0.9063  0.9153  0.7399
  153SAPE  H12B16927   1.671   4.873   6.316 -1.6252  1.4717 -3.3821
  153SAPE   C1116928   1.645   5.069   6.388 -0.2204 -0.9367  0.3068
  153SAPE  H11A16929   1.713   5.153   6.413  2.4602 -2.3929 -1.7809
  153SAPE  H11B16930   1.590   5.035   6.479 -0.6044 -3.2421 -0.7386
  153SAPE     P16931   1.409   5.085   6.270 -0.1478 -0.0986  0.5600
  153SAPE   O1316932   1.352   5.177   6.166 -0.4237  0.2393 -0.2432
  153SAPE   O1416933   1.389   4.940   6.258 -0.2126 -0.2616 -0.1509
  153SAPE   O1216934   1.562   5.126   6.282  0.4395 -0.6557  0.1699
  153SAPE   O1116935   1.343   5.120   6.412 -0.4236 -0.0914  0.4554
  153SAPE    C116936   1.367   5.232   6.498 -0.1290  0.0862  0.2656
  153SAPE    HA16937   1.469   5.273   6.488  1.1810 -3.5850 -2.4008
  153SAPE    HB16938   1.290   5.310   6.476  0.5624  1.8385  3.6765
  153SAPE    C216939   1.348   5.184   6.640 -0.1924 -0.5516  0.4576
  153SAPE    HS16940   1.337   5.275   6.703 -1.1453 -1.7109  1.9972
  153SAPE   O2116941   1.463   5.105   6.683 -0.4358  0.1864 -0.2722
  153SAPE   C2116942   1.551   5.178   6.753 -0.1435 -0.2963 -0.4013
  153SAPE   O2216943   1.554   5.301   6.762 -0.4789 -0.2101  0.3006
  153SAPE   C2216944   1.661   5.086   6.811 -0.4410 -0.2665  0.5285
  153SAPE   H2R16945   1.606   5.020   6.880  0.2103 -1.8290 -0.4232
  153SAPE   H2S16946   1.707   5.022   6.733 -2.2296  1.0519 -1.6531
  153SAPE    C316947   1.212   5.106   6.660  0.0058 -0.3910  0.4991
  153SAPE    HX16948   1.227   5.012   6.602 -0.5023  0.3977 -0.9147
  153SAPE    HY16949   1.124   5.164   6.625 -0.9082 -0.8833  1.9089
  153SAPE   O3116950   1.189   5.081   6.802 -0.0251  0.4561  0.2292
  153SAPE   C3116951   1.076   5.016   6.824 -0.6454  0.1846  0.1322
  153SAPE   O3216952   0.996   4.983   6.740  0.2700 -0.5914  0.2238
  153SAPE   C3216953   1.066   4.980   6.977 -0.2106  0.3090  0.2308
  153SAPE   H2X16954   1.113   5.065   7.030  1.6384 -1.3605  1.3729
  153SAPE   H2Y16955   1.136   4.897   7.004  0.4965 -0.1863 -2.8628
  153SAPE   C2316956   1.779   5.170   6.890 -0.5467 -0.4122  0.0044
  153SAPE   H3R16957   1.728   5.225   6.972 -0.8913  0.2928 -0.6938
  153SAPE   H3S16958   1.826   5.242   6.821  0.1101 -1.0446 -0.2241
  153SAPE   C2416959   1.885   5.086   6.956  0.4480  0.3192 -0.1900
  153SAPE   H4R16960   1.967   5.153   6.991  1.3566 -0.5525 -0.6015
  153SAPE   H4S16961   1.931   5.028   6.873  0.8581  0.4513 -0.0587
  153SAPE   C2516962   1.837   5.004   7.064  0.1409 -0.2178  0.5578
  153SAPE   H5R16963   1.789   4.913   7.024 -2.4781  0.0231  2.9665
  153SAPE   C2616964   1.846   5.027   7.198 -0.3845  0.5573 -0.1474
  153SAPE   H6R16965   1.802   4.947   7.259 -1.0105  1.1004  0.1130
  153SAPE   C2716966   1.915   5.148   7.262  0.6157  0.3870 -0.3663
  153SAPE   H7R16967   1.947   5.223   7.188 -0.1912 -0.1107 -1.2256
  153SAPE   H7S16968   2.004   5.110   7.317 -0.4893 -0.5868  0.7936
  153SAPE   C2816969   1.804   5.215   7.348  0.4586  0.5255 -0.7103
  153SAPE   H8R16970   1.700   5.192   7.317  1.0644 -0.2989 -2.1796
  153SAPE   C2916971   1.823   5.290   7.458 -0.0190 -0.9452 -0.0306
  153SAPE   H9R16972   1.735   5.320   7.515 -1.0127 -0.4330 -1.7781
  153SAPE  C21016973   1.959   5.307   7.518 -0.7582 -0.2046  0.4750
  153SAPE  H10R16974   2.014   5.353   7.433 -1.7785  2.1371  1.0467
  153SAPE  H10S16975   2.003   5.205   7.524  0.0104  0.1409  0.7982
  153SAPE  C21116976   1.989   5.400   7.633  0.4866 -0.0880  0.6038
  153SAPE  H11R16977   2.019   5.498   7.592 -0.1225 -0.7523 -1.4594
  153SAPE  C21216978   1.968   5.379   7.764  0.0507  0.0342  0.1080
  153SAPE  H12R16979   2.004   5.464   7.823 -0.7292  0.7583 -0.4524
  153SAPE  C21316980   1.925   5.248   7.829 -0.3148  0.5675 -0.4913
  153SAPE  H13R16981   1.988   5.232   7.919  1.2004 -1.7139 -1.8988
  153SAPE  H13S16982   1.951   5.165   7.760  1.0702  1.7918 -1.4583
  153SAPE  C21416983   1.779   5.238   7.870 -0.3599 -0.1255 -0.1576
  153SAPE  H14R16984   1.718   5.199   7.788  0.2181 -1.3853  0.0057
  153SAPE  C21516985   1.728   5.266   7.992 -0.1601 -0.4035 -0.4300
  153SAPE  H15R16986   1.618   5.274   7.991 -0.2811 -1.8471 -2.7340
  153SAPE  C21616987   1.803   5.315   8.112  0.0086 -0.3099  0.5500
  153SAPE  H16R16988   1.913   5.307   8.099 -0.0848  1.4253 -1.4393
  153SAPE  H16S16989   1.777   5.239   8.189  0.5501  1.0103  2.0700
  153SAPE  C21716990   1.763   5.458   8.159 -0.8874 -0.2282  0.1031
  153SAPE  H17R16991   1.656   5.477   8.178 -0.6201  2.7567 -1.1247
  153SAPE  H17S16992   1.787   5.527   8.075 -0.5682  0.1334  0.4929
  153SAPE  C21816993   1.845   5.500   8.278  0.9276  0.0596  0.4160
  153SAPE  H18R16994   1.948   5.469   8.250  0.2551 -1.7485 -0.1896
  153SAPE  H18S16995   1.816   5.437   8.365  3.7394  1.4904  2.4497
  153SAPE  C21916996   1.852   5.650   8.318  0.5876 -0.0060  0.8523
  153SAPE  H19R16997   1.754   5.703   8.313  0.5119 -0.2919 -0.9339
  153SAPE  H19S16998   1.901   5.707   8.237 -0.5932  0.9881  0.8250
  153SAPE  C22016999   1.927   5.660   8.448  0.3848 -0.3973 -0.3802
  153SAPE  H20R17000   2.020   5.600   8.446  1.0268  0.4791  2.0198
  153SAPE  H20S17001   1.873   5.612   8.533 -0.2500 -0.1198 -0.6210
  153SAPE  H20T17002   1.946   5.767   8.470 -0.3222 -0.0112 -1.5560
  153SAPE   C3317003   0.930   4.941   7.029 -0.1284 -0.8306 -0.2214
  153SAPE   H3X17004   0.906   4.836   7.004  1.2977 -1.0050 -0.8902
  153SAPE   H3Y17005   0.855   5.012   6.986 -0.3660 -0.7907  0.2535
  153SAPE   C3417006   0.916   4.952   7.183  0.4772  0.1373  0.1761
  153SAPE   H4X17007   0.946   5.056   7.207 -1.1938  0.8735 -0.8143
  153SAPE   H4Y17008   1.002   4.896   7.225  0.2870 -0.0722  0.2818
  153SAPE   C3517009   0.779   4.919   7.239 -0.5827 -0.2242 -0.1868
  153SAPE   H5X17010   0.746   4.815   7.217  0.4026 -1.1364  2.4244
  153SAPE   H5Y17011   0.713   4.989   7.184 -1.4074 -0.5003  0.4262
  153SAPE   C3617012   0.762   4.936   7.388 -0.3966 -0.4654 -0.0928
  153SAPE   H6X17013   0.664   4.900   7.426 -0.4775  3.0473  3.4496
  153SAPE   H6Y17014   0.772   5.041   7.423 -1.9566  0.1440 -1.4726
  153SAPE   C3717015   0.858   4.859   7.483  0.4679 -0.2251 -0.0746
  153SAPE   H7X17016   0.965   4.877   7.461  0.5664  2.5869  2.4344
  153SAPE   H7Y17017   0.835   4.750   7.478  1.5110 -0.4160 -1.0312
  153SAPE   C3817018   0.822   4.903   7.623  0.0302 -0.0130  0.0304
  153SAPE   H8X17019   0.715   4.874   7.627 -0.1278 -0.0661 -3.2291
  153SAPE   H8Y17020   0.799   5.011   7.639  0.4668  0.3034 -1.4413
  153SAPE   C3917021   0.921   4.848   7.731 -0.2447 -0.0848  0.2222
  153SAPE   H9X17022   1.025   4.859   7.694 -0.8345  0.0723 -1.4243
  153SAPE   H9Y17023   0.896   4.740   7.742  0.2343 -0.0661  1.5595
  153SAPE  C31017024   0.889   4.924   7.858 -0.0933 -0.1843 -0.4326
  153SAPE  H10X17025   0.781   4.919   7.885  0.0412  1.9985  0.5917
  153SAPE  H10Y17026   0.914   5.030   7.835 -2.3717  0.8965  1.8181
  153SAPE  C31117027   0.960   4.864   7.980 -0.0465 -1.5086  0.4473
  153SAPE  H11X17028   1.068   4.869   7.956 -0.2985  1.0123 -0.3553
  153SAPE  H11Y17029   0.942   4.756   7.998 -1.6702 -1.5399 -1.1869
  153SAPE  C31217030   0.939   4.948   8.101  0.5132 -0.2887 -0.0863
  153SAPE  H12X17031   0.977   4.884   8.184 -0.0410  2.6819  2.5338
  153SAPE  H12Y17032   0.830   4.955   8.116  0.7088 -0.6146  1.5643
  153SAPE  C31317033   1.010   5.089   8.085  0.3031  0.4103  0.1047
  153SAPE  H13X17034   0.959   5.148   8.006 -2.1262  1.3298  2.2878
  153SAPE  H13Y17035   1.116   5.065   8.064 -0.1918  0.0848 -2.1942
  153SAPE  C31417036   0.988   5.166   8.216 -0.9500 -0.1825  0.2953
  153SAPE  H14X17037   1.040   5.118   8.302  0.4578  1.8375  0.5905
  153SAPE  H14Y17038   0.880   5.169   8.244 -0.5942 -1.3656  1.8871
  153SAPE  C31517039   1.036   5.313   8.209 -0.0352  0.7036  0.4386
  153SAPE  H15X17040   1.113   5.333   8.131  1.2534  1.3280  1.8471
  153SAPE  H15Y17041   1.072   5.342   8.310 -0.4803 -0.3994  0.9272
  153SAPE  C31617042   0.922   5.411   8.188  0.4693  0.5139 -0.6661
  153SAPE  H16X17043   0.862   5.396   8.281  0.7138  0.6180 -0.4916
  153SAPE  H16Y17044   0.856   5.393   8.101 -1.8192 -0.3724  1.1804
  153SAPE  C31717045   0.972   5.561   8.199 -0.2027  0.5469 -1.1466
  153SAPE  H17X17046   1.081   5.582   8.196 -0.3359  1.4164 -0.0118
  153SAPE  H17Y17047   0.947   5.580   8.305 -0.4048 -2.2569 -0.6519
  153SAPE  C31817048   0.893   5.648   8.101  0.0563 -0.2534 -0.2454
  153SAPE  H18X17049   0.901   5.749   8.147  1.8312 -0.1685 -0.6970
  153SAPE  H18Y17050   0.785   5.630   8.086  0.2549 -1.1090 -0.7109
  153SAPE  H18Z17051   0.950   5.659   8.006 -0.5653 -1.7767 -0.7981
  154SAPE     N17052   5.781   3.626   5.953 -0.0425  0.5077  0.1890
  154SAPE   HN117053   5.878   3.590   5.950 -0.2314  0.0510 -0.6999
  154SAPE   HN217054   5.730   3.536   5.961  0.3665  0.3310  0.8177
  154SAPE   HN317055   5.771   3.652   5.852  2.7512  0.7207 -0.0826
  154SAPE   C1217056   5.750   3.721   6.060  0.7850 -0.5221  0.4523
  154SAPE  H12A17057   5.742   3.669   6.157 -3.2543  2.9729  2.1158
  154SAPE  H12B17058   5.649   3.761   6.041 -0.2768 -3.2935  0.0296
  154SAPE   C1117059   5.851   3.835   6.058  1.1203  0.3024 -0.3443
  154SAPE  H11A17060   5.830   3.908   6.139 -0.9177  0.4522 -0.9827
  154SAPE  H11B17061   5.846   3.883   5.958  2.3726  2.5270  0.6162
  154SAPE     P17062   6.085   3.802   6.188  0.1707 -0.1023 -0.1029
  154SAPE   O1317063   6.169   3.684   6.182 -0.0838 -0.4055 -0.6577
  154SAPE   O1417064   6.149   3.937   6.188  0.6190  1.5108 -0.0871
  154SAPE   O1217065   5.985   3.785   6.069 -0.1347  0.0324  0.2518
  154SAPE   O1117066   6.003   3.799   6.319 -0.0238  0.3044 -0.1251
  154SAPE    C117067   5.925   3.681   6.356  0.1647 -0.2367 -0.0158
  154SAPE    HA17068   5.816   3.703   6.366 -0.0024 -1.7009  1.6949
  154SAPE    HB17069   5.929   3.603   6.277 -1.7139 -0.5200  0.1417
  154SAPE    C217070   5.982   3.608   6.484  0.6429  0.1937  0.1075
  154SAPE    HS17071   5.897   3.547   6.521 -1.4711  1.8932 -1.8384
  154SAPE   O2117072   6.028   3.706   6.579 -0.2853 -0.2377  0.0156
  154SAPE   C2117073   5.940   3.760   6.652 -0.2228  0.1163 -0.1253
  154SAPE   O2217074   5.816   3.744   6.648 -0.2253  0.0070 -0.4669
  154SAPE   C2217075   6.009   3.841   6.760 -0.2432 -0.8621 -0.6033
  154SAPE   H2R17076   6.119   3.829   6.746 -0.4861 -2.3834 -1.3369
  154SAPE   H2S17077   5.990   3.949   6.746  0.4583 -0.4852  1.1615
  154SAPE    C317078   6.101   3.511   6.444 -0.5654  0.0673  0.4696
  154SAPE    HX17079   6.205   3.549   6.448 -0.5938  0.1528  0.3845
  154SAPE    HY17080   6.081   3.490   6.337 -0.8043  1.0829  0.3039
  154SAPE   O3117081   6.114   3.388   6.514 -0.3389 -0.0890 -0.0095
  154SAPE   C3117082   6.180   3.390   6.631  1.4992  0.0830 -0.4254
  154SAPE   O3217083   6.218   3.489   6.689  0.4536  0.3957  0.0435
  154SAPE   C3217084   6.205   3.248   6.680 -0.6901 -0.0897  0.7221
  154SAPE   H2X17085   6.291   3.214   6.618 -1.3678 -1.4076  0.4945
  154SAPE   H2Y17086   6.116   3.191   6.646 -0.4504 -0.8159  1.3042
  154SAPE   C2317087   5.968   3.800   6.904 -0.8625 -0.1595  0.3547
  154SAPE   H3R17088   5.864   3.760   6.911 -2.1464  2.6678 -1.4829
  154SAPE   H3S17089   5.984   3.888   6.971  0.4161 -0.1692  0.0614
  154SAPE   C2417090   6.058   3.695   6.963 -0.4738 -0.2123 -0.4757
  154SAPE   H4R17091   6.049   3.605   6.900  1.0198 -2.8364  2.8572
  154SAPE   H4S17092   6.007   3.670   7.059 -1.7768  0.8691 -0.8698
  154SAPE   C2517093   6.200   3.733   6.993 -0.1794  1.2764 -0.5686
  154SAPE   H5R17094   6.257   3.760   6.903  0.3494  0.2711 -0.5408
  154SAPE   C2617095   6.257   3.736   7.108 -0.8500  0.1933  0.7433
  154SAPE   H6R17096   6.360   3.774   7.112 -0.9801  0.5440  0.7253
  154SAPE   C2717097   6.200   3.714   7.244 -0.4329 -0.4816  0.3082
  154SAPE   H7R17098   6.263   3.659   7.317  0.1579 -0.5840 -0.2727
  154SAPE   H7S17099   6.110   3.650   7.235 -1.4327  0.5392  2.6354
  154SAPE   C2817100   6.145   3.844   7.312  0.0325 -0.3911 -0.7988
  154SAPE   H8R17101   6.087   3.916   7.252 -0.0439  0.7722  0.6560
  154SAPE   C2917102   6.175   3.887   7.436 -0.7358 -0.8034 -0.1469
  154SAPE   H9R17103   6.135   3.982   7.474  2.3335  0.6444 -0.4237
  154SAPE  C21017104   6.268   3.828   7.537 -0.1934  0.1489 -0.4655
  154SAPE  H10R17105   6.304   3.904   7.610  0.1775  1.0918 -1.6084
  154SAPE  H10S17106   6.364   3.806   7.486  0.1332 -0.9135  0.5819
  154SAPE  C21117107   6.201   3.711   7.602  0.7019  0.3744 -0.0696
  154SAPE  H11R17108   6.178   3.630   7.532  2.9620 -1.7485  1.5922
  154SAPE  C21217109   6.174   3.681   7.732 -0.3971 -0.0799  0.2993
  154SAPE  H12R17110   6.115   3.590   7.747  0.8522 -0.9396  0.0698
  154SAPE  C21317111   6.206   3.767   7.857 -0.2519  0.1928  0.0409
  154SAPE  H13R17112   6.110   3.798   7.904  0.1623  0.8099  0.4652
  154SAPE  H13S17113   6.270   3.853   7.829 -0.8090 -0.1684 -2.5059
  154SAPE  C21417114   6.282   3.672   7.952  0.1743 -0.0179 -0.4683
  154SAPE  H14R17115   6.341   3.602   7.892 -0.5616 -0.8629 -0.2196
  154SAPE  C21517116   6.298   3.680   8.084  0.3194  0.3897  0.0321
  154SAPE  H15R17117   6.365   3.604   8.128  1.3257 -0.2379 -2.4929
  154SAPE  C21617118   6.244   3.791   8.181  0.6549  0.6611  1.3208
  154SAPE  H16R17119   6.156   3.752   8.237  0.3199  1.4254  1.3351
  154SAPE  H16S17120   6.204   3.876   8.121 -0.8493 -0.8650  0.1079
  154SAPE  C21717121   6.344   3.858   8.280  0.1226  0.2227 -0.3664
  154SAPE  H17R17122   6.280   3.934   8.328  1.4374  1.0981  0.0366
  154SAPE  H17S17123   6.429   3.887   8.215 -1.1925  1.5857 -1.4921
  154SAPE  C21817124   6.384   3.754   8.379 -0.6081 -0.3810 -0.3374
  154SAPE  H18R17125   6.432   3.669   8.327  1.5975  1.9271 -2.2303
  154SAPE  H18S17126   6.294   3.709   8.427  1.1098 -1.9707  1.4783
  154SAPE  C21917127   6.483   3.811   8.479  0.7641  0.1110  0.2259
  154SAPE  H19R17128   6.446   3.908   8.519 -1.2407 -0.0381 -1.1452
  154SAPE  H19S17129   6.578   3.851   8.438  0.8061 -1.8837 -1.6944
  154SAPE  C22017130   6.514   3.713   8.594  0.7252  0.5353  0.1517
  154SAPE  H20R17131   6.587   3.637   8.559  1.1860  0.6465  0.8497
  154SAPE  H20S17132   6.423   3.670   8.640  0.9619 -0.7422 -0.5650
  154SAPE  H20T17133   6.572   3.768   8.672 -2.2439  2.5312  1.0703
  154SAPE   C3317134   6.221   3.238   6.831 -0.1001  0.2810 -0.0605
  154SAPE   H3X17135   6.237   3.335   6.882  0.3393  0.4166 -0.4555
  154SAPE   H3Y17136   6.309   3.179   6.864  0.4275  0.3729 -1.2656
  154SAPE   C3417137   6.102   3.164   6.889 -0.0122 -0.3513 -0.1782
  154SAPE   H4X17138   6.097   3.069   6.832  0.3684 -0.5447  0.1138
  154SAPE   H4Y17139   6.015   3.229   6.865  1.0724  0.2559 -2.5301
  154SAPE   C3517140   6.111   3.133   7.036 -0.4127  0.7668 -0.3096
  154SAPE   H5X17141   6.207   3.080   7.053 -0.2557  1.3360  0.5985
  154SAPE   H5Y17142   6.027   3.069   7.072 -0.6659  0.6269 -1.1346
  154SAPE   C3617143   6.113   3.252   7.140 -0.4213 -0.4754 -0.2711
  154SAPE   H6X17144   6.012   3.294   7.160 -0.2888 -0.7167  0.9116
  154SAPE   H6Y17145   6.179   3.331   7.096 -1.1187 -1.2919 -2.8909
  154SAPE   C3717146   6.172   3.212   7.274  0.3148  0.0803 -0.1260
  154SAPE   H7X17147   6.281   3.199   7.260  0.5947  2.0358  0.0822
  154SAPE   H7Y17148   6.141   3.109   7.301 -1.8532  1.2177  1.9674
  154SAPE   C3817149   6.154   3.310   7.388 -0.7743 -0.3037 -0.0987
  154SAPE   H8X17150   6.048   3.334   7.413 -0.5744 -1.0987  1.6128
  154SAPE   H8Y17151   6.202   3.408   7.371  1.1863 -0.9103  1.7279
  154SAPE   C3917152   6.223   3.260   7.515 -0.4339 -0.1642 -0.5635
  154SAPE   H9X17153   6.330   3.249   7.490 -0.2841  0.2610 -0.1198
  154SAPE   H9Y17154   6.178   3.160   7.533  1.3020 -1.2894 -2.2390
  154SAPE  C31017155   6.216   3.340   7.644  0.0354 -0.6532 -0.6559
  154SAPE  H10X17156   6.109   3.359   7.670  0.1536  0.5781 -1.0281
  154SAPE  H10Y17157   6.269   3.436   7.626  0.7544 -0.7319  0.9341
  154SAPE  C31117158   6.270   3.262   7.764  0.2682  0.6084  0.7512
  154SAPE  H11X17159   6.374   3.236   7.737 -0.2575 -0.8940  0.1027
  154SAPE  H11Y17160   6.212   3.168   7.777  0.9099  0.3326  1.6509
  154SAPE  C31217161   6.254   3.335   7.891  0.4871  0.5489  0.0064
  154SAPE  H12X17162   6.166   3.403   7.889 -0.2131 -0.3753 -1.6204
  154SAPE  H12Y17163   6.341   3.402   7.907  0.1818  0.6337  1.3301
  154SAPE  C31317164   6.228   3.231   8.008  0.4428  0.4623  0.7794
  154SAPE  H13X17165   6.295   3.144   7.996  0.0795  0.1926  0.7067
  154SAPE  H13Y17166   6.127   3.188   7.992  1.0597  0.1236 -2.6314
  154SAPE  C31417167   6.236   3.283   8.159  0.1098  0.1620 -0.9594
  154SAPE  H14X17168   6.140   3.335   8.183  0.6721  0.0961  1.6749
  154SAPE  H14Y17169   6.325   3.350   8.164  0.0348  0.1713  0.5623
  154SAPE  C31517170   6.245   3.164   8.253  0.1514  0.3765 -0.0493
  154SAPE  H15X17171   6.347   3.127   8.277  0.0953 -0.0653 -0.4785
  154SAPE  H15Y17172   6.202   3.072   8.208  0.7620  0.1794 -0.2282
  154SAPE  C31617173   6.186   3.188   8.400 -0.1931 -0.6655  0.2192
  154SAPE  H16X17174   6.178   3.092   8.455 -2.2860 -0.2567  0.6894
  154SAPE  H16Y17175   6.077   3.206   8.390 -0.3951 -1.9517  0.0370
  154SAPE  C31717176   6.257   3.299   8.483  0.6644 -0.3321  1.1660
  154SAPE  H17X17177   6.192   3.305   8.573  0.3627 -0.3450  0.9489
  154SAPE  H17Y17178   6.242   3.399   8.437  0.7074 -0.7072  0.3416
  154SAPE  C31817179   6.405   3.301   8.519 -0.2560 -0.4569  0.3225
  154SAPE  H18X17180   6.420   3.236   8.608 -1.8472 -1.3531 -0.0268
  154SAPE  H18Y17181   6.426   3.408   8.540 -2.7428  0.0167  0.6330
  154SAPE  H18Z17182   6.477   3.263   8.444  0.4008  0.7737  0.3299
  155SAPE     N17183   6.650   5.163   6.560 -0.4335 -0.0647 -0.2459
  155SAPE   HN117184   6.605   5.117   6.641  1.2002 -0.4780  0.4627
  155SAPE   HN217185   6.735   5.104   6.545 -1.0107 -0.9797  0.0213
  155SAPE   HN317186   6.679   5.260   6.582  1.3389 -0.1628 -1.9693
  155SAPE   C1217187   6.551   5.154   6.444  0.3688 -0.6679  0.6910
  155SAPE  H12A17188   6.509   5.052   6.453  0.6589 -0.8783 -0.3025
  155SAPE  H12B17189   6.597   5.173   6.345 -1.6974 -1.2695 -0.4254
  155SAPE   C1117190   6.440   5.254   6.475 -0.6597 -0.1078  0.4982
  155SAPE  H11A17191   6.486   5.355   6.472 -0.0005 -0.4466 -1.1039
  155SAPE  H11B17192   6.390   5.240   6.573 -0.5097 -1.5154  0.3846
  155SAPE     P17193   6.220   5.165   6.346 -0.0361  0.4739 -0.1203
  155SAPE   O1317194   6.098   5.251   6.365 -0.1481 -0.9303 -0.1969
  155SAPE   O1417195   6.232   5.101   6.216 -0.6451  0.3290  0.1621
  155SAPE   O1217196   6.347   5.254   6.361 -0.3955 -0.1244  0.1906
  155SAPE   O1117197   6.232   5.051   6.456  0.0850  0.1488  0.4883
  155SAPE    C117198   6.135   5.044   6.555  0.4795 -0.1043 -0.0968
  155SAPE    HA17199   6.058   5.123   6.559  0.7768  0.1409  1.0059
  155SAPE    HB17200   6.077   4.950   6.545  2.6348 -1.5609  0.6475
  155SAPE    C217201   6.191   5.040   6.703  0.5082 -0.2795 -0.0603
  155SAPE    HS17202   6.245   5.136   6.713  1.9494 -0.8300 -2.1937
  155SAPE   O2117203   6.272   4.926   6.696  0.2525  0.2071 -0.2576
  155SAPE   C2117204   6.407   4.943   6.721  0.2291 -0.2802  0.4136
  155SAPE   O2217205   6.465   5.051   6.724 -0.2343 -0.2524 -0.1757
  155SAPE   C2217206   6.479   4.811   6.735  0.4234 -0.2342 -0.5358
  155SAPE   H2R17207   6.420   4.733   6.683 -0.5911 -0.8144  1.4481
  155SAPE   H2S17208   6.571   4.833   6.677  1.7030  1.6885  2.0934
  155SAPE    C317209   6.075   5.028   6.818  0.0762 -0.2435  0.6777
  155SAPE    HX17210   6.012   4.940   6.792 -2.5460  1.0846  2.3733
  155SAPE    HY17211   6.014   5.120   6.808 -3.2009 -2.4569 -0.4354
  155SAPE   O3117212   6.134   5.021   6.951 -0.1157 -0.0434 -0.2131
  155SAPE   C3117213   6.160   4.903   6.989  0.1712 -0.0802 -0.0790
  155SAPE   O3217214   6.127   4.798   6.931 -0.5970  0.1447  0.3859
  155SAPE   C3217215   6.247   4.922   7.116  0.1402 -0.5576  0.4605
  155SAPE   H2X17216   6.198   4.988   7.191 -2.5892  1.0842 -2.6656
  155SAPE   H2Y17217   6.333   4.987   7.092 -0.4622 -0.6707 -2.1169
  155SAPE   C2317218   6.500   4.766   6.880  0.0938  0.6228  0.1778
  155SAPE   H3R17219   6.555   4.670   6.886 -1.0158 -0.1416 -1.4167
  155SAPE   H3S17220   6.398   4.749   6.919  1.2024 -2.2976  2.0128
  155SAPE   C2417221   6.573   4.861   6.975 -0.4471 -1.0153 -0.0789
  155SAPE   H4R17222   6.570   4.815   7.076  0.3222 -0.6681  0.1108
  155SAPE   H4S17223   6.535   4.965   6.965 -1.3561 -1.4231 -0.8535
  155SAPE   C2517224   6.717   4.871   6.935 -0.0336  0.0298  0.3315
  155SAPE   H5R17225   6.741   4.901   6.832 -1.5579 -2.1548 -0.6990
  155SAPE   C2617226   6.831   4.846   7.007 -0.5400  0.4269 -0.1700
  155SAPE   H6R17227   6.924   4.840   6.949  0.9669 -2.9692  2.4317
  155SAPE   C2717228   6.833   4.796   7.148 -0.3899  0.3323 -0.3131
  155SAPE   H7R17229   6.745   4.831   7.206 -0.5861 -1.1753  0.3286
  155SAPE   H7S17230   6.920   4.850   7.192 -2.2411  1.7887  1.6294
  155SAPE   C2817231   6.857   4.642   7.157 -0.7247 -0.1259 -0.0607
  155SAPE   H8R17232   6.843   4.577   7.069  2.8304 -0.5628 -0.3695
  155SAPE   C2917233   6.885   4.580   7.275  0.1984  0.8227 -0.6885
  155SAPE   H9R17234   6.920   4.476   7.269  1.1767  0.8397  3.4971
  155SAPE  C21017235   6.903   4.638   7.413  0.4542  0.0133  0.0968
  155SAPE  H10R17236   6.987   4.711   7.414 -0.5973  1.2355  0.1187
  155SAPE  H10S17237   6.928   4.548   7.473  1.6319 -0.1022 -0.5508
  155SAPE  C21117238   6.772   4.692   7.466 -0.3205 -0.2922  0.3279
  155SAPE  H11R17239   6.698   4.721   7.389 -0.1877 -1.1249 -0.1222
  155SAPE  C21217240   6.742   4.700   7.594  0.6708 -0.0360  0.5102
  155SAPE  H12R17241   6.642   4.741   7.617 -0.0199  0.2451 -2.7270
  155SAPE  C21317242   6.824   4.659   7.716  0.0404 -0.3747  0.1881
  155SAPE  H13R17243   6.911   4.596   7.690 -0.9434 -0.9827 -1.7175
  155SAPE  H13S17244   6.749   4.598   7.771 -1.4688  1.0386 -0.2645
  155SAPE  C21417245   6.859   4.788   7.788  1.1205 -0.2290  0.5946
  155SAPE  H14R17246   6.925   4.851   7.728  1.2283 -1.6278 -0.7973
  155SAPE  C21517247   6.827   4.830   7.909 -0.3986 -0.2279 -0.0922
  155SAPE  H15R17248   6.863   4.927   7.947 -0.3994 -0.4276  0.4132
  155SAPE  C21617249   6.741   4.747   8.003  0.1867  0.0521 -0.2325
  155SAPE  H16R17250   6.661   4.701   7.940  0.7130  1.4750 -2.0021
  155SAPE  H16S17251   6.701   4.820   8.076 -0.0704  0.9111 -1.2071
  155SAPE  C21717252   6.824   4.645   8.090  0.7064 -0.1881  0.0683
  155SAPE  H17R17253   6.888   4.703   8.159 -0.6998  0.1317  1.1219
  155SAPE  H17S17254   6.900   4.598   8.023  0.0386 -0.9690 -0.1537
  155SAPE  C21817255   6.747   4.546   8.178  0.4308  0.5842  1.0859
  155SAPE  H18R17256   6.691   4.480   8.108  1.6813  1.2516 -0.5425
  155SAPE  H18S17257   6.677   4.610   8.237 -0.9327  0.6224 -0.5259
  155SAPE  C21917258   6.835   4.471   8.274  0.2117  0.5229  0.3103
  155SAPE  H19R17259   6.902   4.545   8.321  0.7427  0.0693  0.2785
  155SAPE  H19S17260   6.898   4.393   8.225 -1.0128 -0.0574 -0.3853
  155SAPE  C22017261   6.767   4.401   8.388  0.3305 -0.1852 -0.5405
  155SAPE  H20R17262   6.706   4.474   8.446 -0.8823 -1.1466 -0.5873
  155SAPE  H20S17263   6.843   4.347   8.447  0.0590  0.1500  0.1149
  155SAPE  H20T17264   6.697   4.325   8.348  0.1816 -0.2274 -0.1993
  155SAPE   C3317265   6.286   4.784   7.180 -0.0360  0.1551 -0.0679
  155SAPE   H3X17266   6.329   4.718   7.102 -1.6996 -2.4998  1.1615
  155SAPE   H3Y17267   6.192   4.735   7.214  0.2721 -0.7534 -0.5083
  155SAPE   C3417268   6.374   4.789   7.312  0.2121 -0.2701 -0.3407
  155SAPE   H4X17269   6.444   4.873   7.293 -0.9207  0.9342  0.6636
  155SAPE   H4Y17270   6.427   4.692   7.316 -0.7875 -0.8684 -1.3316
  155SAPE   C3517271   6.297   4.813   7.443 -0.1910 -0.2416 -0.1718
  155SAPE   H5X17272   6.227   4.727   7.444  0.1193 -0.4906  0.3853
  155SAPE   H5Y17273   6.249   4.913   7.433 -1.9577 -0.7141  2.8188
  155SAPE   C3617274   6.384   4.826   7.574  1.0152  0.1243  0.4833
  155SAPE   H6X17275   6.454   4.913   7.573  1.8648 -0.5626  0.2777
  155SAPE   H6Y17276   6.453   4.739   7.579 -0.9612 -1.7626 -3.2024
  155SAPE   C3717277   6.314   4.847   7.707 -0.1980 -0.4447  0.3885
  155SAPE   H7X17278   6.259   4.751   7.723 -0.3682 -0.5432 -0.7481
  155SAPE   H7Y17279   6.246   4.934   7.721 -0.6455 -0.6529 -0.4268
  155SAPE   C3817280   6.421   4.863   7.818  0.6479 -0.4264 -0.0460
  155SAPE   H8X17281   6.493   4.941   7.787  0.1988  0.1247  0.2863
  155SAPE   H8Y17282   6.478   4.768   7.822 -1.7797 -1.9016  1.2156
  155SAPE   C3917283   6.345   4.881   7.949 -0.8398  0.1089 -0.2765
  155SAPE   H9X17284   6.263   4.808   7.962  0.3232 -0.9086  1.5109
  155SAPE   H9Y17285   6.304   4.984   7.948 -1.6702 -0.2215 -1.0696
  155SAPE  C31017286   6.435   4.878   8.074 -0.4446  0.0122  0.1409
  155SAPE  H10X17287   6.524   4.943   8.059 -0.1041 -0.7660 -1.3801
  155SAPE  H10Y17288   6.470   4.773   8.085  1.6578  0.5997 -0.6240
  155SAPE  C31117289   6.355   4.932   8.197 -0.5121  0.8328  0.2032
  155SAPE  H11X17290   6.254   4.887   8.183 -0.3200 -0.0596  1.6914
  155SAPE  H11Y17291   6.331   5.040   8.187 -0.1269  0.8354 -0.7409
  155SAPE  C31217292   6.434   4.906   8.328  0.8940 -0.1078  0.0307
  155SAPE  H12X17293   6.516   4.981   8.334  2.3797 -1.8446  1.6992
  155SAPE  H12Y17294   6.479   4.805   8.326 -1.9502 -1.4532  1.2209
  155SAPE  C31317295   6.342   4.908   8.457  0.7814  0.1701  0.8570
  155SAPE  H13X17296   6.271   4.826   8.432 -0.4538  0.8117  2.1764
  155SAPE  H13Y17297   6.291   5.004   8.479 -2.9596 -0.8911 -2.5389
  155SAPE  C31417298   6.426   4.891   8.585  0.6571 -0.8597 -0.3863
  155SAPE  H14X17299   6.486   4.982   8.604  0.4450 -0.2764 -2.4337
  155SAPE  H14Y17300   6.498   4.808   8.569 -0.2334 -1.8342  0.5695
  155SAPE  C31517301   6.341   4.877   8.708 -0.3419 -0.0935  0.7221
  155SAPE  H15X17302   6.253   4.813   8.687 -0.9081  0.7340  0.5625
  155SAPE  H15Y17303   6.307   4.982   8.723  0.3855  0.1179  0.8937
  155SAPE  C31617304   6.420   4.842   8.833  1.0492  0.4251  0.1705
  155SAPE  H16X17305   6.348   4.867   8.914  1.6572  1.5107  0.3748
  155SAPE  H16Y17306   6.507   4.905   8.860  2.7114 -2.5523  2.0162
  155SAPE  C31717307   6.457   4.696   8.829 -0.0785  0.0153 -0.2130
  155SAPE  H17X17308   6.540   4.689   8.903  0.0259  3.0933 -0.0035
  155SAPE  H17Y17309   6.502   4.674   8.730 -0.9780 -1.4294 -0.3162
  155SAPE  C31817310   6.342   4.592   8.838  0.2881  0.9055  0.0258
  155SAPE  H18X17311   6.247   4.637   8.801 -0.8758 -0.8696  0.8160
  155SAPE  H18Y17312   6.319   4.562   8.942 -0.0341 -0.0355 -0.3171
  155SAPE  H18Z17313   6.367   4.510   8.767 -0.3702  2.3341 -1.9071
  156SAPE     N17314   4.603   4.620   6.305 -0.5713  0.0637 -0.4049
  156SAPE   HN117315   4.634   4.595   6.208 -0.6122  2.2661 -1.0184
  156SAPE   HN217316   4.642   4.546   6.367  1.2551  0.5729 -0.8912
  156SAPE   HN317317   4.501   4.613   6.321 -0.3225 -1.8010  0.4630
  156SAPE   C1217318   4.652   4.754   6.343  0.0948  0.6272  0.0225
  156SAPE  H12A17319   4.627   4.828   6.263  1.6648 -0.7363 -1.8000
  156SAPE  H12B17320   4.763   4.744   6.347 -0.0709 -1.6802 -0.5313
  156SAPE   C1117321   4.590   4.801   6.475  0.0361 -0.0909 -0.4178
  156SAPE  H11A17322   4.638   4.896   6.506 -0.8122 -0.3779  1.8539
  156SAPE  H11B17323   4.628   4.724   6.546 -1.0494  1.4074  1.8162
  156SAPE     P17324   4.374   4.940   6.441  0.0664  0.1440  0.3350
  156SAPE   O1317325   4.464   5.043   6.380  0.1967  0.8970 -0.5979
  156SAPE   O1417326   4.244   4.915   6.373  0.3386  0.1075  0.4658
  156SAPE   O1217327   4.446   4.801   6.473  0.2831  0.0349 -0.0972
  156SAPE   O1117328   4.329   4.992   6.589  0.3032  0.7849 -0.1116
  156SAPE    C117329   4.371   4.925   6.712 -0.0923  0.0802 -0.1453
  156SAPE    HA17330   4.344   4.818   6.716 -1.2026  0.4232  2.1559
  156SAPE    HB17331   4.480   4.938   6.730  0.0024  1.1234 -1.4075
  156SAPE    C217332   4.304   4.977   6.841 -0.1731  0.2615 -0.3708
  156SAPE    HS17333   4.195   4.972   6.822  0.2567  0.4562 -3.0794
  156SAPE   O2117334   4.352   5.110   6.862 -0.6690 -0.3740 -0.2698
  156SAPE   C2117335   4.282   5.210   6.797  0.2213  0.1592  0.6627
  156SAPE   O2217336   4.190   5.184   6.725  0.3627  0.0837  0.3275
  156SAPE   C2217337   4.353   5.344   6.809 -0.0160  0.1060  0.4693
  156SAPE   H2R17338   4.429   5.347   6.728 -0.4829  0.4247  0.0434
  156SAPE   H2S17339   4.270   5.417   6.800 -0.4443 -0.4940 -0.5061
  156SAPE    C317340   4.345   4.894   6.964 -0.0195  0.1663 -0.0430
  156SAPE    HX17341   4.455   4.897   6.971 -0.0781  0.8906  0.6527
  156SAPE    HY17342   4.316   4.789   6.941 -0.5074 -0.4982  3.2978
  156SAPE   O3117343   4.281   4.946   7.085  0.1560 -0.0128 -0.4717
  156SAPE   C3117344   4.364   5.012   7.167  0.1502  0.2480  0.5006
  156SAPE   O3217345   4.483   5.037   7.150  0.5070 -0.2074  0.5702
  156SAPE   C3217346   4.291   5.051   7.293  0.0158  0.2659  0.2595
  156SAPE   H2X17347   4.182   5.053   7.271 -0.1363 -3.6660  0.2178
  156SAPE   H2Y17348   4.322   5.153   7.322 -1.7324  0.2000  2.4688
  156SAPE   C2317349   4.414   5.345   6.951 -0.9069  0.7440  0.0101
  156SAPE   H3R17350   4.508   5.286   6.963 -0.5166  1.1183 -1.1172
  156SAPE   H3S17351   4.341   5.306   7.025 -1.3674  1.6802  0.0623
  156SAPE   C2417352   4.444   5.489   6.983 -0.3130 -0.9662  0.5113
  156SAPE   H4R17353   4.522   5.531   6.917  1.5392 -1.8476  2.1068
  156SAPE   H4S17354   4.495   5.487   7.081  0.8024  0.9371  0.0021
  156SAPE   C2517355   4.333   5.592   7.001 -0.1698 -0.6432  0.3697
  156SAPE   H5R17356   4.257   5.586   6.922  0.2013 -1.9104  0.0907
  156SAPE   C2617357   4.322   5.667   7.110 -0.3974 -0.3871 -0.0740
  156SAPE   H6R17358   4.242   5.742   7.120 -0.4675 -0.2204 -1.7506
  156SAPE   C2717359   4.404   5.671   7.236 -0.4461 -0.9041 -0.1107
  156SAPE   H7R17360   4.374   5.761   7.294 -1.2495 -0.8256 -0.6319
  156SAPE   H7S17361   4.509   5.698   7.213 -0.9148  2.8624  1.7803
  156SAPE   C2817362   4.400   5.545   7.322 -0.0293 -0.0122  0.0788
  156SAPE   H8R17363   4.354   5.463   7.265  1.2262 -0.1489 -0.7585
  156SAPE   C2917364   4.459   5.517   7.439  0.1597  0.3280 -0.1541
  156SAPE   H9R17365   4.434   5.421   7.486 -0.0352  0.7043  0.5211
  156SAPE  C21017366   4.550   5.608   7.511 -0.3081 -0.3949 -0.2380
  156SAPE  H10R17367   4.546   5.712   7.473 -0.2525  0.4069  1.8875
  156SAPE  H10S17368   4.658   5.586   7.515 -0.0409  0.7465 -0.9464
  156SAPE  C21117369   4.492   5.622   7.650 -0.4186 -0.7749  0.2563
  156SAPE  H11R17370   4.413   5.698   7.663  0.0781  0.0987 -1.7444
  156SAPE  C21217371   4.520   5.537   7.755 -0.6293  0.7838  0.0818
  156SAPE  H12R17372   4.486   5.563   7.856 -1.4281  0.9024 -0.2223
  156SAPE  C21317373   4.617   5.418   7.730 -0.3965  0.2381 -0.0377
  156SAPE  H13R17374   4.706   5.449   7.672 -1.4817  0.1760 -1.7731
  156SAPE  H13S17375   4.567   5.346   7.661  1.4327 -0.4478 -0.6763
  156SAPE  C21417376   4.670   5.350   7.851 -0.3199  0.0429 -0.2868
  156SAPE  H14R17377   4.780   5.352   7.856 -0.3093 -0.4749 -0.2244
  156SAPE  C21517378   4.611   5.299   7.958  0.6590 -0.3862  0.4674
  156SAPE  H15R17379   4.676   5.247   8.031  0.6788 -0.1743  0.5982
  156SAPE  C21617380   4.457   5.292   7.980 -0.5071  0.6281  0.0803
  156SAPE  H16R17381   4.417   5.189   7.972  0.2799  0.3491 -0.3698
  156SAPE  H16S17382   4.408   5.349   7.899 -1.5532 -2.1897 -1.3365
  156SAPE  C21717383   4.410   5.361   8.113  0.3021  0.0830  0.3413
  156SAPE  H17R17384   4.447   5.465   8.128  1.0818 -0.3948  1.8729
  156SAPE  H17S17385   4.449   5.298   8.196  0.7885 -2.5670 -1.8422
  156SAPE  C21817386   4.256   5.370   8.114 -0.0352 -0.3969 -0.0243
  156SAPE  H18R17387   4.230   5.402   8.217 -0.8671 -0.9784 -0.0436
  156SAPE  H18S17388   4.215   5.267   8.103  0.9472 -0.7863 -0.1762
  156SAPE  C21917389   4.195   5.465   8.010 -0.0973 -0.3596 -0.3271
  156SAPE  H19R17390   4.085   5.447   8.005 -0.0720  0.0297 -2.9750
  156SAPE  H19S17391   4.222   5.442   7.905  1.2134 -1.7906  0.3131
  156SAPE  C22017392   4.222   5.605   8.052 -0.0767 -0.0008 -0.4485
  156SAPE  H20R17393   4.177   5.621   8.152  2.9360  0.7264  0.8582
  156SAPE  H20S17394   4.180   5.676   7.978  3.1852  0.4797 -1.9301
  156SAPE  H20T17395   4.327   5.637   8.068  0.4603 -1.3595 -1.1136
  156SAPE   C3317396   4.327   4.961   7.410 -0.9130 -0.5155 -0.2103
  156SAPE   H3X17397   4.438   4.958   7.422 -1.1316 -0.4948  2.0527
  156SAPE   H3Y17398   4.282   4.863   7.386 -0.8626 -0.0181 -2.4281
  156SAPE   C3417399   4.268   5.013   7.547 -0.1214 -0.2197 -0.1133
  156SAPE   H4X17400   4.164   5.047   7.528 -0.1273 -0.4744 -0.5292
  156SAPE   H4Y17401   4.322   5.109   7.560 -3.2420  1.4359  1.4713
  156SAPE   C3517402   4.286   4.921   7.665  0.2051  0.4447 -0.5509
  156SAPE   H5X17403   4.251   4.818   7.646  0.6765 -0.0502  1.2177
  156SAPE   H5Y17404   4.219   4.961   7.744 -1.5876 -0.4906 -1.5673
  156SAPE   C3617405   4.432   4.913   7.721 -0.0309  0.0714 -0.3353
  156SAPE   H6X17406   4.500   4.994   7.684 -0.1013  0.7421  0.9919
  156SAPE   H6Y17407   4.476   4.825   7.670 -0.9585 -1.3277  1.2696
  156SAPE   C3717408   4.450   4.903   7.874  0.4006 -0.1138  0.1290
  156SAPE   H7X17409   4.402   4.806   7.898 -1.2655  0.6132 -0.1947
  156SAPE   H7Y17410   4.379   4.971   7.926 -1.6167 -0.7357 -1.7344
  156SAPE   C3817411   4.595   4.907   7.918  0.1946  0.2341 -0.6673
  156SAPE   H8X17412   4.622   5.014   7.930  1.2871 -0.1874  0.7986
  156SAPE   H8Y17413   4.656   4.861   7.838 -1.4138  0.8990 -2.3296
  156SAPE   C3917414   4.606   4.833   8.049 -0.4493 -0.3580 -0.3931
  156SAPE   H9X17415   4.559   4.734   8.034 -1.6262  0.1064  0.1114
  156SAPE   H9Y17416   4.542   4.880   8.127  1.1965 -1.6707  1.7608
  156SAPE  C31017417   4.753   4.817   8.111 -0.0687  0.1656  0.1729
  156SAPE  H10X17418   4.777   4.920   8.145 -1.7614  1.5120 -2.4941
  156SAPE  H10Y17419   4.828   4.781   8.038 -0.9007  0.7544 -0.9973
  156SAPE  C31117420   4.749   4.722   8.230 -0.6504 -0.0350  0.7687
  156SAPE  H11X17421   4.705   4.623   8.206 -0.4830 -0.0755  0.6193
  156SAPE  H11Y17422   4.701   4.759   8.323  2.4639  0.9639  2.0307
  156SAPE  C31217423   4.889   4.692   8.286 -0.2567 -0.0890  0.2429
  156SAPE  H12X17424   4.968   4.704   8.209 -1.4160 -0.7372 -1.0783
  156SAPE  H12Y17425   4.892   4.585   8.315  1.4479 -0.0362  0.3116
  156SAPE  C31317426   4.939   4.784   8.399  0.7770 -0.5738  0.7740
  156SAPE  H13X17427   4.874   4.783   8.489  2.0026  0.2615  1.6909
  156SAPE  H13Y17428   4.951   4.889   8.364  1.2502 -1.1996 -1.0021
  156SAPE  C31417429   5.073   4.732   8.452  0.7741 -0.1057  0.5924
  156SAPE  H14X17430   5.144   4.726   8.366 -0.7315  0.2655 -0.7159
  156SAPE  H14Y17431   5.060   4.628   8.489  2.3604 -0.4747  0.1459
  156SAPE  C31517432   5.134   4.821   8.565  0.4451  0.3551 -1.0285
  156SAPE  H15X17433   5.060   4.853   8.641  2.4534  1.4856  0.5300
  156SAPE  H15Y17434   5.181   4.913   8.523 -3.4066  2.8344 -0.1189
  156SAPE  C31617435   5.242   4.744   8.651  0.1811  0.0393 -0.1452
  156SAPE  H16X17436   5.204   4.649   8.694 -0.1039 -0.6135 -1.7780
  156SAPE  H16Y17437   5.279   4.801   8.738 -2.7126 -0.3195  1.3586
  156SAPE  C31717438   5.368   4.708   8.570  0.1619 -0.0074  0.3607
  156SAPE  H17X17439   5.338   4.623   8.505  1.9300  0.0654 -0.5795
  156SAPE  H17Y17440   5.435   4.666   8.649  1.6454 -1.1941 -1.4723
  156SAPE  C31817441   5.435   4.815   8.479 -0.6654  0.1166  0.4859
  156SAPE  H18X17442   5.366   4.847   8.398  2.6252  0.1918 -2.4241
  156SAPE  H18Y17443   5.528   4.769   8.438  0.2935  0.7376  1.9427
  156SAPE  H18Z17444   5.456   4.905   8.539 -1.0746 -1.8644  3.7355
  157SAPE     N17445   2.536   0.850   6.446  0.4417 -0.7264  0.1186
  157SAPE   HN117446   2.622   0.818   6.396 -0.8698 -4.5191  0.1858
  157SAPE   HN217447   2.503   0.943   6.414  0.8439 -0.5666  0.1585
  157SAPE   HN317448   2.544   0.857   6.550 -1.6213  3.5913  0.0992
  157SAPE   C1217449   2.448   0.741   6.406  0.3140 -0.2218  0.1277
  157SAPE  H12A17450   2.355   0.754   6.467  0.7903 -2.0116  1.2601
  157SAPE  H12B17451   2.495   0.647   6.441  2.3515  1.5072  2.1250
  157SAPE   C1117452   2.424   0.738   6.252 -0.7572 -0.2232  0.3731
  157SAPE  H11A17453   2.520   0.728   6.196 -0.7269  0.5423  0.2711
  157SAPE  H11B17454   2.378   0.834   6.220  0.8887  1.1396  1.9740
  157SAPE     P17455   2.194   0.607   6.243 -0.3052  0.1764  0.0267
  157SAPE   O1317456   2.129   0.737   6.271  0.6121  0.3581 -0.0565
  157SAPE   O1417457   2.140   0.523   6.134  0.0674  0.1042 -0.2418
  157SAPE   O1217458   2.354   0.616   6.214  0.0371  0.0398 -0.3688
  157SAPE   O1117459   2.182   0.529   6.372  0.3566 -0.3152 -0.5768
  157SAPE    C117460   2.267   0.417   6.384  0.2860  0.1067 -0.3258
  157SAPE    HA17461   2.247   0.350   6.298  1.2905  2.1002 -2.1572
  157SAPE    HB17462   2.370   0.457   6.375 -0.1385  1.7943  1.9503
  157SAPE    C217463   2.254   0.349   6.524  0.1199  0.0385 -0.0290
  157SAPE    HS17464   2.148   0.366   6.553  0.3342  2.2024 -0.4360
  157SAPE   O2117465   2.331   0.428   6.620 -0.8515 -0.0787 -0.5733
  157SAPE   C2117466   2.296   0.425   6.749 -0.7987 -0.5059  0.2325
  157SAPE   O2217467   2.203   0.359   6.798 -0.0601 -0.1460  0.4929
  157SAPE   C2217468   2.404   0.493   6.838 -0.4349  0.3991 -0.5168
  157SAPE   H2R17469   2.460   0.567   6.777  2.2929  0.1193  1.5716
  157SAPE   H2S17470   2.344   0.548   6.913 -0.4526 -1.3515  0.7951
  157SAPE    C317471   2.302   0.207   6.509  0.5958  0.1562  0.3183
  157SAPE    HX17472   2.408   0.207   6.477  0.2511  1.0656 -0.8527
  157SAPE    HY17473   2.250   0.159   6.422  3.2901 -2.7371  0.1924
  157SAPE   O3117474   2.295   0.136   6.637  0.2751 -0.3086  0.3024
  157SAPE   C3117475   2.180   0.072   6.652 -0.3186 -0.3187 -0.6878
  157SAPE   O3217476   2.097   0.060   6.567  0.1315 -0.1528  0.4690
  157SAPE   C3217477   2.193  -0.015   6.782  0.4808  0.1163 -0.4008
  157SAPE   H2X17478   2.284  -0.077   6.771  0.3587 -0.3562  1.1136
  157SAPE   H2Y17479   2.106  -0.083   6.796  1.4893 -1.3478 -1.1521
  157SAPE   C2317480   2.501   0.388   6.896  0.5449 -0.1880  0.4445
  157SAPE   H3R17481   2.558   0.339   6.814 -0.7183  1.9643 -1.7880
  157SAPE   H3S17482   2.433   0.309   6.934  0.3740  0.6489  1.9369
  157SAPE   C2417483   2.600   0.438   7.012  0.1990  0.5710 -0.3337
  157SAPE   H4R17484   2.540   0.487   7.091 -0.6166 -1.0605  0.0836
  157SAPE   H4S17485   2.666   0.522   6.981 -0.2230  1.1700  0.3809
  157SAPE   C2517486   2.684   0.321   7.053  0.1145  0.3494  0.6320
  157SAPE   H5R17487   2.754   0.279   6.979  0.0245  0.7813  0.2937
  157SAPE   C2617488   2.670   0.262   7.177 -0.4770  0.0826  0.9208
  157SAPE   H6R17489   2.732   0.175   7.202  0.6141  1.2650  2.4911
  157SAPE   C2717490   2.571   0.309   7.286 -0.5988 -0.3829  0.7928
  157SAPE   H7R17491   2.473   0.342   7.247 -2.0826 -2.3042  2.7200
  157SAPE   H7S17492   2.616   0.389   7.347 -1.3537  1.1302 -0.5987
  157SAPE   C2817493   2.537   0.190   7.378  0.0625  0.2256  0.2063
  157SAPE   H8R17494   2.482   0.108   7.330  2.5789 -1.4442  0.0729
  157SAPE   C2917495   2.573   0.182   7.510 -0.3302 -0.6370  0.3466
  157SAPE   H9R17496   2.540   0.089   7.559  0.0594 -1.0720 -0.2164
  157SAPE  C21017497   2.643   0.287   7.589 -0.9231  0.1064 -0.0776
  157SAPE  H10R17498   2.562   0.353   7.627 -0.4072  0.4553  0.4234
  157SAPE  H10S17499   2.704   0.355   7.527  0.3601 -2.0282 -1.1902
  157SAPE  C21117500   2.705   0.236   7.719  0.1505 -0.2068 -0.5426
  157SAPE  H11R17501   2.807   0.199   7.708  0.0574  0.0149 -2.1549
  157SAPE  C21217502   2.650   0.237   7.846  0.1810 -0.5502 -1.1505
  157SAPE  H12R17503   2.725   0.214   7.923 -0.2445 -2.2326 -1.2140
  157SAPE  C21317504   2.514   0.292   7.902  0.2237 -0.0740  0.8549
  157SAPE  H13R17505   2.480   0.225   7.984 -0.2340 -0.4559  0.3618
  157SAPE  H13S17506   2.436   0.278   7.824 -0.6881 -1.0960  1.9405
  157SAPE  C21417507   2.491   0.433   7.944 -0.0776 -1.2829 -0.4427
  157SAPE  H14R17508   2.477   0.504   7.862  0.9379  0.5041  0.9156
  157SAPE  C21517509   2.492   0.483   8.068  0.4218 -0.2065  0.1377
  157SAPE  H15R17510   2.483   0.592   8.080 -0.9061 -0.4089  1.1307
  157SAPE  C21617511   2.488   0.405   8.189 -0.3007 -0.7505  0.0892
  157SAPE  H16R17512   2.517   0.476   8.269  2.1237 -1.4940 -0.0915
  157SAPE  H16S17513   2.560   0.320   8.191  0.6554  0.0586 -0.0203
  157SAPE  C21717514   2.354   0.345   8.243  0.4446  0.6664  0.2527
  157SAPE  H17R17515   2.318   0.259   8.182 -0.2883  2.1563 -1.4524
  157SAPE  H17S17516   2.273   0.420   8.234 -0.3582 -0.0180  1.7156
  157SAPE  C21817517   2.350   0.313   8.395  0.1832 -0.3694  0.3683
  157SAPE  H18R17518   2.244   0.297   8.427  0.1216  1.0477  0.9436
  157SAPE  H18S17519   2.383   0.408   8.443 -0.1445 -0.8239  1.5160
  157SAPE  C21917520   2.425   0.185   8.439 -0.6333 -0.4244 -0.5061
  157SAPE  H19R17521   2.510   0.177   8.369 -1.6758  0.0443 -1.8521
  157SAPE  H19S17522   2.356   0.098   8.428  0.4642 -1.2963 -0.6027
  157SAPE  C22017523   2.468   0.187   8.586  0.1263 -0.6882  0.3946
  157SAPE  H20R17524   2.544   0.265   8.607  0.0448  0.3716 -2.9253
  157SAPE  H20S17525   2.514   0.089   8.611 -3.2020 -2.8152 -1.4597
  157SAPE  H20T17526   2.377   0.190   8.649 -0.3260 -3.3836 -0.0643
  157SAPE   C3317527   2.198   0.067   6.914  0.5066 -0.2362 -0.6337
  157SAPE   H3X17528   2.274   0.147   6.902  0.5720  0.0480  1.5081
  157SAPE   H3Y17529   2.242   0.009   6.997  2.6893  0.0688 -1.5441
  157SAPE   C3417530   2.063   0.115   6.959  0.3719 -0.0438  0.2842
  157SAPE   H4X17531   1.991   0.033   6.943 -3.3000  3.0293  0.2517
  157SAPE   H4Y17532   2.021   0.197   6.898 -1.8170 -0.5540  1.0785
  157SAPE   C3517533   2.066   0.162   7.107 -0.7720  0.2699 -0.0388
  157SAPE   H5X17534   2.116   0.090   7.174 -0.4596 -0.2438 -0.8119
  157SAPE   H5Y17535   1.961   0.178   7.139 -0.5139 -2.8758  2.5959
  157SAPE   C3617536   2.133   0.306   7.123 -0.0806  0.5691 -0.5190
  157SAPE   H6X17537   2.097   0.369   7.039 -0.2654  0.7910 -0.2714
  157SAPE   H6Y17538   2.244   0.304   7.115  0.1913 -1.0836  2.6505
  157SAPE   C3717539   2.086   0.379   7.250 -0.5798 -0.0857  0.5320
  157SAPE   H7X17540   1.975   0.382   7.250 -0.5636  0.6399 -0.3474
  157SAPE   H7Y17541   2.121   0.484   7.244 -1.2787  0.3023  2.6937
  157SAPE   C3817542   2.127   0.315   7.381 -0.7002 -0.2467  0.0969
  157SAPE   H8X17543   2.236   0.332   7.393 -0.6713  0.3607 -0.9935
  157SAPE   H8Y17544   2.107   0.206   7.390 -0.9601  0.0101  3.1645
  157SAPE   C3917545   2.062   0.397   7.491  0.1906  0.3482  0.1523
  157SAPE   H9X17546   1.952   0.383   7.490  0.4662 -2.5511  2.4807
  157SAPE   H9Y17547   2.072   0.506   7.473 -3.8475  0.6579 -0.6212
  157SAPE  C31017548   2.099   0.354   7.631  0.1897  0.0029 -0.3309
  157SAPE  H10X17549   2.208   0.372   7.649  0.6818 -1.9266 -1.2772
  157SAPE  H10Y17550   2.078   0.245   7.633  3.6738 -0.7427  0.0935
  157SAPE  C31117551   2.010   0.424   7.739 -0.0788  0.2487 -0.0283
  157SAPE  H11X17552   1.910   0.398   7.699  0.5789  0.8788 -2.1432
  157SAPE  H11Y17553   2.023   0.535   7.736 -1.7371  0.4851  1.0365
  157SAPE  C31217554   2.048   0.388   7.884  0.1603 -0.3180  0.0637
  157SAPE  H12X17555   2.156   0.392   7.909  0.1111 -2.7026  0.7493
  157SAPE  H12Y17556   2.011   0.285   7.900 -0.8014 -0.0273 -0.2037
  157SAPE  C31317557   1.959   0.464   7.994  0.0150  0.7239  0.6745
  157SAPE  H13X17558   1.854   0.467   7.958  0.3259  0.9082 -0.2264
  157SAPE  H13Y17559   1.990   0.570   7.984  0.9464  0.3245 -0.6477
  157SAPE  C31417560   1.977   0.421   8.137 -0.3436  0.5898 -0.5731
  157SAPE  H14X17561   2.074   0.446   8.187 -0.1045 -0.9222 -0.2559
  157SAPE  H14Y17562   1.965   0.311   8.129  0.1340  0.5849 -1.3021
  157SAPE  C31517563   1.868   0.496   8.218 -0.0223  0.0899 -0.1668
  157SAPE  H15X17564   1.766   0.453   8.205 -0.6571  0.5936  2.7841
  157SAPE  H15Y17565   1.864   0.604   8.192  2.3563  0.0731 -0.6614
  157SAPE  C31617566   1.889   0.495   8.370 -0.0256  0.0319 -0.2348
  157SAPE  H16X17567   1.987   0.530   8.407 -0.4339 -0.7470  1.6275
  157SAPE  H16Y17568   1.870   0.398   8.419 -0.9200  0.2490 -0.1380
  157SAPE  C31717569   1.800   0.593   8.449  0.0457  0.5420  0.2768
  157SAPE  H17X17570   1.692   0.572   8.437 -0.2055  1.5977  0.6338
  157SAPE  H17Y17571   1.814   0.694   8.405  1.3332  0.9044  1.4552
  157SAPE  C31817572   1.834   0.584   8.595 -0.5067 -0.4967 -0.0712
  157SAPE  H18X17573   1.804   0.487   8.642 -1.6095 -0.1161  0.0195
  157SAPE  H18Y17574   1.785   0.665   8.653 -0.4006 -0.0079 -0.6633
  157SAPE  H18Z17575   1.940   0.613   8.615 -0.9312  1.5199 -0.6673
  158SAPE     N17576   4.016   5.032   6.445 -0.1863  0.6427 -0.5209
  158SAPE   HN117577   3.955   5.014   6.362  1.8996 -2.1865 -1.5096
  158SAPE   HN217578   4.041   5.133   6.453 -1.0792  0.7831  0.6658
  158SAPE   HN317579   4.101   4.973   6.436 -0.5971 -0.2941  1.5303
  158SAPE   C1217580   3.944   4.969   6.565 -0.2259  0.2009  0.1594
  158SAPE  H12A17581   3.897   5.049   6.626 -0.4323 -0.5210  0.9615
  158SAPE  H12B17582   4.028   4.931   6.628  0.9915  0.7899 -1.0790
  158SAPE   C1117583   3.847   4.860   6.521  0.4368  0.1962 -0.7562
  158SAPE  H11A17584   3.761   4.911   6.473 -0.7932 -0.8432  0.2873
  158SAPE  H11B17585   3.802   4.805   6.607 -0.4194 -0.8590 -1.8561
  158SAPE     P17586   3.822   4.648   6.375 -0.4511 -0.0933 -0.2577
  158SAPE   O1317587   3.678   4.673   6.384  0.2278  0.5874 -0.1720
  158SAPE   O1417588   3.867   4.617   6.237 -0.7250  0.3771 -0.7020
  158SAPE   O1217589   3.901   4.770   6.431  0.5703 -0.3204 -0.6420
  158SAPE   O1117590   3.873   4.526   6.462  0.1143  0.4938 -0.7658
  158SAPE    C117591   3.828   4.495   6.593  0.9682  0.6108  0.0639
  158SAPE    HA17592   3.732   4.542   6.624 -0.1030 -1.0611 -0.6835
  158SAPE    HB17593   3.808   4.386   6.599  0.2024  0.7687  0.5799
  158SAPE    C217594   3.922   4.549   6.699  0.7422  0.6378 -0.3147
  158SAPE    HS17595   3.936   4.659   6.692  2.3273  0.5974  1.4979
  158SAPE   O2117596   4.049   4.481   6.683 -0.5329 -0.1376  0.0461
  158SAPE   C2117597   4.158   4.546   6.715  0.1314  0.7689  0.0586
  158SAPE   O2217598   4.155   4.657   6.769 -0.4316 -0.0482  0.3245
  158SAPE   C2217599   4.281   4.457   6.688 -0.5364 -0.1463  0.0265
  158SAPE   H2R17600   4.292   4.389   6.774 -3.1782 -0.3283  0.2661
  158SAPE   H2S17601   4.266   4.395   6.597 -1.7633  0.9586 -0.5561
  158SAPE    C317602   3.856   4.528   6.843 -0.1765 -0.2577  0.5442
  158SAPE    HX17603   3.838   4.420   6.863 -1.2845 -0.2921 -0.5815
  158SAPE    HY17604   3.750   4.561   6.848 -0.8249 -2.2687  0.4677
  158SAPE   O3117605   3.937   4.592   6.938  0.5488  0.1011  0.1878
  158SAPE   C3117606   3.919   4.720   6.964 -0.2401  0.0197  0.4695
  158SAPE   O3217607   3.847   4.793   6.905  0.3353  0.4319 -0.0806
  158SAPE   C3217608   4.019   4.764   7.065  0.0410 -0.3678  0.2597
  158SAPE   H2X17609   4.108   4.781   7.001 -0.2441  0.1751  0.0008
  158SAPE   H2Y17610   4.052   4.677   7.125  1.5788 -0.8674 -1.2875
  158SAPE   C2317611   4.407   4.546   6.650 -0.4685  0.7306 -0.1174
  158SAPE   H3R17612   4.367   4.636   6.598  1.5497  2.5247  1.3800
  158SAPE   H3S17613   4.468   4.479   6.586  1.6954 -3.5542  6.0237
  158SAPE   C2417614   4.485   4.586   6.777  0.3073 -0.2353  0.2347
  158SAPE   H4R17615   4.408   4.636   6.839 -1.8165  0.5868 -2.9806
  158SAPE   H4S17616   4.558   4.668   6.761 -0.6980  0.6374  0.0859
  158SAPE   C2517617   4.539   4.484   6.874  0.4805 -0.0545  0.2591
  158SAPE   H5R17618   4.623   4.423   6.837  0.8432 -0.4985  1.7647
  158SAPE   C2617619   4.483   4.439   6.990 -0.2861 -0.6428  0.3557
  158SAPE   H6R17620   4.537   4.353   7.034 -1.2846 -0.8337  1.2391
  158SAPE   C2717621   4.358   4.497   7.053  0.1047  0.0976 -0.6513
  158SAPE   H7R17622   4.283   4.417   7.072  0.0172 -0.0393 -1.5230
  158SAPE   H7S17623   4.301   4.572   6.994 -1.0687 -0.5544 -0.3591
  158SAPE   C2817624   4.386   4.581   7.180 -0.3142  0.1965 -0.5347
  158SAPE   H8R17625   4.473   4.648   7.166  0.2450 -0.5885 -0.8521
  158SAPE   C2917626   4.330   4.580   7.298 -0.9110 -0.2639  0.0571
  158SAPE   H9R17627   4.369   4.656   7.369  1.4135 -0.8629 -0.5545
  158SAPE  C21017628   4.215   4.492   7.332 -0.2834  0.3357  0.5095
  158SAPE  H10R17629   4.156   4.460   7.243  3.4005 -0.3754 -1.7954
  158SAPE  H10S17630   4.139   4.548   7.391  0.5694  1.9718  0.0787
  158SAPE  C21117631   4.275   4.378   7.418  0.4733 -0.3434 -0.1051
  158SAPE  H11R17632   4.358   4.321   7.373  0.7041 -1.2456  1.4406
  158SAPE  C21217633   4.238   4.339   7.544  0.1551  0.4886 -0.7390
  158SAPE  H12R17634   4.283   4.247   7.584 -1.8308 -0.2301 -0.0892
  158SAPE  C21317635   4.136   4.407   7.629 -0.3577  0.4340  0.1456
  158SAPE  H13R17636   4.074   4.336   7.688  0.3439 -0.4804 -0.2133
  158SAPE  H13S17637   4.070   4.447   7.549  2.5228 -1.0756 -3.1251
  158SAPE  C21417638   4.203   4.520   7.705  0.1289 -0.7420 -0.4809
  158SAPE  H14R17639   4.225   4.609   7.644  2.2593 -0.5188  0.5581
  158SAPE  C21517640   4.227   4.512   7.835 -0.2779 -0.1464  0.1813
  158SAPE  H15R17641   4.288   4.593   7.875  1.7280 -1.0399 -0.9833
  158SAPE  C21617642   4.207   4.390   7.918  0.1635 -0.5119  0.2352
  158SAPE  H16R17643   4.305   4.364   7.963  0.7456  1.5600  0.2490
  158SAPE  H16S17644   4.180   4.303   7.855 -0.9158  0.2313 -0.3384
  158SAPE  C21717645   4.103   4.412   8.028  0.3846 -0.0883  0.4182
  158SAPE  H17R17646   4.011   4.445   7.976  1.0956 -1.5432 -1.8429
  158SAPE  H17S17647   4.135   4.493   8.096  2.6843 -1.3188  0.8529
  158SAPE  C21817648   4.064   4.289   8.113 -0.3873  0.1138 -0.3416
  158SAPE  H18R17649   4.034   4.210   8.041 -1.3221 -0.1894  0.3782
  158SAPE  H18S17650   3.973   4.320   8.168 -1.2094  0.7291 -2.0309
  158SAPE  C21917651   4.187   4.256   8.201  0.2383  0.2042 -0.7016
  158SAPE  H19R17652   4.251   4.344   8.223  0.0701  0.8503 -2.6591
  158SAPE  H19S17653   4.257   4.186   8.151  0.0106 -0.6202  0.1207
  158SAPE  C22017654   4.145   4.197   8.340 -0.1441 -0.1090 -0.5698
  158SAPE  H20R17655   4.086   4.109   8.306  1.1430 -0.3493 -2.2869
  158SAPE  H20S17656   4.079   4.268   8.393  0.0332 -0.9297  0.7711
  158SAPE  H20T17657   4.233   4.170   8.401  0.8440  1.4675 -1.2871
  158SAPE   C3317658   3.967   4.883   7.154 -0.0696 -0.1272  0.1381
  158SAPE   H3X17659   3.935   4.972   7.095 -0.6963 -0.3744  0.1022
  158SAPE   H3Y17660   4.061   4.914   7.203 -0.6573  0.3670  0.9664
  158SAPE   C3417661   3.858   4.830   7.251 -0.8149  0.3715  0.3991
  158SAPE   H4X17662   3.778   4.777   7.196 -1.2642 -1.4999  2.7526
  158SAPE   H4Y17663   3.820   4.924   7.295 -1.6344  0.5827 -0.7454
  158SAPE   C3517664   3.913   4.750   7.371  1.1869 -0.3780  0.2756
  158SAPE   H5X17665   4.012   4.792   7.399  0.6713 -0.1640  1.8253
  158SAPE   H5Y17666   3.933   4.642   7.356 -1.7441 -0.8332 -0.6960
  158SAPE   C3617667   3.818   4.757   7.494 -0.7599  0.6811 -0.1432
  158SAPE   H6X17668   3.730   4.695   7.467 -0.2357 -0.0310 -0.2443
  158SAPE   H6Y17669   3.779   4.861   7.495  0.7059  1.2421 -0.2885
  158SAPE   C3717670   3.884   4.720   7.625  0.7020 -0.0757  0.3747
  158SAPE   H7X17671   3.893   4.610   7.630  1.3322  0.0506  2.1379
  158SAPE   H7Y17672   3.981   4.775   7.623  1.2797 -1.0943 -0.3289
  158SAPE   C3817673   3.820   4.789   7.748 -0.1265 -0.9460 -0.5467
  158SAPE   H8X17674   3.721   4.743   7.771 -1.1893  1.3641 -0.3304
  158SAPE   H8Y17675   3.800   4.896   7.725 -0.2037 -0.8585 -0.0750
  158SAPE   C3917676   3.920   4.777   7.865 -0.6243 -0.4637  0.6730
  158SAPE   H9X17677   4.008   4.832   7.825 -0.8742 -0.6226 -0.0951
  158SAPE   H9Y17678   3.946   4.669   7.866  2.0370  0.1470  1.9061
  158SAPE  C31017679   3.878   4.822   8.007 -0.1431  0.8046 -0.1071
  158SAPE  H10X17680   3.855   4.733   8.070  0.8192  2.2939  2.4079
  158SAPE  H10Y17681   3.780   4.873   8.009  0.1123  1.3059 -0.3136
  158SAPE  C31117682   3.981   4.910   8.083  0.3212  0.0075 -0.2139
  158SAPE  H11X17683   3.940   4.935   8.184 -0.1587  0.1427 -0.4389
  158SAPE  H11Y17684   3.997   5.005   8.029 -2.4612  1.0474  0.6712
  158SAPE  C31217685   4.122   4.845   8.096  0.8753 -0.4018 -0.3752
  158SAPE  H12X17686   4.170   4.850   7.996  0.7045  2.6050 -0.3641
  158SAPE  H12Y17687   4.112   4.742   8.136  0.4094  0.2249  1.1403
  158SAPE  C31317688   4.217   4.932   8.188  0.2718  0.4717 -0.6971
  158SAPE  H13X17689   4.198   5.041   8.178 -1.5912  0.1571 -0.9022
  158SAPE  H13Y17690   4.320   4.907   8.155  0.7079  0.3202  0.7452
  158SAPE  C31417691   4.213   4.874   8.328 -0.4063 -0.0023  0.5961
  158SAPE  H14X17692   4.109   4.854   8.361  0.2018 -1.2941  1.7729
  158SAPE  H14Y17693   4.267   4.946   8.394 -0.8316  0.6607  0.2272
  158SAPE  C31517694   4.294   4.733   8.343 -0.2649  0.0062  0.3262
  158SAPE  H15X17695   4.400   4.748   8.313 -0.0210  1.0231  1.6371
  158SAPE  H15Y17696   4.253   4.661   8.269 -1.8986  2.4258 -1.1768
  158SAPE  C31617697   4.281   4.676   8.484  0.0422  0.3094  0.8746
  158SAPE  H16X17698   4.305   4.569   8.471 -1.6130  0.2013 -1.6628
  158SAPE  H16Y17699   4.180   4.659   8.525  0.7787 -2.3472  1.6473
  158SAPE  C31717700   4.366   4.742   8.586 -0.4524  0.4585 -0.2508
  158SAPE  H17X17701   4.333   4.847   8.591 -1.5798  0.1386 -0.9102
  158SAPE  H17Y17702   4.472   4.747   8.552  0.3729  0.7801  2.2474
  158SAPE  C31817703   4.380   4.673   8.719 -0.2194 -0.5923 -0.8205
  158SAPE  H18X17704   4.296   4.692   8.790  0.1719 -1.0644 -0.2269
  158SAPE  H18Y17705   4.461   4.719   8.780 -0.0439 -0.1901 -1.3538
  158SAPE  H18Z17706   4.393   4.564   8.706  1.8765 -0.4983  0.2947
  159SAPE     N17707   3.349   1.820   6.133 -0.1010  0.2796 -0.2988
  159SAPE   HN117708   3.391   1.909   6.101 -2.2668  0.9452 -1.3395
  159SAPE   HN217709   3.319   1.776   6.044 -0.7132 -1.0596  0.5420
  159SAPE   HN317710   3.270   1.841   6.198 -1.4621 -2.9264 -0.7946
  159SAPE   C1217711   3.456   1.734   6.189  0.2872 -0.5019 -0.6307
  159SAPE  H12A17712   3.490   1.774   6.287 -1.3239 -0.2064 -0.1846
  159SAPE  H12B17713   3.543   1.741   6.120  2.0516 -0.1458  1.5652
  159SAPE   C1117714   3.406   1.586   6.217 -0.4659 -0.1401  0.5707
  159SAPE  H11A17715   3.311   1.591   6.274 -1.0500 -0.6506 -0.3440
  159SAPE  H11B17716   3.483   1.523   6.267  0.4767  1.0550  0.6405
  159SAPE     P17717   3.259   1.446   6.056  0.2941 -0.2636  0.4632
  159SAPE   O1317718   3.143   1.533   6.063 -0.4774  0.0191 -0.3871
  159SAPE   O1417719   3.276   1.377   5.925 -0.7119  0.7140 -0.8566
  159SAPE   O1217720   3.391   1.534   6.085 -0.3319 -0.0714  0.3632
  159SAPE   O1117721   3.263   1.338   6.174  0.3250 -0.2322  0.1230
  159SAPE    C117722   3.310   1.204   6.159  0.7233 -0.3935 -0.0981
  159SAPE    HA17723   3.232   1.136   6.118  0.0477  0.3929 -0.1099
  159SAPE    HB17724   3.399   1.194   6.093  0.0002  0.5416 -1.2213
  159SAPE    C217725   3.356   1.152   6.302  0.1966 -0.0063 -0.4946
  159SAPE    HS17726   3.393   1.048   6.287  0.2984 -0.0383 -0.0118
  159SAPE   O2117727   3.277   1.160   6.414 -0.6453  0.6387  0.1765
  159SAPE   C2117728   3.157   1.097   6.402  0.2529  0.1959  0.0517
  159SAPE   O2217729   3.124   1.032   6.305  0.3022  0.0359 -0.3249
  159SAPE   C2217730   3.070   1.124   6.526  1.2468 -0.3113 -0.2339
  159SAPE   H2R17731   3.120   1.088   6.618  1.0846  0.9816  0.3739
  159SAPE   H2S17732   3.043   1.232   6.518 -1.3368 -1.0438 -2.0032
  159SAPE    C317733   3.482   1.238   6.346 -0.2250  0.1512 -0.1640
  159SAPE    HX17734   3.439   1.339   6.363 -2.5843 -0.4945 -1.9733
  159SAPE    HY17735   3.553   1.235   6.261 -1.0578  1.7497 -0.9270
  159SAPE   O3117736   3.558   1.189   6.459 -0.3916  0.1908 -0.1304
  159SAPE   C3117737   3.633   1.272   6.518  0.4617 -0.8970  0.0771
  159SAPE   O3217738   3.652   1.390   6.504 -0.2039  0.1384  0.1020
  159SAPE   C3217739   3.699   1.198   6.630 -0.8515  0.1870  0.1035
  159SAPE   H2X17740   3.744   1.100   6.605  0.1579  0.1654  1.8963
  159SAPE   H2Y17741   3.620   1.194   6.709 -0.0080  1.5261  1.0416
  159SAPE   C2317742   2.934   1.042   6.517 -0.0616  0.0534 -0.5553
  159SAPE   H3R17743   2.967   0.936   6.505  1.2956  0.5476 -1.2709
  159SAPE   H3S17744   2.874   1.068   6.428 -1.0235  0.8827  0.3289
  159SAPE   C2417745   2.853   1.043   6.646  0.6061  0.1619 -0.1411
  159SAPE   H4R17746   2.926   1.013   6.724  0.5451  0.2115 -0.0642
  159SAPE   H4S17747   2.779   0.961   6.655  0.1065  0.5920 -0.2711
  159SAPE   C2517748   2.792   1.178   6.676 -0.3295  0.5029 -0.3749
  159SAPE   H5R17749   2.745   1.235   6.595 -3.1952  1.8143  2.0765
  159SAPE   C2617750   2.798   1.236   6.798  0.0004  0.0468  0.2209
  159SAPE   H6R17751   2.766   1.341   6.800 -0.2808 -0.0462  0.5540
  159SAPE   C2717752   2.880   1.185   6.919 -0.6294 -0.4936 -0.9124
  159SAPE   H7R17753   2.904   1.276   6.979 -1.6779 -0.1719 -0.9680
  159SAPE   H7S17754   2.976   1.140   6.887 -0.2308  0.9999 -1.8703
  159SAPE   C2817755   2.809   1.072   6.990 -1.0460 -0.8297 -0.6529
  159SAPE   H8R17756   2.758   0.997   6.927  2.0267 -2.4021 -1.3557
  159SAPE   C2917757   2.789   1.060   7.124 -0.1142 -0.3155 -0.1274
  159SAPE   H9R17758   2.755   0.960   7.156  2.5391 -2.4627 -3.5778
  159SAPE  C21017759   2.834   1.154   7.230  0.4039 -0.8186 -0.2166
  159SAPE  H10R17760   2.752   1.175   7.301  1.5230 -1.9543  1.4497
  159SAPE  H10S17761   2.855   1.251   7.180 -3.8968 -0.5283 -1.6854
  159SAPE  C21117762   2.955   1.126   7.312  0.2008 -0.0025  0.5054
  159SAPE  H11R17763   3.051   1.131   7.259  1.6725 -2.1673  2.8837
  159SAPE  C21217764   2.963   1.087   7.441  0.0601  0.2872 -0.5857
  159SAPE  H12R17765   3.068   1.081   7.475 -0.5978 -1.2651  1.2749
  159SAPE  C21317766   2.857   1.064   7.544  0.1299 -0.0165 -0.1220
  159SAPE  H13R17767   2.885   0.974   7.603  0.2065  0.8782  1.2072
  159SAPE  H13S17768   2.764   1.038   7.488 -0.3249 -0.3708  0.7811
  159SAPE  C21417769   2.837   1.186   7.624 -0.5280  0.2861  0.0622
  159SAPE  H14R17770   2.752   1.250   7.595 -0.4071  0.8142  0.8486
  159SAPE  C21517771   2.897   1.220   7.746  0.7108  0.0953 -0.3406
  159SAPE  H15R17772   2.873   1.317   7.791 -0.3217  0.2013 -1.0888
  159SAPE  C21617773   2.994   1.135   7.828  0.5034 -0.3538 -0.1348
  159SAPE  H16R17774   3.065   1.195   7.888  0.9593 -2.3798  1.3708
  159SAPE  H16S17775   3.060   1.078   7.759  0.4403  1.8054 -2.0400
  159SAPE  C21717776   2.921   1.048   7.929  0.2467 -0.0558 -0.0862
  159SAPE  H17R17777   2.988   0.968   7.968  0.3237  0.4021  0.7247
  159SAPE  H17S17778   2.840   0.995   7.875 -0.2015 -0.0875  0.6071
  159SAPE  C21817779   2.866   1.123   8.049  0.0143 -0.6497 -0.3729
  159SAPE  H18R17780   2.821   1.068   8.135 -0.1922  1.3077  0.8194
  159SAPE  H18S17781   2.779   1.185   8.020 -0.9786 -2.1793 -0.6726
  159SAPE  C21917782   2.962   1.217   8.116  0.0711  0.2987  0.3221
  159SAPE  H19R17783   2.907   1.255   8.205  0.8824 -1.3023  1.5241
  159SAPE  H19S17784   2.980   1.313   8.062  0.4545  0.3495  0.5403
  159SAPE  C22017785   3.092   1.152   8.155  0.0976  0.1932 -0.0177
  159SAPE  H20R17786   3.162   1.139   8.070 -1.2700  0.3619 -1.1838
  159SAPE  H20S17787   3.086   1.054   8.209 -0.0179  0.0817 -0.2334
  159SAPE  H20T17788   3.138   1.232   8.217  0.3734  1.2720 -1.6136
  159SAPE   C3317789   3.805   1.277   6.701  0.4895  0.1060  0.1096
  159SAPE   H3X17790   3.777   1.385   6.708 -0.0549  0.0505 -1.0932
  159SAPE   H3Y17791   3.896   1.277   6.637 -1.7526 -0.3033 -3.1595
  159SAPE   C3417792   3.815   1.225   6.850 -0.2634 -0.1605  0.4971
  159SAPE   H4X17793   3.836   1.116   6.839 -0.0432 -0.2206  1.4388
  159SAPE   H4Y17794   3.713   1.240   6.890 -0.7042 -0.3886 -0.5178
  159SAPE   C3517795   3.909   1.305   6.931 -0.5314 -0.5028 -0.2743
  159SAPE   H5X17796   3.894   1.415   6.934 -1.5648 -0.6714  1.0246
  159SAPE   H5Y17797   4.009   1.294   6.883 -0.3102  0.5146 -0.0582
  159SAPE   C3617798   3.928   1.246   7.073 -0.1447 -0.4760  0.0123
  159SAPE   H6X17799   4.015   1.302   7.113 -1.4640  1.0335  0.8408
  159SAPE   H6Y17800   3.960   1.140   7.065  2.7437  0.2721  1.1160
  159SAPE   C3717801   3.803   1.250   7.163 -0.3828  0.1591 -0.8066
  159SAPE   H7X17802   3.735   1.178   7.112 -0.3299 -0.0705 -0.5552
  159SAPE   H7Y17803   3.759   1.351   7.150 -0.1145  0.2241 -1.2291
  159SAPE   C3817804   3.828   1.187   7.301 -1.0019  0.3395 -0.0101
  159SAPE   H8X17805   3.881   1.263   7.362 -2.0122  0.9825  0.0720
  159SAPE   H8Y17806   3.892   1.096   7.310 -0.7564  0.5974  0.8668
  159SAPE   C3917807   3.699   1.163   7.376 -0.0906  0.1306  0.5409
  159SAPE   H9X17808   3.638   1.093   7.315 -1.0492  0.7340  0.7921
  159SAPE   H9Y17809   3.641   1.258   7.379  1.8215  1.3907 -1.2961
  159SAPE  C31017810   3.735   1.127   7.519 -0.0716  0.1293  0.4921
  159SAPE  H10X17811   3.789   1.217   7.557 -0.0951 -0.6319  2.3417
  159SAPE  H10Y17812   3.805   1.041   7.522  0.0474  0.2240  0.4373
  159SAPE  C31117813   3.619   1.104   7.617 -0.1518 -0.1700 -0.5534
  159SAPE  H11X17814   3.556   1.024   7.573 -0.9597  0.0529  0.1984
  159SAPE  H11Y17815   3.556   1.195   7.623  2.0075  1.3593 -0.4951
  159SAPE  C31217816   3.672   1.077   7.758 -0.1711  0.9346 -0.7823
  159SAPE  H12X17817   3.769   1.128   7.775  0.5938 -0.8776  0.5125
  159SAPE  H12Y17818   3.684   0.967   7.769 -0.2846  1.0311  0.3625
  159SAPE  C31317819   3.573   1.123   7.869  0.2803 -0.3344 -0.8923
  159SAPE  H13X17820   3.479   1.066   7.856 -1.8360  2.3153  1.9769
  159SAPE  H13Y17821   3.547   1.230   7.855 -1.9932 -0.9027 -1.2776
  159SAPE  C31417822   3.629   1.093   8.012  0.3547  0.1837  0.1973
  159SAPE  H14X17823   3.729   1.141   8.010  0.7914 -0.7455 -0.6074
  159SAPE  H14Y17824   3.649   0.985   8.027 -1.7892 -0.2341  0.2433
  159SAPE  C31517825   3.563   1.155   8.132  0.2607 -0.1301  0.1361
  159SAPE  H15X17826   3.474   1.098   8.166 -0.6612  1.5065  0.5332
  159SAPE  H15Y17827   3.525   1.255   8.102 -0.0255 -0.3888 -0.3659
  159SAPE  C31617828   3.642   1.165   8.266 -0.2763 -0.7061 -0.8921
  159SAPE  H16X17829   3.569   1.207   8.339 -2.1552 -0.2839 -2.9611
  159SAPE  H16Y17830   3.722   1.241   8.257 -1.5945  0.6386 -1.4510
  159SAPE  C31717831   3.701   1.036   8.313  0.7365 -0.0186 -0.6148
  159SAPE  H17X17832   3.790   1.011   8.252  1.9126  0.0907  0.9948
  159SAPE  H17Y17833   3.634   0.948   8.313  0.6267  0.0672 -0.8502
  159SAPE  C31817834   3.745   1.043   8.460 -0.5142  0.0247 -0.1959
  159SAPE  H18X17835   3.785   0.943   8.489 -2.5453 -0.4969  0.8855
  159SAPE  H18Y17836   3.656   1.062   8.523 -0.1533 -2.2179  1.0717
  159SAPE  H18Z17837   3.817   1.125   8.479 -0.7310 -0.2185  1.8131
  160SAPE     N17838   4.184   6.490   6.541  0.0469  0.5285  0.7971
  160SAPE   HN117839   4.207   6.591   6.546  1.4313  0.2670  0.0484
  160SAPE   HN217840   4.138   6.472   6.633 -1.8286  2.2717  0.2233
  160SAPE   HN317841   4.282   6.455   6.547 -0.2380 -0.7473 -1.5652
  160SAPE   C1217842   4.109   6.427   6.419 -0.5084 -0.6217  0.2099
  160SAPE  H12A17843   4.133   6.319   6.412  2.6800 -0.0286  1.0749
  160SAPE  H12B17844   4.160   6.473   6.332  0.3294  0.5409  1.2826
  160SAPE   C1117845   3.961   6.469   6.427 -0.1996  0.4748 -0.0473
  160SAPE  H11A17846   3.957   6.580   6.432 -0.4078  0.4062  1.9911
  160SAPE  H11B17847   3.913   6.438   6.522  1.2123  1.6419  1.0828
  160SAPE     P17848   3.750   6.469   6.272  0.1002  0.1417 -0.2056
  160SAPE   O1317849   3.742   6.610   6.299 -0.4104  0.0504  0.0508
  160SAPE   O1417850   3.729   6.438   6.132  0.4969 -0.1862  0.0129
  160SAPE   O1217851   3.896   6.414   6.318 -0.3684  0.4595 -0.2448
  160SAPE   O1117852   3.637   6.399   6.355  0.3185 -0.7805 -0.3328
  160SAPE    C117853   3.651   6.284   6.433 -0.1677  0.5899 -0.6357
  160SAPE    HA17854   3.565   6.218   6.410 -0.6745  1.1783 -0.4331
  160SAPE    HB17855   3.754   6.242   6.431  0.0556  1.1201 -0.3560
  160SAPE    C217856   3.618   6.307   6.579  0.4890 -0.4320 -0.7903
  160SAPE    HS17857   3.513   6.344   6.584  0.5928 -0.3860  1.8100
  160SAPE   O2117858   3.709   6.406   6.635 -0.3411 -0.2093  0.6807
  160SAPE   C2117859   3.653   6.519   6.685 -0.4509 -0.2935 -0.0882
  160SAPE   O2217860   3.535   6.548   6.683  0.0840  0.2839 -0.4719
  160SAPE   C2217861   3.764   6.597   6.758  0.2122 -0.3315  0.0984
  160SAPE   H2R17862   3.812   6.530   6.833  0.1829 -0.1391  0.2877
  160SAPE   H2S17863   3.833   6.633   6.679  1.1137 -1.0114  0.5676
  160SAPE    C317864   3.622   6.176   6.666 -0.2956 -0.0521  0.2655
  160SAPE    HX17865   3.730   6.153   6.683  0.0057 -0.3794 -1.9424
  160SAPE    HY17866   3.582   6.095   6.603 -0.9170  0.1714  0.3722
  160SAPE   O3117867   3.554   6.192   6.791 -0.1061 -0.0138  0.1331
  160SAPE   C3117868   3.625   6.177   6.904  0.2275  0.2215 -0.4857
  160SAPE   O3217869   3.745   6.200   6.911  0.5871  0.3823  0.0831
  160SAPE   C3217870   3.535   6.131   7.017  0.1389  0.1970  0.5469
  160SAPE   H2X17871   3.537   6.020   7.019  2.6245  0.2140  1.3201
  160SAPE   H2Y17872   3.436   6.172   6.987  0.7090 -0.4325 -2.3657
  160SAPE   C2317873   3.697   6.719   6.824 -0.6527 -0.0410  0.0952
  160SAPE   H3R17874   3.641   6.775   6.746  0.0181  0.1744 -0.2456
  160SAPE   H3S17875   3.783   6.786   6.849 -0.5515 -0.3526  0.5889
  160SAPE   C2417876   3.621   6.705   6.953 -0.2278  0.1648  0.1538
  160SAPE   H4R17877   3.696   6.656   7.018 -0.0316 -0.6117 -0.6508
  160SAPE   H4S17878   3.541   6.632   6.928 -0.9971  1.2229 -0.5046
  160SAPE   C2517879   3.550   6.825   7.006 -0.7085 -0.5654  0.9479
  160SAPE   H5R17880   3.445   6.828   6.973 -0.9255 -1.2636  1.5402
  160SAPE   C2617881   3.600   6.910   7.101 -0.0369 -0.8127  0.3028
  160SAPE   H6R17882   3.530   6.985   7.139  0.1302 -1.3503  1.6732
  160SAPE   C2717883   3.736   6.894   7.170 -0.3993 -0.0097 -0.3747
  160SAPE   H7R17884   3.811   6.869   7.092 -0.4603 -0.3766 -0.3179
  160SAPE   H7S17885   3.738   6.812   7.245 -0.1379  0.8003  0.5185
  160SAPE   C2817886   3.782   7.026   7.234  0.3242 -0.1516  0.0468
  160SAPE   H8R17887   3.766   7.112   7.167  2.1916  1.9892  2.2205
  160SAPE   C2917888   3.828   7.050   7.359  0.1797  0.1146  0.4803
  160SAPE   H9R17889   3.848   7.156   7.382  2.4977  0.4704 -2.9227
  160SAPE  C21017890   3.841   6.950   7.469 -0.1577  0.5297 -0.2506
  160SAPE  H10R17891   3.908   6.868   7.437 -1.7328 -1.7177  2.0834
  160SAPE  H10S17892   3.737   6.917   7.492 -0.4749  2.7895  1.7928
  160SAPE  C21117893   3.891   7.017   7.597 -0.7611  0.2475 -0.0236
  160SAPE  H11R17894   3.956   7.104   7.585  0.4801 -0.5587  0.7794
  160SAPE  C21217895   3.855   6.991   7.728  0.1531 -0.5055 -0.1915
  160SAPE  H12R17896   3.916   7.040   7.805  0.5825 -0.8001 -0.3378
  160SAPE  C21317897   3.742   6.899   7.769  0.1473 -0.7407 -0.4973
  160SAPE  H13R17898   3.679   6.853   7.690  0.8643 -1.9477 -0.3807
  160SAPE  H13S17899   3.670   6.955   7.832  0.0863  0.5870 -1.7306
  160SAPE  C21417900   3.804   6.792   7.851 -0.8553 -0.3443  0.2456
  160SAPE  H14R17901   3.883   6.736   7.798 -1.0578 -1.6368  1.2948
  160SAPE  C21517902   3.774   6.767   7.980  0.3702 -0.3176  0.0762
  160SAPE  H15R17903   3.821   6.677   8.023 -2.3851 -2.0593 -0.4550
  160SAPE  C21617904   3.669   6.829   8.071 -0.0426  0.2206  0.9696
  160SAPE  H16R17905   3.597   6.750   8.103  2.2789 -1.1785  2.8631
  160SAPE  H16S17906   3.613   6.914   8.027 -0.9769  0.3049  2.2975
  160SAPE  C21717907   3.729   6.887   8.193  0.0211 -0.0461  0.3720
  160SAPE  H17R17908   3.791   6.810   8.245  1.2372 -1.5293 -3.1162
  160SAPE  H17S17909   3.649   6.908   8.267 -0.9804 -0.9520 -0.4462
  160SAPE  C21817910   3.820   7.002   8.166  0.6372  0.4512 -0.1380
  160SAPE  H18R17911   3.767   7.098   8.151 -0.8311 -0.4022 -0.5173
  160SAPE  H18S17912   3.878   7.008   8.071 -1.1162 -0.3345 -1.2719
  160SAPE  C21917913   3.917   7.029   8.284 -1.1180  0.4655  0.2514
  160SAPE  H19R17914   3.991   7.095   8.233 -0.2440  1.4755  2.7749
  160SAPE  H19S17915   3.969   6.936   8.315  0.3217  0.6371 -1.5599
  160SAPE  C22017916   3.845   7.095   8.401 -0.8752  0.1169 -0.1861
  160SAPE  H20R17917   3.914   7.152   8.468  0.0169  0.6675 -1.5455
  160SAPE  H20S17918   3.790   7.008   8.444  0.7929 -1.2965 -0.8451
  160SAPE  H20T17919   3.761   7.163   8.379  0.3637  1.7633  0.0887
  160SAPE   C3317920   3.573   6.185   7.156 -0.2259 -0.9449  0.0875
  160SAPE   H3X17921   3.684   6.190   7.165 -0.4455  0.7516  2.1858
  160SAPE   H3Y17922   3.525   6.128   7.238 -0.0881 -0.6859  0.3483
  160SAPE   C3417923   3.505   6.320   7.176  0.3597 -0.8082 -0.1151
  160SAPE   H4X17924   3.395   6.320   7.156 -0.4927  0.9525  3.9629
  160SAPE   H4Y17925   3.557   6.387   7.105  1.0326 -1.2538 -0.0433
  160SAPE   C3517926   3.535   6.373   7.318  0.3056 -0.1720 -0.3225
  160SAPE   H5X17927   3.644   6.393   7.328  0.4684 -0.7223 -0.9830
  160SAPE   H5Y17928   3.500   6.310   7.402 -0.3057  1.0642  0.3687
  160SAPE   C3617929   3.466   6.504   7.344  0.1395 -0.2679 -0.2204
  160SAPE   H6X17930   3.359   6.479   7.355  0.1133  1.1104  3.4794
  160SAPE   H6Y17931   3.491   6.567   7.256 -1.3701  1.7332  0.7396
  160SAPE   C3717932   3.491   6.576   7.477 -0.2303 -0.0606  0.0727
  160SAPE   H7X17933   3.441   6.675   7.485 -1.0221 -0.5393  1.2602
  160SAPE   H7Y17934   3.600   6.596   7.472  0.1342 -2.3293 -2.3679
  160SAPE   C3817935   3.443   6.509   7.607 -0.0484  0.6839  0.1350
  160SAPE   H8X17936   3.508   6.419   7.611 -1.6044 -0.4916 -0.4061
  160SAPE   H8Y17937   3.335   6.484   7.592  0.6001 -1.4583 -1.0927
  160SAPE   C3917938   3.460   6.595   7.730  0.1314  0.1168  0.2684
  160SAPE   H9X17939   3.387   6.678   7.717  1.7479  1.0732 -3.4722
  160SAPE   H9Y17940   3.567   6.623   7.748  1.1807 -3.1704 -0.4969
  160SAPE  C31017941   3.412   6.523   7.861  0.2754  0.2968  0.0575
  160SAPE  H10X17942   3.493   6.462   7.907  1.1639 -0.4309 -2.4075
  160SAPE  H10Y17943   3.331   6.452   7.834  0.8798 -2.2386  4.3605
  160SAPE  C31117944   3.357   6.608   7.972 -0.7398 -0.4126 -0.7907
  160SAPE  H11X17945   3.255   6.646   7.949 -1.3066 -2.1929 -1.2961
  160SAPE  H11Y17946   3.418   6.701   7.978  0.2451 -1.1989  2.1707
  160SAPE  C31217947   3.345   6.533   8.100 -0.5371 -0.2011 -0.2718
  160SAPE  H12X17948   3.441   6.486   8.130  0.0703 -0.3226 -2.3600
  160SAPE  H12Y17949   3.267   6.459   8.076 -2.1641  1.1111  0.8751
  160SAPE  C31317950   3.273   6.615   8.210  0.3302 -0.1168 -0.2249
  160SAPE  H13X17951   3.243   6.543   8.290  1.1831  0.4655  0.6273
  160SAPE  H13Y17952   3.180   6.662   8.171 -0.0314 -1.1212 -0.5996
  160SAPE  C31417953   3.368   6.720   8.278  0.3828 -0.3654  0.6441
  160SAPE  H14X17954   3.390   6.784   8.189 -2.2588  1.0720  0.9828
  160SAPE  H14Y17955   3.456   6.661   8.309  0.6175 -1.3985 -1.8538
  160SAPE  C31517956   3.315   6.825   8.380 -0.4020 -0.0366  0.4360
  160SAPE  H15X17957   3.221   6.871   8.343  2.9625  4.5038 -3.1497
  160SAPE  H15Y17958   3.392   6.905   8.390  0.3355 -0.9230  1.9393
  160SAPE  C31617959   3.273   6.755   8.510 -0.6219 -0.0972  0.4354
  160SAPE  H16X17960   3.362   6.708   8.555  0.9368  2.8566  0.5923
  160SAPE  H16Y17961   3.203   6.680   8.467  0.4592  0.1041 -1.7768
  160SAPE  C31717962   3.189   6.839   8.611 -0.0735 -0.2419  0.3625
  160SAPE  H17X17963   3.165   6.779   8.702 -0.4132 -0.7662 -0.0704
  160SAPE  H17Y17964   3.093   6.869   8.563  1.1323  2.7533 -0.2492
  160SAPE  C31817965   3.265   6.965   8.653 -0.3232  0.5423  0.1126
  160SAPE  H18X17966   3.195   7.033   8.705  0.7760  0.1770  2.1522
  160SAPE  H18Y17967   3.305   7.018   8.564  2.9797 -2.0645 -0.0817
  160SAPE  H18Z17968   3.350   6.930   8.716 -0.3772  1.1133  0.5074
  161SOPE     N17969   2.052   1.339  10.842 -0.1145  0.4458 -0.6739
  161SOPE   HN117970   1.957   1.323  10.882  0.0699  1.1164  0.0399
  161SOPE   HN217971   2.126   1.318  10.912 -0.7063  1.0137  0.1303
  161SOPE   HN317972   2.062   1.436  10.804 -0.5253  1.1088  0.8852
  161SOPE   C1217973   2.050   1.251  10.717  0.3995  0.3684  0.1565
  161SOPE  H12A17974   2.018   1.151  10.753 -0.0542  0.5456  0.2492
  161SOPE  H12B17975   2.158   1.245  10.689  0.3447  0.3592 -0.0559
  161SOPE   C1117976   1.945   1.308  10.618 -0.4874  0.3941  1.2303
  161SOPE  H11A17977   1.846   1.320  10.667 -2.0096 -1.7510 -1.2252
  161SOPE  H11B17978   1.924   1.233  10.540 -0.2558  1.1257  0.4569
  161SOPE     P17979   1.953   1.574  10.596  0.0644 -0.2165  0.1881
  161SOPE   O1317980   2.053   1.672  10.545 -0.6202  0.6664 -0.8820
  161SOPE   O1417981   1.925   1.559  10.743 -0.1984  0.3324  0.4194
  161SOPE   O1217982   1.995   1.425  10.547 -0.0487 -0.4563 -0.1081
  161SOPE   O1117983   1.817   1.606  10.519 -0.0517 -0.4744 -0.5491
  161SOPE    C117984   1.823   1.691  10.406  0.3728 -1.0983  0.4221
  161SOPE    HA17985   1.904   1.673  10.332  1.7365 -1.9865  2.0861
  161SOPE    HB17986   1.848   1.794  10.437 -0.3177 -1.0679  0.8912
  161SOPE    C217987   1.680   1.696  10.340 -0.8139  0.7909  0.3201
  161SOPE    HS17988   1.614   1.717  10.426 -0.5850 -1.5056  1.0781
  161SOPE   O2117989   1.647   1.570  10.277  0.2280 -0.1140 -0.4957
  161SOPE   C2117990   1.521   1.538  10.262 -0.5299  0.8025 -0.2384
  161SOPE   O2217991   1.425   1.596  10.311 -0.8019 -0.0636  0.2227
  161SOPE   C2217992   1.511   1.408  10.164  0.0635 -0.4711  0.2978
  161SOPE   H2R17993   1.597   1.345  10.193  0.5809  0.0306 -0.1256
  161SOPE   H2S17994   1.525   1.439  10.058 -3.5406 -1.2305 -0.4565
  161SOPE    C317995   1.667   1.808  10.240 -0.5467 -0.2232  1.0201
  161SOPE    HX17996   1.684   1.900  10.300  0.2881 -0.7080  1.5349
  161SOPE    HY17997   1.560   1.812  10.210 -0.8888  1.5475  2.3607
  161SOPE   O3117998   1.765   1.805  10.131 -0.0533  0.4907 -0.6883
  161SOPE   C3117999   1.750   1.729  10.026 -0.5101 -0.9835  0.0349
  161SOPE   O3218000   1.655   1.661   9.997 -0.4765 -0.1487 -0.3394
  161SOPE   C3218001   1.881   1.737   9.946  0.5613  0.0063 -0.5822
  161SOPE   H2X18002   1.954   1.665   9.989 -0.0195  0.5418  1.3313
  161SOPE   H2Y18003   1.916   1.842   9.950  0.3777  0.1359 -1.9077
  161SOPE   C2318004   1.393   1.313  10.177 -0.4235 -0.1782 -0.0241
  161SOPE   H3R18005   1.371   1.292  10.284 -2.8690 -0.2364 -0.5161
  161SOPE   H3S18006   1.406   1.218  10.121 -1.6572 -0.2286 -0.2239
  161SOPE   C2418007   1.258   1.382  10.122  0.5259 -0.4724  0.5641
  161SOPE   H4R18008   1.165   1.330  10.155 -0.1339 -0.4122 -1.1467
  161SOPE   H4S18009   1.250   1.491  10.143  2.2590  0.0066 -1.1555
  161SOPE   C2518010   1.250   1.374   9.969 -0.3388  0.3366 -0.2250
  161SOPE   H5R18011   1.348   1.390   9.920 -0.1115  0.3985  0.2507
  161SOPE   H5S18012   1.231   1.272   9.927 -2.4060  0.6964 -0.2447
  161SOPE   C2618013   1.135   1.453   9.909  0.1044  0.1944  0.2165
  161SOPE   H6R18014   1.045   1.418   9.964  1.7246 -2.9107  0.9828
  161SOPE   H6S18015   1.163   1.559   9.930  1.0324 -0.1523  0.7297
  161SOPE   C2718016   1.130   1.430   9.759  0.2757 -0.5819 -0.7121
  161SOPE   H7R18017   1.224   1.460   9.708  1.0018  1.5897  1.8269
  161SOPE   H7S18018   1.103   1.327   9.729 -0.2426 -0.2767 -1.3345
  161SOPE   C2818019   1.017   1.516   9.699 -0.1554 -0.8367 -0.7159
  161SOPE   H8R18020   0.926   1.465   9.737 -0.9429  0.7648 -0.3998
  161SOPE   H8S18021   1.028   1.612   9.755 -0.0013 -1.5231  0.4582
  161SOPE   C2918022   1.022   1.540   9.547  0.2213 -0.4480 -0.6557
  161SOPE   H9118023   1.066   1.638   9.521  0.9001 -0.4979  0.2705
  161SOPE  C21018024   0.994   1.459   9.446 -0.1830 -0.9401  0.3419
  161SOPE  H10118025   1.002   1.494   9.342  1.1634 -0.1658  0.7066
  161SOPE  C21118026   0.952   1.316   9.464  0.6055  0.4117 -0.6215
  161SOPE  H11R18027   0.871   1.309   9.540 -0.4954 -0.4197 -1.8343
  161SOPE  H11S18028   1.037   1.257   9.505 -0.2381  0.3079  1.0197
  161SOPE  C21218029   0.916   1.262   9.324  0.6103  0.3349  1.3929
  161SOPE  H12R18030   0.920   1.151   9.326  0.9056  0.2692 -1.5779
  161SOPE  H12S18031   0.987   1.299   9.247 -0.0286  2.8656  1.9566
  161SOPE  C21318032   0.772   1.303   9.275  1.1535  0.0385  0.1171
  161SOPE  H13R18033   0.765   1.411   9.300 -1.0559 -0.3290  1.2815
  161SOPE  H13S18034   0.700   1.239   9.331  1.7295  0.4225  1.3181
  161SOPE  C21418035   0.741   1.289   9.125 -0.2003 -0.1636  0.5874
  161SOPE  H14R18036   0.634   1.316   9.120  0.5296  2.6551 -0.3365
  161SOPE  H14S18037   0.755   1.183   9.092  0.1690 -0.0821  0.4794
  161SOPE  C21518038   0.826   1.383   9.031 -0.2352 -0.0122  0.5784
  161SOPE  H15R18039   0.928   1.339   9.032 -0.4233 -0.6023 -2.0348
  161SOPE  H15S18040   0.836   1.487   9.068  0.8304 -0.4543  1.5618
  161SOPE  C21618041   0.771   1.381   8.889  0.2731 -0.0863 -0.3662
  161SOPE  H16R18042   0.675   1.436   8.898  0.5777  0.3780  0.0761
  161SOPE  H16S18043   0.747   1.274   8.873  2.4874 -0.9199  1.5917
  161SOPE  C21718044   0.856   1.457   8.787 -0.0160 -0.1296  0.1152
  161SOPE  H17R18045   0.955   1.406   8.775  0.5134  0.6410  1.1563
  161SOPE  H17S18046   0.884   1.557   8.827  1.2757 -0.9397  1.2886
  161SOPE  C21818047   0.786   1.500   8.661 -0.3341 -0.8097 -0.4712
  161SOPE  H18R18048   0.855   1.564   8.603 -0.9026 -2.3279 -2.9381
  161SOPE  H18S18049   0.703   1.568   8.689  1.0393  0.9614 -0.6374
  161SOPE  H18T18050   0.764   1.408   8.601  1.5838 -2.2312  0.9336
  161SOPE   C3318051   1.858   1.711   9.794  0.3012 -0.5698 -0.2637
  161SOPE   H3X18052   1.783   1.782   9.752  0.7381 -1.6040 -2.8693
  161SOPE   H3Y18053   1.832   1.604   9.785  2.0930 -1.1740  1.3916
  161SOPE   C3418054   1.983   1.732   9.705  0.4573  0.2066 -1.2290
  161SOPE   H4X18055   2.065   1.667   9.743 -0.7460 -0.7098 -0.1946
  161SOPE   H4Y18056   2.021   1.836   9.717 -0.1562  0.5301 -2.0084
  161SOPE   C3518057   1.961   1.703   9.553  0.8995  0.7283 -0.4598
  161SOPE   H5X18058   1.877   1.770   9.526 -0.6102 -0.5005  1.0978
  161SOPE   H5Y18059   1.954   1.594   9.537 -1.2184  0.9287 -1.0158
  161SOPE   C3618060   2.076   1.758   9.469 -0.6091 -0.4861 -0.0086
  161SOPE   H6X18061   2.168   1.696   9.479  0.2282  0.3343 -2.1858
  161SOPE   H6Y18062   2.108   1.862   9.494  0.1215 -0.5628 -0.5788
  161SOPE   C3718063   2.044   1.764   9.321  0.1516 -0.2075  0.4058
  161SOPE   H7X18064   1.941   1.798   9.296  0.7125  0.8144 -0.5611
  161SOPE   H7Y18065   2.046   1.662   9.277 -3.9996  0.0619 -0.6880
  161SOPE   C3818066   2.149   1.851   9.247  0.4324  0.2446 -0.2610
  161SOPE   H8X18067   2.254   1.831   9.276  0.2497  2.5237  2.0760
  161SOPE   H8Y18068   2.125   1.957   9.270 -1.8072 -0.0780 -0.9440
  161SOPE   C3918069   2.138   1.846   9.092  0.2065 -0.1642 -0.8746
  161SOPE   H9X18070   2.031   1.844   9.061 -0.5182 -0.7378  1.5522
  161SOPE   H9Y18071   2.172   1.745   9.065  1.3178  0.5240 -2.0671
  161SOPE  C31018072   2.225   1.948   9.020 -0.8135  0.4328 -0.2544
  161SOPE  H10X18073   2.327   1.927   9.057 -1.1523 -1.2516 -0.2397
  161SOPE  H10Y18074   2.194   2.054   9.034  0.4344  0.7419  0.2224
  161SOPE  C31118075   2.221   1.925   8.871 -0.6043  0.3436 -0.0183
  161SOPE  H11X18076   2.123   1.961   8.833 -1.6485 -0.7862  1.5185
  161SOPE  H11Y18077   2.218   1.815   8.856  1.8754  0.1297  0.9726
  161SOPE  C31218078   2.353   1.967   8.805 -0.6301  0.0206  0.2584
  161SOPE  H12X18079   2.435   1.926   8.867 -0.3358  1.1455  0.6314
  161SOPE  H12Y18080   2.368   2.077   8.805 -2.0645  0.2467 -1.8020
  161SOPE  C31318081   2.365   1.922   8.652 -0.4528  0.5352 -0.2093
  161SOPE  H13X18082   2.273   1.961   8.603  0.2276 -0.3213 -2.2570
  161SOPE  H13Y18083   2.365   1.811   8.647 -0.8618  0.5897 -1.8360
  161SOPE  C31418084   2.482   1.965   8.566 -0.1431  0.0945 -0.0343
  161SOPE  H14X18085   2.475   1.908   8.470  1.1791  0.2848 -0.2581
  161SOPE  H14Y18086   2.574   1.938   8.622 -0.9124 -0.3376  1.0266
  161SOPE  C31518087   2.482   2.119   8.529  0.4696 -0.0582  0.1709
  161SOPE  H15X18088   2.460   2.167   8.627 -4.1463 -2.4525  0.4662
  161SOPE  H15Y18089   2.408   2.155   8.454 -0.0625  0.1125  0.7660
  161SOPE  C31618090   2.621   2.162   8.474  0.1798  1.0027 -0.7559
  161SOPE  H16X18091   2.703   2.133   8.543 -0.4535  1.0795  0.0430
  161SOPE  H16Y18092   2.611   2.273   8.479  0.2100  0.9185  1.5422
  161SOPE  C31718093   2.650   2.126   8.335 -0.3732 -0.6764  0.5333
  161SOPE  H17X18094   2.593   2.197   8.271 -1.2641  0.0250  2.0676
  161SOPE  H17Y18095   2.611   2.023   8.323 -1.8508  0.0282 -0.8784
  161SOPE  C31818096   2.798   2.139   8.301 -0.2901 -0.1504 -0.1143
  161SOPE  H18X18097   2.857   2.079   8.374 -0.0593  0.6246  0.3459
  161SOPE  H18Y18098   2.828   2.246   8.311  2.9995 -1.0328 -0.1201
  161SOPE  H18Z18099   2.815   2.112   8.194 -0.4687 -0.4466 -0.0659
  162SOPE     N18100   0.648   1.085  11.280 -0.9492 -0.4449 -0.2550
  162SOPE   HN118101   0.550   1.121  11.272 -0.5812  1.0412  1.5601
  162SOPE   HN218102   0.660   1.039  11.188 -0.2416 -1.3712  0.2997
  162SOPE   HN318103   0.652   1.019  11.360 -0.5252  0.6242  0.6145
  162SOPE   C1218104   0.745   1.200  11.288 -0.0405  0.6266  0.3458
  162SOPE  H12A18105   0.846   1.160  11.268 -0.1700  0.5296 -0.1040
  162SOPE  H12B18106   0.741   1.233  11.394 -1.3697 -0.3614  0.6152
  162SOPE   C1118107   0.718   1.326  11.196 -0.1281 -0.0710  0.5213
  162SOPE  H11A18108   0.781   1.415  11.220 -1.4737  1.6750 -2.1826
  162SOPE  H11B18109   0.620   1.373  11.218  1.1388  1.2686  3.6385
  162SOPE     P18110   0.841   1.313  10.973 -0.1730 -0.1009  0.3112
  162SOPE   O1318111   0.954   1.234  11.026 -0.2605 -0.1727 -0.2248
  162SOPE   O1418112   0.864   1.456  10.972 -0.4940  0.4393 -0.0161
  162SOPE   O1218113   0.712   1.287  11.060 -0.5730  0.9795  0.2993
  162SOPE   O1118114   0.793   1.272  10.829  0.4748 -0.2040  0.6130
  162SOPE    C118115   0.750   1.139  10.813 -0.3756 -0.3540 -0.7943
  162SOPE    HA18116   0.653   1.132  10.759 -0.6367  0.4543 -0.4360
  162SOPE    HB18117   0.724   1.088  10.908 -0.7099  0.8028 -0.2546
  162SOPE    C218118   0.846   1.054  10.719 -0.1995  0.2136  0.4804
  162SOPE    HS18119   0.951   1.055  10.755  1.2003  1.6226 -3.4019
  162SOPE   O2118120   0.838   1.101  10.589 -0.2066  0.1931  0.2854
  162SOPE   C2118121   0.932   1.195  10.554 -0.7114  0.1500 -0.6657
  162SOPE   O2218122   1.035   1.214  10.617  0.3327 -0.1802  0.5692
  162SOPE   C2218123   0.884   1.263  10.430  0.5321 -0.1189 -0.0698
  162SOPE   H2R18124   0.781   1.297  10.454  0.2369 -0.3492 -0.9976
  162SOPE   H2S18125   0.874   1.186  10.351 -2.8266 -2.4546  2.4773
  162SOPE    C318126   0.789   0.903  10.713  0.7387  0.3478 -0.0073
  162SOPE    HX18127   0.678   0.907  10.714  0.7511  0.5202  0.6224
  162SOPE    HY18128   0.814   0.848  10.806  1.3482 -1.7323 -1.3545
  162SOPE   O3118129   0.838   0.833  10.587 -0.2118  0.3247 -0.0360
  162SOPE   C3118130   0.863   0.696  10.592  0.2460  0.1933  0.2760
  162SOPE   O3218131   0.844   0.629  10.694  0.2703 -0.5487 -0.4541
  162SOPE   C3218132   0.903   0.646  10.450  0.1532  0.0292 -0.1751
  162SOPE   H2X18133   0.976   0.721  10.412  0.0187  0.2468 -0.0073
  162SOPE   H2Y18134   0.805   0.657  10.397 -0.9115  0.3573  1.7895
  162SOPE   C2318135   0.968   1.384  10.386 -0.2248  0.6856 -0.0349
  162SOPE   H3R18136   1.054   1.356  10.321 -0.4055  0.8874 -0.3618
  162SOPE   H3S18137   0.990   1.438  10.480 -0.2597  2.2637 -0.9142
  162SOPE   C2418138   0.889   1.472  10.292 -0.5561  0.2888 -0.1162
  162SOPE   H4R18139   0.887   1.424  10.192 -1.8728 -0.0474  0.0717
  162SOPE   H4S18140   0.784   1.486  10.324 -0.5753  2.4067 -1.0249
  162SOPE   C2518141   0.964   1.607  10.266  0.0428  0.3123  0.9213
  162SOPE   H5R18142   1.009   1.633  10.364 -0.0234 -0.2432  1.1002
  162SOPE   H5S18143   1.055   1.587  10.207 -1.8568 -0.5715 -1.8354
  162SOPE   C2618144   0.873   1.698  10.191 -0.0210 -0.1305  0.1795
  162SOPE   H6R18145   0.773   1.700  10.238  0.3874  2.1511  1.0498
  162SOPE   H6S18146   0.910   1.802  10.210 -2.0157  0.7207 -0.4858
  162SOPE   C2718147   0.882   1.668  10.037  0.4312  0.1503 -1.0878
  162SOPE   H7R18148   0.991   1.679  10.016  1.3933 -2.0420  2.3065
  162SOPE   H7S18149   0.846   1.565  10.014  1.4368 -0.0104 -2.0141
  162SOPE   C2818150   0.795   1.765   9.956 -0.3775 -0.2492 -0.4908
  162SOPE   H8R18151   0.702   1.782  10.013  1.3550  1.0060  2.0511
  162SOPE   H8S18152   0.857   1.857   9.948  0.8912 -0.9637  1.0061
  162SOPE   C2918153   0.760   1.710   9.816  0.5184  0.1298 -0.4975
  162SOPE   H9118154   0.726   1.605   9.806 -0.8941  0.4618  0.6992
  162SOPE  C21018155   0.742   1.793   9.707 -0.4822 -0.2998 -0.3422
  162SOPE  H10118156   0.711   1.742   9.614 -1.2754 -0.7212  0.1472
  162SOPE  C21118157   0.756   1.943   9.704  0.0097  0.1902  0.4371
  162SOPE  H11R18158   0.758   1.985   9.807  2.1494 -1.9516  1.2962
  162SOPE  H11S18159   0.660   1.978   9.660 -0.2739  0.5823  1.3535
  162SOPE  C21218160   0.866   2.001   9.618 -0.2771 -0.6750 -1.1345
  162SOPE  H12R18161   0.958   1.968   9.672 -1.3361  1.8004  2.4018
  162SOPE  H12S18162   0.869   2.112   9.626 -0.3226 -0.7314 -0.2537
  162SOPE  C21318163   0.868   1.949   9.473  0.2516  0.9495 -0.6251
  162SOPE  H13R18164   0.760   1.962   9.449  0.2838  2.2412 -0.1158
  162SOPE  H13S18165   0.884   1.839   9.474 -4.4605  0.1046 -2.9364
  162SOPE  C21418166   0.957   2.028   9.386  0.3103 -0.1033 -0.2350
  162SOPE  H14R18167   1.063   2.023   9.420  0.3075  1.3483  0.0145
  162SOPE  H14S18168   0.933   2.136   9.379  1.4838  0.2480  1.0282
  162SOPE  C21518169   0.949   1.973   9.241  0.2818  0.7346 -0.0320
  162SOPE  H15R18170   1.017   2.039   9.183 -0.9939  0.4765 -1.8676
  162SOPE  H15S18171   0.845   1.982   9.201  0.1546 -0.7832 -0.0698
  162SOPE  C21618172   1.002   1.820   9.220 -0.5111 -0.1969 -0.6021
  162SOPE  H16R18173   0.960   1.748   9.293  0.0193 -0.3748 -0.4697
  162SOPE  H16S18174   1.108   1.826   9.253 -0.4423  0.4545 -0.9324
  162SOPE  C21718175   0.995   1.777   9.073  0.7527  0.3230  0.0415
  162SOPE  H17R18176   1.023   1.872   9.022  0.8834  1.1306  1.5881
  162SOPE  H17S18177   0.887   1.757   9.055  0.7410 -0.7135  1.2069
  162SOPE  C21818178   1.076   1.663   9.020  0.1046 -0.2634 -0.0821
  162SOPE  H18R18179   1.054   1.653   8.911 -1.6024 -0.1997  0.2451
  162SOPE  H18S18180   1.050   1.569   9.072 -1.0261 -1.1524 -2.1876
  162SOPE  H18T18181   1.182   1.685   9.043  0.2664 -0.1368 -0.9168
  162SOPE   C3318182   0.954   0.506  10.449  0.3948 -0.1103 -0.0102
  162SOPE   H3X18183   0.906   0.448  10.531  2.1246  0.6115  1.5356
  162SOPE   H3Y18184   1.064   0.499  10.459  0.2656  0.3310  1.9618
  162SOPE   C3418185   0.918   0.427  10.315  0.4056  0.0888  0.0013
  162SOPE   H4X18186   0.809   0.410  10.334  0.1754  1.6756  0.1828
  162SOPE   H4Y18187   0.969   0.330  10.331  1.7581  0.7563 -0.1984
  162SOPE   C3518188   0.949   0.492  10.183 -0.1503 -0.5610 -0.3378
  162SOPE   H5X18189   1.058   0.508  10.171 -0.2099  1.0754  1.0553
  162SOPE   H5Y18190   0.898   0.590  10.166  1.7927  0.5043 -0.1408
  162SOPE   C3618191   0.902   0.403  10.073  0.0365  0.3337 -0.5801
  162SOPE   H6X18192   0.794   0.377  10.082  0.1160  0.7485  2.0059
  162SOPE   H6Y18193   0.954   0.305  10.082  1.8175  1.0251 -2.9401
  162SOPE   C3718194   0.918   0.455   9.934  0.6714  0.0318  0.0446
  162SOPE   H7X18195   0.934   0.373   9.860  2.0339 -0.5419  0.9645
  162SOPE   H7Y18196   1.017   0.504   9.924  1.6694 -1.5339  1.8919
  162SOPE   C3818197   0.810   0.539   9.870  0.7490  0.1682 -0.1864
  162SOPE   H8X18198   0.811   0.640   9.917  1.9681  0.7211 -1.3822
  162SOPE   H8Y18199   0.708   0.502   9.893  0.4042 -0.2460 -2.3075
  162SOPE   C3918200   0.824   0.552   9.719  0.3137 -0.2332  0.1725
  162SOPE   H9X18201   0.810   0.451   9.675  0.9702 -1.2227  2.1670
  162SOPE   H9Y18202   0.921   0.595   9.686  0.0062 -0.2718 -0.7952
  162SOPE  C31018203   0.724   0.644   9.655 -0.1373 -0.8338 -0.2238
  162SOPE  H10X18204   0.732   0.743   9.705  3.6941 -2.0336  1.7244
  162SOPE  H10Y18205   0.621   0.605   9.658 -0.8048  0.7826 -1.2279
  162SOPE  C31118206   0.755   0.662   9.501 -0.1869 -0.1008  0.0281
  162SOPE  H11X18207   0.744   0.562   9.455 -1.3054 -1.4594  3.1858
  162SOPE  H11Y18208   0.864   0.685   9.495  0.1382 -1.7813 -0.7139
  162SOPE  C31218209   0.667   0.768   9.447  0.2841 -0.4781  0.3700
  162SOPE  H12X18210   0.708   0.867   9.477 -2.2130  0.5953  0.4604
  162SOPE  H12Y18211   0.563   0.765   9.488 -0.2372  0.4961 -0.8139
  162SOPE  C31318212   0.650   0.761   9.289  0.1450  0.1461 -0.6555
  162SOPE  H13X18213   0.568   0.687   9.275 -1.2472  1.4079  0.6477
  162SOPE  H13Y18214   0.740   0.713   9.245 -0.5441  0.4711 -2.4329
  162SOPE  C31418215   0.616   0.897   9.228  0.6992 -0.8684 -0.0743
  162SOPE  H14X18216   0.689   0.977   9.251  0.1596 -0.2363 -0.5455
  162SOPE  H14Y18217   0.516   0.929   9.265  0.6130 -0.7104 -0.4493
  162SOPE  C31518218   0.606   0.900   9.079  0.8910  0.3807  0.0421
  162SOPE  H15X18219   0.587   1.003   9.041 -1.8219  0.2044  0.8430
  162SOPE  H15Y18220   0.514   0.851   9.041  1.6701 -1.0109 -0.0686
  162SOPE  C31618221   0.717   0.838   8.998  0.1416 -0.7100  0.0232
  162SOPE  H16X18222   0.726   0.728   8.996 -1.8041 -0.8728 -0.8701
  162SOPE  H16Y18223   0.810   0.871   9.047  0.6569 -0.3252 -1.1854
  162SOPE  C31718224   0.711   0.893   8.855  1.7504 -0.3362  0.6841
  162SOPE  H17X18225   0.734   1.002   8.842  2.7413 -0.5696  0.4217
  162SOPE  H17Y18226   0.609   0.877   8.815  1.1939 -1.3779  2.4937
  162SOPE  C31818227   0.803   0.820   8.762  0.0689 -0.2538 -0.2161
  162SOPE  H18X18228   0.784   0.710   8.762 -0.9412 -0.0813  0.7411
  162SOPE  H18Y18229   0.909   0.842   8.785  0.1101 -1.3772  0.7169
  162SOPE  H18Z18230   0.792   0.863   8.660  1.2206  0.2418 -0.1393
  163SOPE     N18231   2.028   4.766  10.973 -0.5488  0.0338  0.1273
  163SOPE   HN118232   2.083   4.689  11.017  2.2672  0.3549 -2.6778
  163SOPE   HN218233   1.937   4.723  10.944 -0.6094 -0.1500  0.5803
  163SOPE   HN318234   2.079   4.795  10.888  0.2606 -1.7376 -0.0253
  163SOPE   C1218235   2.006   4.871  11.078 -0.1692 -0.1981 -0.4122
  163SOPE  H12A18236   2.107   4.916  11.089 -1.2935  2.8987 -2.3183
  163SOPE  H12B18237   1.969   4.826  11.173  1.9227 -1.8753 -0.3303
  163SOPE   C1118238   1.906   4.974  11.026 -0.3597  0.1981 -0.3559
  163SOPE  H11A18239   1.947   5.033  10.941  1.6913  1.1792  1.2749
  163SOPE  H11B18240   1.878   5.040  11.111  0.8220 -1.6794  1.5521
  163SOPE     P18241   1.651   4.978  10.969  0.0320 -0.4321  0.1018
  163SOPE   O1318242   1.664   5.117  11.003 -0.4804 -0.5329  0.7343
  163SOPE   O1418243   1.548   4.899  11.041 -0.1754  0.0822  0.6493
  163SOPE   O1218244   1.789   4.905  10.988 -0.1016  0.2955 -0.2227
  163SOPE   O1118245   1.634   4.975  10.815  0.7378  0.5517  0.1553
  163SOPE    C118246   1.745   5.035  10.741 -0.5834  0.3274  0.7621
  163SOPE    HA18247   1.844   4.985  10.747  0.4570  2.2355 -0.1684
  163SOPE    HB18248   1.758   5.139  10.776  0.7901  1.3240 -2.5203
  163SOPE    C218249   1.716   5.043  10.592  0.5164 -0.1320  0.4225
  163SOPE    HS18250   1.811   5.076  10.544 -0.4863  1.3661 -0.5971
  163SOPE   O2118251   1.600   5.128  10.569 -0.5236 -0.3174  0.2149
  163SOPE   C2118252   1.606   5.191  10.448  0.2031  0.4005  0.1532
  163SOPE   O2218253   1.704   5.202  10.378  0.0540 -0.6142 -0.0932
  163SOPE   C2218254   1.464   5.253  10.427 -0.2841  0.4435 -0.2526
  163SOPE   H2R18255   1.448   5.318  10.516 -2.1268 -0.7257  0.2952
  163SOPE   H2S18256   1.385   5.176  10.433  1.6093 -1.6138 -1.3505
  163SOPE    C318257   1.674   4.906  10.538 -0.5483  0.3191 -0.4002
  163SOPE    HX18258   1.587   4.872  10.598 -2.1748  0.1410 -2.7884
  163SOPE    HY18259   1.751   4.825  10.540 -0.9635 -0.0793 -0.5744
  163SOPE   O3118260   1.630   4.915  10.402 -0.1629  0.2071  0.5835
  163SOPE   C3118261   1.718   4.900  10.307  0.1710 -0.1850 -0.4150
  163SOPE   O3218262   1.835   4.916  10.321 -0.2566  0.0063 -0.3147
  163SOPE   C3218263   1.648   4.895  10.173 -0.6841  1.1233  0.2742
  163SOPE   H2X18264   1.625   4.996  10.132  0.9897  0.9424 -1.1524
  163SOPE   H2Y18265   1.545   4.854  10.172  0.4856 -1.9244 -2.4955
  163SOPE   C2318266   1.448   5.354  10.309 -0.0696  0.0596  0.0901
  163SOPE   H3R18267   1.537   5.420  10.306  1.0847 -1.5082 -0.8345
  163SOPE   H3S18268   1.350   5.402  10.332  0.3437  0.3443  1.2947
  163SOPE   C2418269   1.432   5.278  10.173  0.0287  0.4870 -0.2194
  163SOPE   H4R18270   1.410   5.345  10.087 -0.9176  0.9595  0.3876
  163SOPE   H4S18271   1.533   5.244  10.142  0.6531  2.1542 -0.0890
  163SOPE   C2518272   1.326   5.165  10.179  0.1117 -0.5615 -0.9026
  163SOPE   H5R18273   1.366   5.075  10.229 -0.5967  0.4357  1.5388
  163SOPE   H5S18274   1.233   5.201  10.228  1.3568  0.4972  0.7395
  163SOPE   C2618275   1.280   5.103  10.048 -0.5148  0.0733 -0.1631
  163SOPE   H6R18276   1.343   5.020  10.008 -0.5551  0.2854 -0.6801
  163SOPE   H6S18277   1.185   5.048  10.063  0.1417 -1.7190 -2.1830
  163SOPE   C2718278   1.267   5.205   9.935 -0.6800 -0.0746  0.3630
  163SOPE   H7R18279   1.209   5.291   9.973 -0.4096  0.5385 -0.6004
  163SOPE   H7S18280   1.362   5.252   9.904 -0.0576 -2.2242 -1.0684
  163SOPE   C2818281   1.208   5.160   9.805 -0.1268  0.5221  0.1713
  163SOPE   H8R18282   1.117   5.102   9.830  0.4533 -0.1798  0.6768
  163SOPE   H8S18283   1.179   5.246   9.741 -1.4770 -1.1685 -1.5088
  163SOPE   C2918284   1.298   5.062   9.742 -1.0554  0.0201  0.2983
  163SOPE   H9118285   1.311   4.970   9.801  1.3853  1.3095  1.8416
  163SOPE  C21018286   1.350   5.059   9.619  0.2389  0.1505  0.5191
  163SOPE  H10118287   1.409   4.969   9.597  0.7915  0.2277  1.6450
  163SOPE  C21118288   1.325   5.172   9.519  0.3756 -0.2597 -0.3600
  163SOPE  H11R18289   1.416   5.189   9.457  1.9809 -1.3204  1.6510
  163SOPE  H11S18290   1.307   5.268   9.571 -0.5304 -1.0214  0.7537
  163SOPE  C21218291   1.198   5.154   9.428  0.3284 -0.2309 -0.5159
  163SOPE  H12R18292   1.117   5.116   9.494  0.7790 -1.1650 -0.4925
  163SOPE  H12S18293   1.211   5.072   9.355  2.5276 -0.6516  0.3089
  163SOPE  C21318294   1.161   5.294   9.370  0.6600  0.1336  0.1736
  163SOPE  H13R18295   1.171   5.369   9.452  0.8769 -1.3587  1.5243
  163SOPE  H13S18296   1.051   5.289   9.352  0.7389 -0.1610 -0.2334
  163SOPE  C21418297   1.233   5.339   9.242  0.2372 -0.3373  0.9059
  163SOPE  H14R18298   1.341   5.349   9.266  0.1228  0.1985  1.2245
  163SOPE  H14S18299   1.203   5.441   9.210  0.1129 -0.6681 -0.0343
  163SOPE  C21518300   1.202   5.252   9.115  0.4090  0.2085 -0.6812
  163SOPE  H15R18301   1.096   5.257   9.085  0.1832 -4.0521 -0.9643
  163SOPE  H15S18302   1.240   5.148   9.125  0.3721  0.0186 -2.3541
  163SOPE  C21618303   1.286   5.305   8.998 -0.4868  0.8139 -0.2940
  163SOPE  H16R18304   1.267   5.243   8.908 -0.3264  0.0273  0.2052
  163SOPE  H16S18305   1.394   5.294   9.022 -0.8630 -0.5204  0.8646
  163SOPE  C21718306   1.254   5.452   8.971 -0.1250 -0.2832  1.0991
  163SOPE  H17R18307   1.285   5.511   9.060 -1.6043 -0.8904  2.0297
  163SOPE  H17S18308   1.145   5.466   8.954  0.6728  3.4201 -1.6545
  163SOPE  C21818309   1.317   5.520   8.846 -0.4974  0.0539  0.0570
  163SOPE  H18R18310   1.306   5.444   8.767 -1.5157  1.6443 -1.3769
  163SOPE  H18S18311   1.423   5.542   8.872 -0.7801  0.4228  0.9127
  163SOPE  H18T18312   1.255   5.612   8.840  0.6788  0.7864 -1.0430
  163SOPE   C3318313   1.722   4.806  10.068 -0.2523  0.0806 -0.4717
  163SOPE   H3X18314   1.739   4.702  10.104 -2.3408  0.7337  2.5821
  163SOPE   H3Y18315   1.829   4.831  10.052 -0.8212  1.7717 -1.7764
  163SOPE   C3418316   1.669   4.804   9.925 -0.6523 -0.4286  0.6780
  163SOPE   H4X18317   1.693   4.906   9.890 -0.1446 -0.5614  0.6353
  163SOPE   H4Y18318   1.561   4.779   9.919 -0.6727 -0.9878  2.8395
  163SOPE   C3518319   1.741   4.702   9.830 -0.3423  0.1207  0.2063
  163SOPE   H5X18320   1.744   4.605   9.884 -1.5811 -1.1979 -2.0493
  163SOPE   H5Y18321   1.847   4.737   9.827 -0.1558 -0.4812 -0.3958
  163SOPE   C3618322   1.688   4.689   9.689 -0.1132  0.5680  0.5407
  163SOPE   H6X18323   1.580   4.668   9.682 -0.2464  1.4649 -0.1709
  163SOPE   H6Y18324   1.743   4.613   9.630 -1.0682 -0.5993  1.1401
  163SOPE   C3718325   1.710   4.827   9.619  0.1843 -0.2308  0.2679
  163SOPE   H7X18326   1.819   4.850   9.625  0.1911 -0.4247  0.9274
  163SOPE   H7Y18327   1.660   4.907   9.678 -1.6997 -0.2376 -1.2662
  163SOPE   C3818328   1.663   4.838   9.476 -0.0325 -0.0208 -0.2716
  163SOPE   H8X18329   1.556   4.808   9.467  0.1568 -0.9136  0.3004
  163SOPE   H8Y18330   1.723   4.776   9.406 -0.0911 -1.6006  1.0260
  163SOPE   C3918331   1.673   4.988   9.425  0.3571  0.2828 -0.2374
  163SOPE   H9X18332   1.782   5.007   9.417  0.4299 -0.4362 -1.0579
  163SOPE   H9Y18333   1.623   5.055   9.498 -0.2079 -0.9103  0.4899
  163SOPE  C31018334   1.605   5.019   9.295 -0.1556  0.1366 -0.8093
  163SOPE  H10X18335   1.617   5.123   9.257 -0.1548 -0.5691 -2.8140
  163SOPE  H10Y18336   1.496   5.002   9.312  0.3402 -1.3733  0.9407
  163SOPE  C31118337   1.633   4.922   9.172  0.3424 -0.9655 -0.4763
  163SOPE  H11X18338   1.601   4.823   9.212  2.6130 -1.2480  0.7418
  163SOPE  H11Y18339   1.742   4.935   9.158 -0.1169  2.5858 -1.1215
  163SOPE  C31218340   1.563   4.965   9.039  0.2056  0.2815 -0.3213
  163SOPE  H12X18341   1.455   4.975   9.064 -0.0854  1.1029 -1.8411
  163SOPE  H12Y18342   1.586   4.887   8.963 -1.3708 -1.3266  0.8061
  163SOPE  C31318343   1.621   5.088   8.974  0.0148 -1.0994 -0.4375
  163SOPE  H13X18344   1.731   5.077   8.978  0.1377 -0.1809 -1.1327
  163SOPE  H13Y18345   1.611   5.179   9.038  3.1178 -0.2189 -1.1302
  163SOPE  C31418346   1.585   5.139   8.837  0.2252  0.7391 -0.2205
  163SOPE  H14X18347   1.475   5.125   8.823  0.8710 -3.4414 -1.6761
  163SOPE  H14Y18348   1.635   5.072   8.764 -0.8420 -0.8061  0.4350
  163SOPE  C31518349   1.608   5.284   8.815 -0.6556  0.5418  0.0018
  163SOPE  H15X18350   1.545   5.351   8.877 -2.0691 -0.7556  0.0144
  163SOPE  H15Y18351   1.568   5.297   8.712 -1.8502 -0.7586  0.2891
  163SOPE  C31618352   1.751   5.330   8.817  0.1896 -0.0768  0.1191
  163SOPE  H16X18353   1.779   5.306   8.922 -1.9806  2.6162  1.3933
  163SOPE  H16Y18354   1.751   5.439   8.793  0.1356 -0.3489 -1.1623
  163SOPE  C31718355   1.851   5.266   8.726 -0.2110  0.2386 -0.1849
  163SOPE  H17X18356   1.837   5.297   8.620 -0.7655 -0.5283 -0.3397
  163SOPE  H17Y18357   1.844   5.156   8.732  2.0156  0.1492  1.4260
  163SOPE  C31818358   1.994   5.298   8.770  0.1592 -0.0007 -0.9083
  163SOPE  H18X18359   2.067   5.276   8.689  1.1191  2.6786 -0.8287
  163SOPE  H18Y18360   2.024   5.264   8.871 -0.7090 -1.8061 -1.2515
  163SOPE  H18Z18361   2.003   5.409   8.775 -1.9696  0.1623 -0.3240
  164SOPE     N18362   3.546   3.481  10.591 -0.2680 -0.3181  0.5539
  164SOPE   HN118363   3.579   3.411  10.660  0.1391  0.7452  1.4618
  164SOPE   HN218364   3.444   3.479  10.612 -1.0301 -0.9309 -2.9908
  164SOPE   HN318365   3.567   3.431  10.503  0.8212  2.1475 -0.6322
  164SOPE   C1218366   3.610   3.621  10.583 -0.7672 -0.5946  0.2012
  164SOPE  H12A18367   3.590   3.687  10.670  2.6046 -0.9624  1.3519
  164SOPE  H12B18368   3.563   3.674  10.498  0.4734  3.0461  1.7032
  164SOPE   C1118369   3.760   3.611  10.566 -0.4973 -0.3208  0.2377
  164SOPE  H11A18370   3.815   3.707  10.553  0.4448 -0.6244  1.9080
  164SOPE  H11B18371   3.766   3.560  10.467  0.3427 -0.6405  0.4522
  164SOPE     P18372   3.877   3.589  10.791  0.4128 -0.2313  0.0533
  164SOPE   O1318373   3.950   3.483  10.865  0.6297 -0.3323 -0.0385
  164SOPE   O1418374   3.762   3.654  10.860 -0.1961  0.1100 -0.6853
  164SOPE   O1218375   3.824   3.522  10.661  0.0923 -0.7871 -0.4454
  164SOPE   O1118376   3.981   3.695  10.747  0.8950 -0.1328 -0.6783
  164SOPE    C118377   4.094   3.649  10.670  0.5856 -0.3207  0.9169
  164SOPE    HA18378   4.113   3.539  10.662 -1.3421 -0.6136  0.2897
  164SOPE    HB18379   4.186   3.687  10.720  1.2996  0.3215 -0.8663
  164SOPE    C218380   4.093   3.714  10.532 -0.1417 -0.6155  0.0846
  164SOPE    HS18381   4.011   3.673  10.469 -1.4525  0.7587  0.8636
  164SOPE   O2118382   4.228   3.699  10.480 -0.3516 -0.3117 -0.2349
  164SOPE   C2118383   4.245   3.675  10.351  0.1144 -0.1584 -0.3404
  164SOPE   O2218384   4.150   3.675  10.269  0.5174 -0.7065  0.5976
  164SOPE   C2218385   4.387   3.654  10.317  0.6204  0.3080 -0.2424
  164SOPE   H2R18386   4.420   3.557  10.361 -1.7424  0.2562  1.4987
  164SOPE   H2S18387   4.444   3.737  10.363  0.8255  1.2461 -2.1567
  164SOPE    C318388   4.060   3.864  10.542 -0.1380 -0.2417  0.7531
  164SOPE    HX18389   4.122   3.911  10.621  0.0563 -0.0779  0.5039
  164SOPE    HY18390   3.955   3.875  10.577 -0.7441 -0.9299 -0.7881
  164SOPE   O3118391   4.075   3.928  10.411  0.1912  0.0301  0.7145
  164SOPE   C3118392   3.968   3.926  10.329 -0.3970 -0.2610 -0.2008
  164SOPE   O3218393   3.863   3.868  10.349  0.2054  0.2179 -0.5217
  164SOPE   C3218394   3.993   4.011  10.204  0.0324  0.6311  0.2937
  164SOPE   H2X18395   4.091   4.061  10.216  0.5763 -0.0514 -1.1814
  164SOPE   H2Y18396   3.903   4.076  10.210 -2.0170 -2.1995  1.4041
  164SOPE   C2318397   4.410   3.654  10.162  0.0634 -1.3725  0.2711
  164SOPE   H3R18398   4.329   3.596  10.113 -2.0696  0.9870  0.8810
  164SOPE   H3S18399   4.511   3.616  10.136  0.4422 -1.0947  1.2855
  164SOPE   C2418400   4.391   3.798  10.110  0.8397  0.0750  0.3567
  164SOPE   H4R18401   4.315   3.849  10.173  0.9537  1.1339 -0.3516
  164SOPE   H4S18402   4.486   3.849  10.137  0.3766  2.2847 -1.9429
  164SOPE   C2518403   4.360   3.821   9.964 -0.3010 -0.0106 -0.1942
  164SOPE   H5R18404   4.260   3.779   9.941  0.2179 -1.4844  0.1962
  164SOPE   H5S18405   4.354   3.931   9.947 -0.1304 -0.2973 -2.1750
  164SOPE   C2618406   4.473   3.754   9.888 -0.2495  0.0715 -0.8845
  164SOPE   H6R18407   4.569   3.799   9.921 -0.7109  1.0056 -0.8106
  164SOPE   H6S18408   4.484   3.643   9.888  2.8490  0.3108 -0.3007
  164SOPE   C2718409   4.461   3.796   9.742 -0.0327 -0.1029 -0.5657
  164SOPE   H7R18410   4.372   3.745   9.698 -0.6163  0.2920  0.1407
  164SOPE   H7S18411   4.436   3.905   9.743  2.5345  0.5139 -0.5742
  164SOPE   C2818412   4.579   3.755   9.654  0.1673 -0.4848  0.0118
  164SOPE   H8R18413   4.585   3.644   9.647 -2.3969 -0.7714  1.7508
  164SOPE   H8S18414   4.542   3.797   9.558  1.5278 -0.5395 -0.5434
  164SOPE   C2918415   4.712   3.814   9.698 -0.0471 -0.4485 -0.1894
  164SOPE   H9118416   4.712   3.895   9.773  0.3948  1.5581 -2.3018
  164SOPE  C21018417   4.829   3.786   9.637  0.1562  0.5538 -0.3520
  164SOPE  H10118418   4.925   3.829   9.672 -0.3573  0.6784  0.9425
  164SOPE  C21118419   4.840   3.681   9.529  0.1161  0.2320 -0.3505
  164SOPE  H11R18420   4.745   3.628   9.507 -0.2341  1.7775 -2.6846
  164SOPE  H11S18421   4.913   3.610   9.574 -2.0523 -1.6068  0.3755
  164SOPE  C21218422   4.900   3.729   9.399  0.2798  0.1738 -0.2417
  164SOPE  H12R18423   4.989   3.789   9.430  1.3115 -0.7557 -1.3674
  164SOPE  H12S18424   4.830   3.810   9.369  1.0816  0.9596 -0.0497
  164SOPE  C21318425   4.939   3.619   9.308  0.5093  0.5885  0.6612
  164SOPE  H13R18426   4.846   3.579   9.262  0.7181 -0.3064  1.0229
  164SOPE  H13S18427   4.998   3.541   9.360 -0.2560  0.6454  1.6280
  164SOPE  C21418428   5.025   3.672   9.190 -0.2561  0.1788  0.0027
  164SOPE  H14R18429   5.126   3.704   9.224 -0.3952  0.8414 -0.1988
  164SOPE  H14S18430   4.979   3.768   9.157 -0.8189 -0.3963 -0.9137
  164SOPE  C21518431   5.039   3.560   9.085 -0.4870  0.4922 -0.4710
  164SOPE  H15R18432   4.941   3.517   9.058 -0.6319  0.6278 -0.1707
  164SOPE  H15S18433   5.087   3.469   9.127  0.4298  1.4707  0.6435
  164SOPE  C21618434   5.129   3.602   8.963 -0.1753 -0.1028 -0.2867
  164SOPE  H16R18435   5.228   3.644   8.994 -0.3262 -0.0781  0.1745
  164SOPE  H16S18436   5.063   3.675   8.911  0.8016  2.0193  1.3341
  164SOPE  C21718437   5.167   3.483   8.878 -0.0915  0.2936  0.1195
  164SOPE  H17R18438   5.191   3.531   8.780 -2.5126  0.1930 -0.5440
  164SOPE  H17S18439   5.079   3.421   8.850  0.7821 -0.9830  0.1885
  164SOPE  C21818440   5.291   3.409   8.926 -0.1337 -0.0077  0.3329
  164SOPE  H18R18441   5.292   3.358   9.025  0.8867 -2.4176 -0.8645
  164SOPE  H18S18442   5.380   3.475   8.928  1.3567 -1.8624 -1.7150
  164SOPE  H18T18443   5.316   3.334   8.849  0.6815 -0.6044  1.1617
  164SOPE   C3318444   3.991   3.935  10.063  0.2547 -0.8833  0.3287
  164SOPE   H3X18445   3.892   3.888  10.048  0.1822 -1.7296  3.0702
  164SOPE   H3Y18446   4.061   3.849  10.068 -0.1540 -1.2059  0.5534
  164SOPE   C3418447   4.035   4.013   9.939 -0.6426  0.1936  0.7149
  164SOPE   H4X18448   4.141   4.044   9.954 -1.5078  2.7375  1.9093
  164SOPE   H4Y18449   3.980   4.109   9.937  0.2877  0.7092 -2.4476
  164SOPE   C3518450   4.023   3.946   9.800  0.4625  0.0088  0.4159
  164SOPE   H5X18451   3.917   3.920   9.780  0.9000 -1.1303 -0.5049
  164SOPE   H5Y18452   4.090   3.858   9.806  1.9247  1.1348  0.8405
  164SOPE   C3618453   4.066   4.042   9.682  0.2779  0.3207  0.1537
  164SOPE   H6X18454   4.175   4.062   9.690  0.5637 -1.8773  2.5473
  164SOPE   H6Y18455   4.016   4.140   9.697  1.2347  0.6282  1.3895
  164SOPE   C3718456   4.037   3.981   9.540 -0.3826  0.6677  0.0978
  164SOPE   H7X18457   4.079   4.045   9.459  0.0184  0.8233  0.4292
  164SOPE   H7Y18458   3.928   3.991   9.522 -0.3922  2.0535  0.8533
  164SOPE   C3818459   4.098   3.842   9.526  0.6920 -0.9051 -0.5752
  164SOPE   H8X18460   4.071   3.772   9.608  2.3699 -1.1693 -0.2170
  164SOPE   H8Y18461   4.209   3.853   9.526  0.6017  0.1104 -0.9709
  164SOPE   C3918462   4.048   3.765   9.410 -0.0591 -0.5077  0.5332
  164SOPE   H9X18463   3.938   3.761   9.397 -0.1111  2.3776 -0.0467
  164SOPE   H9Y18464   4.101   3.667   9.407  0.6639 -0.0809 -0.7154
  164SOPE  C31018465   4.072   3.838   9.268 -0.7544  0.0212  0.2895
  164SOPE  H10X18466   4.165   3.897   9.268 -0.1740 -0.8391 -1.6423
  164SOPE  H10Y18467   3.986   3.907   9.254 -1.7074 -0.9532  1.1432
  164SOPE  C31118468   4.085   3.744   9.148 -0.0645 -0.1010 -0.3960
  164SOPE  H11X18469   4.005   3.668   9.153  0.1844 -0.3196  0.3043
  164SOPE  H11Y18470   4.179   3.686   9.163 -1.3808 -2.0222  0.5679
  164SOPE  C31218471   4.074   3.820   9.016 -0.1520 -0.2462 -0.5658
  164SOPE  H12X18472   4.132   3.914   9.024 -1.0443  0.2974 -0.3704
  164SOPE  H12Y18473   3.967   3.851   9.014 -0.8775 -2.6486 -0.1725
  164SOPE  C31318474   4.103   3.734   8.897 -0.3859 -0.5954  0.0860
  164SOPE  H13X18475   4.049   3.637   8.887 -0.3769 -0.5475 -0.4442
  164SOPE  H13Y18476   4.211   3.709   8.886 -0.5036 -0.3216 -1.8818
  164SOPE  C31418477   4.063   3.801   8.763  0.3148  0.5765 -0.4641
  164SOPE  H14X18478   3.953   3.820   8.769 -0.0838 -1.7854 -0.0626
  164SOPE  H14Y18479   4.081   3.732   8.678  0.1251  1.4982 -1.2756
  164SOPE  C31518480   4.141   3.928   8.733 -0.6250  0.2955  0.5226
  164SOPE  H15X18481   4.118   4.001   8.814  0.1285  1.7973 -0.5866
  164SOPE  H15Y18482   4.106   3.972   8.637  3.4113 -0.0922 -1.2513
  164SOPE  C31618483   4.289   3.905   8.703  0.2796  0.3231 -0.1018
  164SOPE  H16X18484   4.288   3.855   8.604 -0.1910 -0.6013  0.3667
  164SOPE  H16Y18485   4.339   3.839   8.776  1.0934  0.7512 -0.2721
  164SOPE  C31718486   4.377   4.025   8.703  1.0165  1.0414 -1.0306
  164SOPE  H17X18487   4.376   4.076   8.802  0.5422  1.3599 -1.1978
  164SOPE  H17Y18488   4.345   4.111   8.639 -0.0688  1.2404 -0.2264
  164SOPE  C31818489   4.520   3.988   8.668  0.2050  0.5124 -0.1224
  164SOPE  H18X18490   4.518   3.908   8.590  3.2501  1.4780 -1.2403
  164SOPE  H18Y18491   4.563   3.946   8.761  1.1222  1.0607 -0.2965
  164SOPE  H18Z18492   4.582   4.075   8.640  0.9348  0.1819  0.4658
  165SOPE     N18493   2.026   4.134  10.845 -0.1615 -0.1558  0.5968
  165SOPE   HN118494   2.114   4.117  10.791  1.2738  0.0250  2.8107
  165SOPE   HN218495   1.947   4.077  10.810 -0.2338 -0.2919  0.9854
  165SOPE   HN318496   2.006   4.235  10.830 -2.1754 -0.2824  2.3190
  165SOPE   C1218497   2.053   4.110  10.986  0.4996  0.1728 -0.3251
  165SOPE  H12A18498   2.089   4.006  10.998 -0.1307  0.0254  0.3443
  165SOPE  H12B18499   1.955   4.120  11.037  0.1361 -0.6073 -0.8520
  165SOPE   C1118500   2.166   4.201  11.036  0.5658  0.9072  1.0819
  165SOPE  H11A18501   2.265   4.177  10.992  0.8821 -0.5375  2.5443
  165SOPE  H11B18502   2.176   4.188  11.146 -1.6645 -0.9641  1.1093
  165SOPE     P18503   2.237   4.457  11.069 -0.1458  0.2290 -0.0149
  165SOPE   O1318504   2.301   4.394  11.192  0.0808 -0.3630  0.0987
  165SOPE   O1418505   2.157   4.580  11.100 -0.0441  0.2214  0.6204
  165SOPE   O1218506   2.146   4.339  10.999 -0.5158 -0.3607 -1.0047
  165SOPE   O1118507   2.352   4.494  10.962  0.9501 -0.4900  0.0862
  165SOPE    C118508   2.424   4.400  10.895  0.7868  0.0968 -0.2832
  165SOPE    HA18509   2.369   4.344  10.816  2.3182  0.5730 -1.7356
  165SOPE    HB18510   2.468   4.324  10.962 -2.1495 -1.8474 -0.4959
  165SOPE    C218511   2.538   4.457  10.807 -0.4254 -0.3099 -0.3677
  165SOPE    HS18512   2.594   4.533  10.865  0.3855 -0.5027 -0.8841
  165SOPE   O2118513   2.492   4.514  10.681  0.1383  0.2500 -0.2555
  165SOPE   C2118514   2.467   4.641  10.674  0.4819 -0.3402 -0.2341
  165SOPE   O2218515   2.474   4.719  10.772 -0.2731 -0.1899  0.4423
  165SOPE   C2218516   2.453   4.678  10.527  0.1109  0.5465 -0.5008
  165SOPE   H2R18517   2.496   4.779  10.518 -2.2790  1.6046 -0.3754
  165SOPE   H2S18518   2.346   4.690  10.501 -0.4555 -0.8826  1.0726
  165SOPE    C318519   2.651   4.353  10.777  0.0775 -0.4260  0.1604
  165SOPE    HX18520   2.607   4.256  10.745 -2.7126  0.7452  0.3405
  165SOPE    HY18521   2.696   4.334  10.877 -1.2467 -1.1693  0.6282
  165SOPE   O3118522   2.759   4.390  10.689  0.2981  0.6762 -0.3123
  165SOPE   C3118523   2.866   4.449  10.739 -0.6098  0.6055  0.2530
  165SOPE   O3218524   2.868   4.512  10.844 -1.2756  0.3907 -0.0646
  165SOPE   C3218525   2.980   4.448  10.639  0.4241 -0.2887  0.7367
  165SOPE   H2X18526   3.014   4.343  10.629 -1.0636 -0.8340  1.3176
  165SOPE   H2Y18527   3.057   4.500  10.700 -0.7326  0.3350  1.6921
  165SOPE   C2318528   2.510   4.583  10.425 -0.3782  0.1963 -0.0731
  165SOPE   H3R18529   2.444   4.494  10.417  0.1920 -0.1544 -0.9532
  165SOPE   H3S18530   2.611   4.547  10.454  1.0931  2.0304 -2.6611
  165SOPE   C2418531   2.519   4.647  10.286  0.6936 -0.1105 -0.4823
  165SOPE   H4R18532   2.422   4.685  10.246 -0.5369 -1.6835  0.9621
  165SOPE   H4S18533   2.593   4.725  10.313  1.3654 -1.6612  2.3086
  165SOPE   C2518534   2.577   4.553  10.185  0.1838 -0.5611  1.1199
  165SOPE   H5R18535   2.639   4.478  10.238 -0.2625  0.2343  2.7779
  165SOPE   H5S18536   2.491   4.495  10.144  0.8588 -0.4195 -0.5334
  165SOPE   C2618537   2.668   4.605  10.078  0.5201  0.0562  0.6451
  165SOPE   H6R18538   2.622   4.695  10.033  0.8292  0.6016  1.4173
  165SOPE   H6S18539   2.767   4.643  10.110  0.6139 -0.7240  1.3063
  165SOPE   C2718540   2.682   4.494   9.970  0.6293 -0.1725  0.0661
  165SOPE   H7R18541   2.755   4.419  10.010  2.3804  0.5980 -1.5986
  165SOPE   H7S18542   2.589   4.444   9.938  0.9904 -0.7329 -0.1289
  165SOPE   C2818543   2.743   4.546   9.843 -1.3902  0.4606 -0.1349
  165SOPE   H8R18544   2.843   4.590   9.860  0.0135 -2.9428  0.7201
  165SOPE   H8S18545   2.771   4.453   9.790 -1.3747 -0.5099  1.5535
  165SOPE   C2918546   2.662   4.641   9.760  0.5544  0.2122 -0.0001
  165SOPE   H9118547   2.611   4.724   9.811  0.2876  0.3441 -0.4701
  165SOPE  C21018548   2.644   4.620   9.629 -0.1126  0.2458 -0.6143
  165SOPE  H10118549   2.573   4.688   9.579 -3.9088 -2.9832  0.1033
  165SOPE  C21118550   2.679   4.495   9.551 -0.2149 -0.2910  0.9197
  165SOPE  H11R18551   2.605   4.492   9.469 -0.0524  1.8505  0.6586
  165SOPE  H11S18552   2.668   4.398   9.603  0.9899 -0.2047  1.3461
  165SOPE  C21218553   2.823   4.493   9.494  0.2086  0.4666  0.2077
  165SOPE  H12R18554   2.832   4.393   9.446  2.2501  0.2300  1.0049
  165SOPE  H12S18555   2.895   4.488   9.579 -0.3112 -0.3861  0.6091
  165SOPE  C21318556   2.844   4.604   9.395 -0.0749 -0.1786  0.1957
  165SOPE  H13R18557   2.952   4.608   9.367  0.1673  0.6058  1.2346
  165SOPE  H13S18558   2.824   4.698   9.449  0.3837  0.9413 -1.5311
  165SOPE  C21418559   2.757   4.589   9.270 -0.1241  0.0624 -0.4147
  165SOPE  H14R18560   2.653   4.608   9.305 -0.8468 -0.4027 -2.2700
  165SOPE  H14S18561   2.767   4.487   9.228  0.9848 -1.7102  3.9125
  165SOPE  C21518562   2.786   4.692   9.165  0.0873 -0.5234  0.8340
  165SOPE  H15R18563   2.877   4.653   9.113  0.7574  2.3911 -0.2452
  165SOPE  H15S18564   2.810   4.792   9.207  0.7434 -0.4816  0.3722
  165SOPE  C21618565   2.663   4.708   9.074  0.7827 -0.7470  0.2368
  165SOPE  H16R18566   2.672   4.790   8.999  1.4289 -2.2277 -1.3241
  165SOPE  H16S18567   2.569   4.719   9.131 -0.5980  0.0244 -2.0842
  165SOPE  C21718568   2.630   4.585   8.981 -0.2059 -0.3926  0.2669
  165SOPE  H17R18569   2.596   4.501   9.045 -1.0602 -1.7155 -1.8836
  165SOPE  H17S18570   2.713   4.555   8.914 -0.3683  1.4644 -0.8145
  165SOPE  C21818571   2.511   4.604   8.889 -0.1100 -0.3293  0.0702
  165SOPE  H18R18572   2.543   4.687   8.823  1.5324  0.3270  1.6568
  165SOPE  H18S18573   2.424   4.641   8.948  1.8051  2.1878  1.4246
  165SOPE  H18T18574   2.484   4.509   8.838  0.4994 -0.3656 -0.1770
  165SOPE   C3318575   2.945   4.517  10.498 -0.3563 -0.4132  0.0993
  165SOPE   H3X18576   2.860   4.460  10.454 -0.6065 -0.5283  0.7209
  165SOPE   H3Y18577   3.035   4.508  10.435 -1.0043  3.0588 -1.4313
  165SOPE   C3418578   2.925   4.672  10.498  0.0110  0.2142 -0.6425
  165SOPE   H4X18579   3.014   4.727  10.537 -0.4816 -0.0287  0.8107
  165SOPE   H4Y18580   2.847   4.689  10.575 -1.0916 -0.3382 -1.6145
  165SOPE   C3518581   2.891   4.731  10.363 -0.4344  0.1689  0.2825
  165SOPE   H5X18582   2.854   4.836  10.371  2.4765  1.2231  0.7734
  165SOPE   H5Y18583   2.830   4.658  10.306 -0.5140 -0.3136  0.9940
  165SOPE   C3618584   3.016   4.764  10.281  0.4684 -0.5269  0.4829
  165SOPE   H6X18585   3.082   4.674  10.284 -0.1064 -1.0197 -1.1841
  165SOPE   H6Y18586   3.063   4.855  10.324  1.5772  0.3690 -2.4883
  165SOPE   C3718587   2.991   4.818  10.139 -0.0711 -0.3472 -0.2457
  165SOPE   H7X18588   2.916   4.899  10.148  3.0637  2.4559  1.4827
  165SOPE   H7Y18589   2.954   4.739  10.069  3.1573 -3.2603  1.1672
  165SOPE   C3818590   3.124   4.868  10.082  0.0031  0.3820 -0.7274
  165SOPE   H8X18591   3.194   4.783  10.065  0.1365  0.3272  0.0430
  165SOPE   H8Y18592   3.165   4.926  10.167 -2.2146 -1.4476  1.7099
  165SOPE   C3918593   3.115   4.971   9.969 -0.4280  0.1053 -0.2583
  165SOPE   H9X18594   3.211   5.027   9.974 -0.2434 -0.3613  1.4824
  165SOPE   H9Y18595   3.038   5.051   9.980 -2.6822 -1.8006 -1.8391
  165SOPE  C31018596   3.103   4.909   9.828  0.8631 -0.1630  0.3368
  165SOPE  H10X18597   3.003   4.864   9.812  1.2293 -1.0733  0.5698
  165SOPE  H10Y18598   3.170   4.821   9.819  1.5255  0.4964 -1.2950
  165SOPE  C31118599   3.121   5.003   9.706  0.2418 -0.4602  0.0545
  165SOPE  H11X18600   3.231   5.018   9.699  0.5004 -1.0410  2.4114
  165SOPE  H11Y18601   3.067   5.099   9.724  0.7877  0.2062 -1.8161
  165SOPE  C31218602   3.069   4.943   9.577 -0.5269  0.0876 -0.4854
  165SOPE  H12X18603   2.959   4.925   9.572 -0.1782 -2.2189 -0.4433
  165SOPE  H12Y18604   3.115   4.843   9.560 -2.0718 -0.6763 -0.3390
  165SOPE  C31318605   3.116   5.034   9.468 -0.2416 -0.4295  0.3252
  165SOPE  H13X18606   3.224   5.008   9.467  0.0834  0.9039 -0.2045
  165SOPE  H13Y18607   3.093   5.141   9.490  0.8534 -0.4929  1.8352
  165SOPE  C31418608   3.039   4.988   9.341  0.2235 -0.5181  0.1730
  165SOPE  H14X18609   2.929   4.999   9.358  0.4237  0.5520  0.8422
  165SOPE  H14Y18610   3.053   4.882   9.311 -0.3631 -0.3713 -0.6667
  165SOPE  C31518611   3.079   5.069   9.214 -0.3636 -0.6795  0.0223
  165SOPE  H15X18612   3.188   5.060   9.198 -0.0875  0.9402  0.8736
  165SOPE  H15Y18613   3.051   5.176   9.232  0.0385 -0.1655 -2.3388
  165SOPE  C31618614   3.005   5.010   9.095 -0.8940  0.6551  0.5283
  165SOPE  H16X18615   2.899   5.001   9.126 -1.4835  0.3697 -1.5276
  165SOPE  H16Y18616   3.042   4.906   9.086  0.5951  1.3380 -1.7580
  165SOPE  C31718617   3.014   5.077   8.955  0.1724  0.7537 -0.6514
  165SOPE  H17X18618   3.108   5.136   8.951  0.8626 -0.0491  2.3180
  165SOPE  H17Y18619   2.927   5.140   8.926 -2.0048 -0.7417  2.3388
  165SOPE  C31818620   3.038   4.963   8.848  0.1777  0.5405  0.2123
  165SOPE  H18X18621   2.950   4.896   8.837  2.0690 -1.8454 -0.6576
  165SOPE  H18Y18622   3.123   4.899   8.880 -0.0331  0.0594 -0.1805
  165SOPE  H18Z18623   3.063   5.002   8.747 -2.8285  2.9161  0.3177
  166SOPE     N18624   5.567   4.335  10.910  0.2121  0.2856  0.7439
  166SOPE   HN118625   5.550   4.233  10.927 -2.8859  0.4659 -0.9299
  166SOPE   HN218626   5.475   4.380  10.897  1.7021  2.8438 -1.4991
  166SOPE   HN318627   5.606   4.341  10.814 -0.3117  1.4602  0.5965
  166SOPE   C1218628   5.648   4.426  11.004  0.8932  0.9459 -0.0694
  166SOPE  H12A18629   5.749   4.384  11.019  1.1049  1.1928 -0.7862
  166SOPE  H12B18630   5.592   4.425  11.100  3.0698  0.1609  1.2265
  166SOPE   C1118631   5.659   4.563  10.942 -0.5785 -0.2813  0.1283
  166SOPE  H11A18632   5.719   4.634  11.003  2.2943 -1.6415 -1.0217
  166SOPE  H11B18633   5.554   4.596  10.925 -1.0665 -0.4753  2.5276
  166SOPE     P18634   5.873   4.535  10.777 -0.1069  0.1382  0.3454
  166SOPE   O1318635   5.911   4.401  10.738 -0.0026  0.2220 -0.6803
  166SOPE   O1418636   5.949   4.583  10.892 -0.0563  1.3293  0.4962
  166SOPE   O1218637   5.722   4.558  10.814  0.9416 -0.0165  0.4325
  166SOPE   O1118638   5.899   4.629  10.651 -0.4994  0.2093 -0.1001
  166SOPE    C118639   5.841   4.753  10.643  0.4671 -0.0042  0.0431
  166SOPE    HA18640   5.887   4.823  10.716  0.8145 -0.2836  0.0884
  166SOPE    HB18641   5.733   4.747  10.669  0.4668 -1.2297 -0.2213
  166SOPE    C218642   5.852   4.811  10.498  0.0883  0.0742 -0.1407
  166SOPE    HS18643   5.962   4.808  10.480  0.2435 -0.9025  0.9764
  166SOPE   O2118644   5.804   4.946  10.496  0.2148  0.0396 -0.3448
  166SOPE   C2118645   5.898   5.040  10.520 -0.2885  0.0546  0.2121
  166SOPE   O2218646   6.009   5.024  10.567 -0.3372  0.2548  0.8490
  166SOPE   C2218647   5.839   5.182  10.485  0.3037  0.3847 -1.0613
  166SOPE   H2R18648   5.843   5.248  10.575  1.0127  1.5494 -1.9263
  166SOPE   H2S18649   5.731   5.171  10.465 -0.1798  1.1733  1.0245
  166SOPE    C318650   5.771   4.728  10.390  0.1044 -0.1026  0.8525
  166SOPE    HX18651   5.665   4.731  10.424  0.3441  2.1056  1.4680
  166SOPE    HY18652   5.797   4.621  10.404 -1.1702 -0.4085  0.9417
  166SOPE   O3118653   5.785   4.768  10.251 -0.3124  0.1846  0.0664
  166SOPE   C3118654   5.890   4.724  10.190  0.9207  0.0783  0.1288
  166SOPE   O3218655   5.981   4.657  10.238  0.2525  0.0975 -0.3390
  166SOPE   C3218656   5.889   4.770  10.038 -0.1484 -0.3627  0.0578
  166SOPE   H2X18657   5.934   4.871  10.031 -1.1129  0.2555  2.1310
  166SOPE   H2Y18658   5.781   4.780  10.014  0.3742  1.6976 -1.5786
  166SOPE   C2318659   5.920   5.266  10.380 -0.0642 -0.3950 -0.4058
  166SOPE   H3R18660   6.029   5.243  10.377 -0.0609 -0.5602  0.8652
  166SOPE   H3S18661   5.898   5.372  10.403  2.3243 -0.4804  2.5860
  166SOPE   C2418662   5.872   5.247  10.230  0.6124  0.5178 -1.3360
  166SOPE   H4R18663   5.862   5.141  10.199 -1.5375  0.7377 -1.4754
  166SOPE   H4S18664   5.771   5.292  10.226  0.8117  1.1489  0.2533
  166SOPE   C2518665   5.963   5.322  10.129 -1.0906 -0.3927 -0.6188
  166SOPE   H5R18666   5.954   5.428  10.163  0.4096 -0.3207 -0.3826
  166SOPE   H5S18667   6.066   5.281  10.142 -1.1183 -0.7657 -1.5173
  166SOPE   C2618668   5.909   5.307   9.982 -0.5268  0.0129  0.0693
  166SOPE   H6R18669   5.897   5.198   9.961 -1.5810  0.3325 -0.9843
  166SOPE   H6S18670   5.807   5.350   9.981 -0.9275 -0.8866  1.0420
  166SOPE   C2718671   5.995   5.351   9.863  0.3824  0.0043  0.2513
  166SOPE   H7R18672   6.035   5.453   9.880 -1.0482  0.8028 -1.0455
  166SOPE   H7S18673   6.081   5.280   9.858  0.0802 -0.4431  1.1356
  166SOPE   C2818674   5.922   5.340   9.729  0.2174 -0.5339  0.2527
  166SOPE   H8R18675   5.896   5.234   9.711  0.8340 -1.0402  2.3060
  166SOPE   H8S18676   5.834   5.407   9.720  0.9656  0.6648  1.6992
  166SOPE   C2918677   6.017   5.399   9.623 -0.0022 -0.7151 -0.1351
  166SOPE   H9118678   6.054   5.498   9.654  0.5295 -1.5981  2.1272
  166SOPE  C21018679   6.076   5.346   9.513 -0.3251 -0.0975 -0.3216
  166SOPE  H10118680   6.152   5.401   9.456 -0.2427  2.9570  2.6317
  166SOPE  C21118681   6.045   5.202   9.458 -0.0976 -0.8319 -0.2249
  166SOPE  H11R18682   6.000   5.212   9.357 -2.9044 -0.4703  1.0048
  166SOPE  H11S18683   5.976   5.140   9.520 -1.6673 -0.1897 -1.2944
  166SOPE  C21218684   6.173   5.116   9.453 -0.0623 -0.2806  0.3647
  166SOPE  H12R18685   6.234   5.164   9.374 -2.8362  0.9893 -1.0846
  166SOPE  H12S18686   6.139   5.016   9.420  1.1625 -0.7273  0.4274
  166SOPE  C21318687   6.250   5.104   9.591 -0.6669  0.7707 -0.6414
  166SOPE  H13R18688   6.284   5.205   9.621 -0.3973  0.9587 -1.5783
  166SOPE  H13S18689   6.342   5.049   9.561 -0.0594  2.2647 -1.5743
  166SOPE  C21418690   6.187   5.040   9.707 -0.6912 -0.2664  0.1999
  166SOPE  H14R18691   6.196   4.929   9.700 -0.8621 -0.2164 -1.0583
  166SOPE  H14S18692   6.087   5.082   9.733 -0.3416  1.4970 -1.1795
  166SOPE  C21518693   6.264   5.060   9.841 -0.2274 -0.8304 -0.2056
  166SOPE  H15R18694   6.290   5.168   9.847 -0.2402 -0.9122  1.6648
  166SOPE  H15S18695   6.355   4.996   9.845  0.4694  0.2687  4.2083
  166SOPE  C21618696   6.191   5.039   9.970 -0.9155 -0.6404  0.0149
  166SOPE  H16R18697   6.173   4.929   9.969 -0.2803 -0.7328 -1.8052
  166SOPE  H16S18698   6.094   5.092   9.978 -1.1349 -1.1151  0.6049
  166SOPE  C21718699   6.273   5.064  10.093  0.2137  1.0168  0.1755
  166SOPE  H17R18700   6.288   5.173  10.109  2.0986  0.8336 -0.2602
  166SOPE  H17S18701   6.372   5.017  10.076 -0.0438  0.1984  0.8690
  166SOPE  C21818702   6.207   4.999  10.221 -0.2750 -0.5718 -0.1864
  166SOPE  H18R18703   6.255   5.043  10.310  1.7030 -0.9109 -1.0575
  166SOPE  H18S18704   6.215   4.888  10.223 -1.4312 -0.7192 -2.1610
  166SOPE  H18T18705   6.097   5.016  10.216 -0.1665  0.1214 -0.1964
  166SOPE   C3318706   5.954   4.680   9.929 -0.1778  0.0959  0.7424
  166SOPE   H3X18707   5.918   4.575   9.925 -1.8463  0.5287  3.0410
  166SOPE   H3Y18708   6.064   4.679   9.946 -0.2533 -2.3917  1.1830
  166SOPE   C3418709   5.925   4.740   9.786  0.3459  0.4228 -0.2530
  166SOPE   H4X18710   5.965   4.844   9.785 -0.0796  0.6136  1.2830
  166SOPE   H4Y18711   5.820   4.763   9.758  0.2283 -0.6968 -0.7295
  166SOPE   C3518712   5.997   4.667   9.673  0.0444 -0.3718 -0.4956
  166SOPE   H5X18713   5.940   4.573   9.659 -0.2938 -0.2652  0.1276
  166SOPE   H5Y18714   6.103   4.659   9.705 -0.3488  0.0248  0.9590
  166SOPE   C3618715   5.992   4.744   9.542  0.4231 -0.5299  0.1268
  166SOPE   H6X18716   6.054   4.836   9.550 -0.4648 -0.0568  2.0559
  166SOPE   H6Y18717   5.882   4.759   9.531  0.0337 -2.5934  0.9813
  166SOPE   C3718718   6.047   4.661   9.429 -0.0890  0.4140 -0.1386
  166SOPE   H7X18719   5.976   4.575   9.432 -0.6026  0.9012  3.5064
  166SOPE   H7Y18720   6.148   4.617   9.445 -1.0536 -1.2629  1.4097
  166SOPE   C3818721   6.058   4.720   9.290 -0.4223  0.7660 -0.7392
  166SOPE   H8X18722   6.123   4.656   9.226 -1.0068 -0.2058 -0.3631
  166SOPE   H8Y18723   6.114   4.814   9.308  0.7273 -0.0600  0.0516
  166SOPE   C3918724   5.924   4.746   9.240 -0.0384  0.3805 -0.6290
  166SOPE   H9X18725   5.860   4.815   9.298  3.1902  1.6178  1.6267
  166SOPE   H9Y18726   5.873   4.647   9.246 -0.8658  0.7204 -1.9992
  166SOPE  C31018727   5.932   4.798   9.094 -0.6675 -0.1670  0.4563
  166SOPE  H10X18728   5.831   4.786   9.048 -1.2014  1.5964  1.1230
  166SOPE  H10Y18729   6.004   4.723   9.054 -0.0004 -0.5780  2.4027
  166SOPE  C31118730   5.977   4.943   9.081 -0.0775 -0.2396 -0.8805
  166SOPE  H11X18731   6.078   4.964   9.123 -1.2988  1.7463  1.1525
  166SOPE  H11Y18732   5.915   4.992   9.159  1.0762  1.7064 -1.1584
  166SOPE  C31218733   5.945   5.018   8.946  0.0593 -0.1996  0.2153
  166SOPE  H12X18734   5.970   5.127   8.944  1.2709 -0.4361  2.1673
  166SOPE  H12Y18735   5.837   5.011   8.919  0.0793  1.5101 -0.3997
  166SOPE  C31318736   6.017   4.950   8.826  0.5340 -0.0270  0.6504
  166SOPE  H13X18737   6.014   4.839   8.833 -1.0701 -0.1119 -1.1408
  166SOPE  H13Y18738   6.121   4.985   8.842  1.1678 -0.9281 -1.4438
  166SOPE  C31418739   5.986   5.006   8.680  0.8221 -0.2165 -0.0966
  166SOPE  H14X18740   5.882   4.988   8.646 -0.0433  1.7797  1.4018
  166SOPE  H14Y18741   6.040   4.942   8.606  0.5779 -1.3891  0.7245
  166SOPE  C31518742   6.013   5.157   8.665  0.0249 -0.2544  0.0141
  166SOPE  H15X18743   6.118   5.184   8.690  0.3887 -0.5116 -1.2024
  166SOPE  H15Y18744   5.947   5.221   8.727 -2.0710 -4.8199  2.8339
  166SOPE  C31618745   5.977   5.197   8.517 -0.5655  0.8607 -0.1554
  166SOPE  H16X18746   5.874   5.176   8.480  0.9404  0.8516 -4.6881
  166SOPE  H16Y18747   6.048   5.152   8.445  0.0826  1.4435  0.1119
  166SOPE  C31718748   5.993   5.354   8.493  0.6458 -0.2824 -1.1094
  166SOPE  H17X18749   6.100   5.384   8.491  0.4161  1.1157  2.9972
  166SOPE  H17Y18750   5.934   5.412   8.567  2.4817 -0.7025  0.7088
  166SOPE  C31818751   5.928   5.400   8.362  0.5424 -0.1394 -0.0810
  166SOPE  H18X18752   5.817   5.389   8.357  0.3146  1.6796  0.2327
  166SOPE  H18Y18753   5.974   5.349   8.275 -1.6954 -1.4014 -0.5561
  166SOPE  H18Z18754   5.948   5.508   8.343 -2.8774  0.9808  2.1635
  167SOPE     N18755   0.964   2.606   6.341  0.6488 -0.0177  0.1579
  167SOPE   HN118756   1.001   2.669   6.267  1.6195  0.0339  0.6688
  167SOPE   HN218757   1.005   2.511   6.343 -0.0416 -0.3086  0.6863
  167SOPE   HN318758   0.864   2.592   6.319  0.3175 -1.1500  2.2949
  167SOPE   C1218759   0.975   2.690   6.465  0.2946 -0.4316  0.6845
  167SOPE  H12A18760   1.086   2.693   6.474  0.5438 -0.3221 -2.0281
  167SOPE  H12B18761   0.921   2.640   6.548 -1.9841  0.4602 -0.2232
  167SOPE   C1118762   0.917   2.832   6.430 -0.4775 -0.2652 -0.1916
  167SOPE  H11A18763   0.929   2.900   6.517  0.1707 -1.4839  0.6964
  167SOPE  H11B18764   0.808   2.816   6.427 -0.7926  1.6834  0.4809
  167SOPE     P18765   1.099   2.924   6.257  0.0980 -0.0182  0.5924
  167SOPE   O1318766   1.095   3.054   6.189 -0.5470  0.2150  0.2098
  167SOPE   O1418767   1.135   2.794   6.184 -0.3567  0.6893  0.4861
  167SOPE   O1218768   0.961   2.894   6.310  0.3346 -0.5413 -0.2042
  167SOPE   O1118769   1.176   2.946   6.392 -0.0298  0.5539 -0.2188
  167SOPE    C118770   1.320   2.948   6.384 -0.3872 -0.0983 -0.0842
  167SOPE    HA18771   1.339   3.055   6.360  0.2591 -0.6573 -2.1969
  167SOPE    HB18772   1.364   2.894   6.297  0.0775  1.2080 -0.6787
  167SOPE    C218773   1.384   2.895   6.513  0.4256 -0.5620  0.8756
  167SOPE    HS18774   1.364   2.786   6.522  0.1028 -0.4829  1.1790
  167SOPE   O2118775   1.336   2.974   6.619 -0.0959 -0.3029  0.7063
  167SOPE   C2118776   1.250   2.925   6.697  0.3117 -0.0026 -0.2382
  167SOPE   O2218777   1.210   2.811   6.704  0.0685  0.4398 -0.3738
  167SOPE   C2218778   1.222   3.040   6.803  0.6762  0.1998  0.3878
  167SOPE   H2R18779   1.192   3.129   6.744  0.2059 -0.3511 -0.2202
  167SOPE   H2S18780   1.320   3.065   6.848  0.3702  3.9250 -0.8268
  167SOPE    C318781   1.533   2.922   6.502 -0.2735 -0.2876  0.2118
  167SOPE    HX18782   1.550   3.030   6.479 -0.0577 -0.1341  1.0727
  167SOPE    HY18783   1.582   2.873   6.416  0.6769  2.4458 -0.8781
  167SOPE   O3118784   1.593   2.887   6.622 -0.0287 -0.2925 -0.4888
  167SOPE   C3118785   1.601   2.755   6.660 -0.6773  0.9768  0.6433
  167SOPE   O3218786   1.559   2.667   6.584  0.1316 -0.2072 -0.1856
  167SOPE   C3218787   1.662   2.738   6.790 -0.8327  0.1829  0.2246
  167SOPE   H2X18788   1.646   2.826   6.857  1.1561  1.5699 -1.0455
  167SOPE   H2Y18789   1.772   2.731   6.772 -0.3329  3.5224  1.5833
  167SOPE   C2318790   1.116   3.010   6.913  0.3908  0.0507  0.0088
  167SOPE   H3R18791   1.130   2.910   6.961  3.6106  1.0866  1.3461
  167SOPE   H3S18792   1.019   3.006   6.860 -0.1806 -2.3913  1.1850
  167SOPE   C2418793   1.103   3.123   7.017 -0.1037 -0.1862 -0.5930
  167SOPE   H4R18794   1.082   3.222   6.971 -0.6015 -0.5975 -1.2677
  167SOPE   H4S18795   1.022   3.094   7.088  1.1613 -0.7406  0.6472
  167SOPE   C2518796   1.224   3.145   7.107  0.3485  0.0507 -0.1402
  167SOPE   H5R18797   1.261   3.047   7.144  0.7469 -0.1814 -1.1479
  167SOPE   H5S18798   1.301   3.200   7.048 -0.0234 -0.6581 -1.2913
  167SOPE   C2618799   1.182   3.228   7.237 -0.5985 -0.3168  0.2923
  167SOPE   H6R18800   1.259   3.304   7.263 -0.2817 -0.8931  1.0579
  167SOPE   H6S18801   1.093   3.293   7.223  0.4824  1.4817  1.4530
  167SOPE   C2718802   1.172   3.132   7.355 -0.8150 -0.0023 -0.3026
  167SOPE   H7R18803   1.118   3.043   7.315 -1.6758  0.6849 -0.6885
  167SOPE   H7S18804   1.277   3.100   7.371 -1.2344 -1.5863 -0.6237
  167SOPE   C2818805   1.104   3.196   7.471 -0.5391 -0.5839 -0.1583
  167SOPE   H8R18806   1.159   3.290   7.496 -1.3495  0.2218 -1.3516
  167SOPE   H8S18807   1.002   3.229   7.443  0.0329 -0.2199 -1.8580
  167SOPE   C2918808   1.085   3.106   7.591 -0.1817  0.0359 -0.1319
  167SOPE   H9118809   1.080   3.000   7.562  0.0159 -0.3753  1.2696
  167SOPE  C21018810   1.082   3.132   7.723  0.3192 -0.0306  0.5153
  167SOPE  H10118811   1.068   3.041   7.783  3.0944 -1.8274 -1.4156
  167SOPE  C21118812   1.091   3.265   7.798  0.6207  0.1291  0.0499
  167SOPE  H11R18813   0.989   3.309   7.801  0.2870 -0.4201 -2.1657
  167SOPE  H11S18814   1.149   3.334   7.733 -1.2208  1.9842  0.3321
  167SOPE  C21218815   1.150   3.254   7.942 -0.4771 -0.4294 -0.8855
  167SOPE  H12R18816   1.171   3.358   7.975 -1.2306 -0.4307 -0.3892
  167SOPE  H12S18817   1.243   3.192   7.941 -0.7975 -0.9237 -2.5159
  167SOPE  C21318818   1.057   3.186   8.045 -0.4173 -0.3083  0.3757
  167SOPE  H13R18819   1.055   3.075   8.039 -0.0674 -0.3153  0.3659
  167SOPE  H13S18820   0.952   3.217   8.029 -0.9703 -3.1972 -2.2199
  167SOPE  C21418821   1.086   3.227   8.192  0.6984  0.2534  1.0024
  167SOPE  H14R18822   1.077   3.338   8.193 -0.5886  0.1682  2.8760
  167SOPE  H14S18823   1.177   3.180   8.235  0.6337 -0.8969 -0.0999
  167SOPE  C21518824   0.982   3.167   8.286 -0.1214  0.0904 -0.0573
  167SOPE  H15R18825   0.989   3.056   8.279 -0.8794  0.0526 -0.2690
  167SOPE  H15S18826   0.881   3.192   8.246 -0.6988 -2.7413 -0.5067
  167SOPE  C21618827   0.984   3.218   8.436  0.0167  0.0231 -0.3825
  167SOPE  H16R18828   0.987   3.330   8.434 -1.1057  0.0833  0.8783
  167SOPE  H16S18829   1.083   3.191   8.479  1.0801 -0.1977 -2.8630
  167SOPE  C21718830   0.868   3.175   8.522 -0.1588 -0.0121 -0.5535
  167SOPE  H17R18831   0.831   3.081   8.475  1.0174 -0.6418 -0.2533
  167SOPE  H17S18832   0.781   3.243   8.510 -1.2911 -1.1729  0.8603
  167SOPE  C21818833   0.897   3.140   8.668 -0.9838  0.2366  0.0575
  167SOPE  H18R18834   0.954   3.044   8.674 -0.2863  0.4826 -2.1997
  167SOPE  H18S18835   0.805   3.126   8.728 -1.0273  0.4641  0.0426
  167SOPE  H18T18836   0.955   3.223   8.714 -2.0678  1.0214  0.0130
  167SOPE   C3318837   1.601   2.618   6.867 -0.0319  0.1048 -0.5130
  167SOPE   H3X18838   1.657   2.593   6.959  0.2666 -2.9548 -1.4692
  167SOPE   H3Y18839   1.613   2.526   6.805 -1.1683  0.9408 -1.9997
  167SOPE   C3418840   1.455   2.632   6.907 -0.0976 -0.0363  0.2634
  167SOPE   H4X18841   1.392   2.654   6.818 -0.1566 -1.4759 -0.0643
  167SOPE   H4Y18842   1.445   2.715   6.980  1.9578  0.8002 -0.3860
  167SOPE   C3518843   1.384   2.501   6.958  0.0140  0.3990  0.7111
  167SOPE   H5X18844   1.448   2.435   7.020 -0.8166 -0.6637  0.4669
  167SOPE   H5Y18845   1.342   2.453   6.867  2.1175  2.1004 -1.1927
  167SOPE   C3618846   1.257   2.520   7.043  0.1077  0.1397 -0.1602
  167SOPE   H6X18847   1.202   2.425   7.059  0.5520  0.0998  1.1640
  167SOPE   H6Y18848   1.185   2.588   6.992  0.5513  0.7501  0.0244
  167SOPE   C3718849   1.292   2.578   7.184  0.0778 -0.1695 -0.0159
  167SOPE   H7X18850   1.326   2.684   7.177 -1.9210  0.5237  0.4676
  167SOPE   H7Y18851   1.375   2.524   7.235  2.7551  2.5958 -1.2904
  167SOPE   C3818852   1.173   2.580   7.283  0.0130 -0.1394 -0.3661
  167SOPE   H8X18853   1.146   2.473   7.302  1.0105 -0.2781  0.2895
  167SOPE   H8Y18854   1.097   2.645   7.235 -1.7374 -1.1803  0.8887
  167SOPE   C3918855   1.208   2.633   7.422 -0.0744 -0.3543  0.0283
  167SOPE   H9X18856   1.253   2.734   7.411  0.4266 -0.4591  1.0802
  167SOPE   H9Y18857   1.270   2.556   7.472 -0.5738 -1.0288 -0.3870
  167SOPE  C31018858   1.082   2.663   7.508 -0.0084  0.1437  0.4736
  167SOPE  H10X18859   1.037   2.561   7.504 -1.3346  0.7656 -1.4208
  167SOPE  H10Y18860   1.016   2.732   7.451 -1.5257 -1.0936  0.6886
  167SOPE  C31118861   1.100   2.717   7.656 -0.1027  0.2367  0.5635
  167SOPE  H11X18862   1.143   2.818   7.640 -0.2482  0.1453 -0.4174
  167SOPE  H11Y18863   1.173   2.653   7.710 -0.3981 -0.7430 -0.1851
  167SOPE  C31218864   0.966   2.717   7.725 -0.3133  0.1042  0.2570
  167SOPE  H12X18865   0.913   2.619   7.727  1.5261 -0.9058  0.5666
  167SOPE  H12Y18866   0.910   2.794   7.668  1.1891  2.2171  1.5474
  167SOPE  C31318867   0.972   2.753   7.872 -0.1150 -0.0796 -0.3858
  167SOPE  H13X18868   1.021   2.852   7.884  0.0799 -0.2519  0.3208
  167SOPE  H13Y18869   1.036   2.679   7.926  1.2049 -0.0480 -1.8906
  167SOPE  C31418870   0.828   2.756   7.928  0.7711  0.2508 -0.4671
  167SOPE  H14X18871   0.820   2.648   7.955  0.7590  1.0172  2.7115
  167SOPE  H14Y18872   0.747   2.785   7.857  0.9122 -0.1994 -0.8211
  167SOPE  C31518873   0.818   2.842   8.053 -0.2135  0.1031  0.6460
  167SOPE  H15X18874   0.844   2.946   8.023 -1.4834  0.0158 -0.7956
  167SOPE  H15Y18875   0.888   2.795   8.126  0.6814  1.4951  0.6911
  167SOPE  C31618876   0.684   2.842   8.120  0.3367  0.0277  0.5720
  167SOPE  H16X18877   0.679   2.735   8.150  0.0245 -0.0894  0.1119
  167SOPE  H16Y18878   0.606   2.871   8.046 -1.7740  0.8678  3.0484
  167SOPE  C31718879   0.687   2.927   8.243 -0.5376 -0.4605 -0.0922
  167SOPE  H17X18880   0.693   3.031   8.206  0.0741  0.7557  3.2568
  167SOPE  H17Y18881   0.779   2.899   8.299 -1.0210 -1.5256  0.1892
  167SOPE  C31818882   0.572   2.916   8.334  0.1415 -0.1935 -0.3227
  167SOPE  H18X18883   0.582   2.986   8.420  1.6747  0.3128 -0.8861
  167SOPE  H18Y18884   0.575   2.817   8.384 -1.5839 -0.4448 -0.7021
  167SOPE  H18Z18885   0.470   2.929   8.293  0.0333 -0.1182 -0.0263
  168SOPE     N18886   1.187   6.563   6.173 -0.1289  0.3519  0.3808
  168SOPE   HN118887   1.113   6.531   6.238  0.1057  0.4228  0.6803
  168SOPE   HN218888   1.161   6.648   6.119 -1.5977  0.3445  1.0645
  168SOPE   HN318889   1.201   6.492   6.097  3.9258  0.2692  1.0872
  168SOPE   C1218890   1.312   6.580   6.253 -0.4652 -0.1222 -0.1524
  168SOPE  H12A18891   1.374   6.664   6.215  1.0885  0.0917  2.7068
  168SOPE  H12B18892   1.378   6.492   6.252 -0.0634  0.1817 -0.4694
  168SOPE   C1118893   1.274   6.627   6.398 -0.2195 -0.0161  0.2780
  168SOPE  H11A18894   1.358   6.637   6.470  0.7692 -1.0107 -0.7251
  168SOPE  H11B18895   1.206   6.546   6.432  0.3791 -0.3093  0.7804
  168SOPE     P18896   1.280   6.892   6.433 -0.3518 -0.2732 -0.6109
  168SOPE   O1318897   1.202   7.008   6.397 -0.2438  0.2980 -0.2765
  168SOPE   O1418898   1.414   6.891   6.375 -0.1330  0.7912  0.9099
  168SOPE   O1218899   1.211   6.760   6.393  0.0577  0.3953 -0.4274
  168SOPE   O1118900   1.287   6.881   6.592 -0.1048  0.4361  0.1375
  168SOPE    C118901   1.172   6.905   6.670 -0.3876  0.5271  0.6710
  168SOPE    HA18902   1.098   6.968   6.617 -2.3647 -1.4764  0.9706
  168SOPE    HB18903   1.213   6.971   6.750  2.6401  1.6999 -1.7531
  168SOPE    C218904   1.104   6.776   6.733  0.1015 -0.3544  0.0905
  168SOPE    HS18905   1.065   6.809   6.832  2.2254  1.3472  0.3862
  168SOPE   O2118906   1.202   6.672   6.745  0.6812  0.3398  0.2358
  168SOPE   C2118907   1.308   6.686   6.814  0.6734  0.0384 -0.0367
  168SOPE   O2218908   1.332   6.781   6.889  0.0933  0.1985 -0.0354
  168SOPE   C2218909   1.414   6.570   6.787  0.1958 -0.1914  0.2277
  168SOPE   H2R18910   1.518   6.605   6.799  0.6048 -1.1580 -0.4321
  168SOPE   H2S18911   1.418   6.557   6.677  1.1361 -0.6197  0.3119
  168SOPE    C318912   0.994   6.710   6.651  0.6229 -0.3364 -0.4643
  168SOPE    HX18913   1.032   6.654   6.563 -1.1606 -2.2785 -0.0511
  168SOPE    HY18914   0.929   6.788   6.605 -0.2859 -0.8031  0.0127
  168SOPE   O3118915   0.925   6.617   6.727  0.7198 -0.4158  0.5594
  168SOPE   C3118916   0.793   6.628   6.748 -0.1590 -0.2299 -0.2324
  168SOPE   O3218917   0.716   6.705   6.692 -0.1999  0.0002 -0.2192
  168SOPE   C3218918   0.759   6.528   6.856 -0.1614 -0.0134 -0.8227
  168SOPE   H2X18919   0.801   6.432   6.823  0.7355 -0.5912  1.8399
  168SOPE   H2Y18920   0.648   6.523   6.864  0.0296 -3.6862  0.1927
  168SOPE   C2318921   1.398   6.433   6.850  0.0972  0.3710  0.3238
  168SOPE   H3R18922   1.437   6.370   6.767  0.5105 -0.3433  1.0607
  168SOPE   H3S18923   1.293   6.397   6.856  0.5891 -0.8418  1.7006
  168SOPE   C2418924   1.454   6.412   6.987 -0.1553 -0.1343 -0.0211
  168SOPE   H4R18925   1.439   6.305   7.012  0.3054  0.4383  2.9731
  168SOPE   H4S18926   1.565   6.425   6.983  0.0491 -0.2516  3.4187
  168SOPE   C2518927   1.401   6.500   7.099 -0.1020 -0.1798 -0.3123
  168SOPE   H5R18928   1.436   6.605   7.089 -2.5638  0.7518  0.4326
  168SOPE   H5S18929   1.291   6.492   7.088 -0.3248 -1.3941  2.4879
  168SOPE   C2618930   1.430   6.446   7.242 -0.1464 -0.6577  0.0354
  168SOPE   H6R18931   1.381   6.346   7.240 -0.2489 -0.6052 -0.0491
  168SOPE   H6S18932   1.539   6.433   7.259 -0.3403 -0.7783  1.2640
  168SOPE   C2718933   1.373   6.539   7.351 -0.8298  0.8151 -0.0064
  168SOPE   H7R18934   1.428   6.636   7.347 -1.6411  1.3658  1.8079
  168SOPE   H7S18935   1.265   6.540   7.327 -0.7771 -1.4462 -0.4194
  168SOPE   C2818936   1.399   6.479   7.488 -0.1321 -0.0512  0.4315
  168SOPE   H8R18937   1.323   6.403   7.514 -1.0778  0.2260 -1.4768
  168SOPE   H8S18938   1.502   6.436   7.491 -0.8440 -1.8730 -0.8960
  168SOPE   C2918939   1.380   6.581   7.595  0.3207  0.1180  0.3334
  168SOPE   H9118940   1.277   6.618   7.598 -0.6151 -2.3026 -0.4021
  168SOPE  C21018941   1.457   6.629   7.691  0.4627 -0.2438  0.1509
  168SOPE  H10118942   1.429   6.710   7.759 -1.5437 -0.9171  0.1518
  168SOPE  C21118943   1.594   6.577   7.723  0.1347 -0.1361  0.7592
  168SOPE  H11R18944   1.657   6.668   7.724 -0.7617  0.5019  2.1742
  168SOPE  H11S18945   1.623   6.518   7.634  0.3710  0.9068  0.1423
  168SOPE  C21218946   1.610   6.503   7.858 -0.0934 -0.3126  0.7181
  168SOPE  H12R18947   1.716   6.470   7.864 -0.5093 -1.6910  0.6885
  168SOPE  H12S18948   1.538   6.419   7.856 -0.7943  0.2709  1.2142
  168SOPE  C21318949   1.571   6.592   7.976 -0.6189  0.2817  0.2107
  168SOPE  H13R18950   1.479   6.652   7.960 -1.0229 -0.8430 -1.7854
  168SOPE  H13S18951   1.647   6.671   7.994  0.5489 -1.2449  2.1927
  168SOPE  C21418952   1.567   6.511   8.114  0.3159  0.2429 -0.8701
  168SOPE  H14R18953   1.669   6.468   8.131 -0.1703 -0.4256  0.4498
  168SOPE  H14S18954   1.499   6.425   8.098  0.3676 -0.1659  0.9721
  168SOPE  C21518955   1.525   6.595   8.226 -0.5761 -0.1271 -0.1319
  168SOPE  H15R18956   1.430   6.652   8.219  0.2126  1.3822  1.2206
  168SOPE  H15S18957   1.614   6.662   8.231  1.0480 -2.3964  3.2216
  168SOPE  C21618958   1.510   6.510   8.356 -0.1574 -0.0538  0.7038
  168SOPE  H16R18959   1.592   6.436   8.362 -0.7782 -0.8338 -0.2005
  168SOPE  H16S18960   1.423   6.441   8.350  0.2537 -0.3659 -3.0490
  168SOPE  C21718961   1.496   6.591   8.483  0.6773  0.1068  0.1683
  168SOPE  H17R18962   1.500   6.513   8.562 -1.9480  0.3044  0.5601
  168SOPE  H17S18963   1.399   6.645   8.481  0.7200  0.1273 -2.1668
  168SOPE  C21818964   1.611   6.690   8.489  0.5709 -0.1555 -0.3080
  168SOPE  H18R18965   1.582   6.775   8.423 -3.0829 -1.4646 -0.4522
  168SOPE  H18S18966   1.706   6.648   8.449 -1.3767 -3.2647 -1.8111
  168SOPE  H18T18967   1.620   6.718   8.596 -0.4961  1.5377 -0.6408
  168SOPE   C3318968   0.812   6.580   6.992  0.0080 -0.0467  0.3063
  168SOPE   H3X18969   0.918   6.610   6.979  0.7227 -1.6028  2.2479
  168SOPE   H3Y18970   0.810   6.491   7.059  0.3103  1.9343  3.0228
  168SOPE   C3418971   0.729   6.695   7.052  0.2073 -0.4666 -0.0657
  168SOPE   H4X18972   0.624   6.666   7.032 -0.1091 -0.7310  1.9148
  168SOPE   H4Y18973   0.755   6.794   7.009 -3.1262  0.6915  0.4212
  168SOPE   C3518974   0.758   6.706   7.206  0.3461  0.4482  0.1130
  168SOPE   H5X18975   0.726   6.614   7.259  1.8360 -0.8112 -1.1347
  168SOPE   H5Y18976   0.698   6.792   7.243  1.1952  0.0907  2.4228
  168SOPE   C3618977   0.907   6.730   7.232 -0.5580 -0.2063 -0.5602
  168SOPE   H6X18978   0.935   6.798   7.149 -3.4480  1.4790 -0.2133
  168SOPE   H6Y18979   0.965   6.637   7.210  0.8021  0.6449 -0.6123
  168SOPE   C3718980   0.939   6.786   7.371  0.3122  0.6772  0.7422
  168SOPE   H7X18981   0.904   6.890   7.384 -1.0106  0.0075  2.6082
  168SOPE   H7Y18982   1.050   6.793   7.376  0.6918 -3.4887 -0.2026
  168SOPE   C3818983   0.887   6.690   7.477 -0.4087  0.5672 -0.1022
  168SOPE   H8X18984   0.925   6.588   7.454  0.9812  0.5875  1.9929
  168SOPE   H8Y18985   0.776   6.693   7.476 -0.4415 -0.5373 -0.3230
  168SOPE   C3918986   0.931   6.725   7.626  0.3775  0.1762 -0.1079
  168SOPE   H9X18987   0.881   6.825   7.626 -0.3059 -0.1635 -0.7923
  168SOPE   H9Y18988   1.041   6.739   7.638  0.4965 -1.3446  0.6944
  168SOPE  C31018989   0.871   6.632   7.732 -0.8338 -0.7151  0.7362
  168SOPE  H10X18990   0.892   6.524   7.722  1.5588 -0.3702  1.7499
  168SOPE  H10Y18991   0.760   6.640   7.734 -0.8130 -0.1443 -0.4192
  168SOPE  C31118992   0.920   6.657   7.882  0.4265 -0.4717 -0.5788
  168SOPE  H11X18993   0.843   6.626   7.955 -0.4120  2.4605 -0.1335
  168SOPE  H11Y18994   0.919   6.766   7.904 -2.2199 -1.0504  2.3849
  168SOPE  C31218995   1.053   6.592   7.915 -0.1817  0.2938 -0.2119
  168SOPE  H12X18996   1.130   6.599   7.836  0.6199  3.3836  0.7511
  168SOPE  H12Y18997   1.030   6.486   7.937 -1.4855  0.5857 -0.1152
  168SOPE  C31318998   1.110   6.654   8.046  0.2016  0.2316 -0.4310
  168SOPE  H13X18999   1.100   6.764   8.030  0.9685  0.5116  0.9151
  168SOPE  H13Y19000   1.220   6.639   8.053 -0.1003 -2.1350 -0.4362
  168SOPE  C31419001   1.033   6.601   8.168 -0.2438 -0.3208 -0.5012
  168SOPE  H14X19002   1.053   6.492   8.167 -2.5547 -0.7517 -1.2346
  168SOPE  H14Y19003   0.925   6.613   8.146 -0.0426  2.4747 -0.2659
  168SOPE  C31519004   1.073   6.676   8.302  0.7580  0.1020 -0.5129
  168SOPE  H15X19005   1.184   6.685   8.313  0.8488  0.3101 -1.5473
  168SOPE  H15Y19006   1.040   6.621   8.393  2.2088  0.1639  0.0642
  168SOPE  C31619007   1.026   6.818   8.312 -0.3970  0.1059  0.1624
  168SOPE  H16X19008   0.920   6.831   8.281 -0.3461  1.2683  0.4753
  168SOPE  H16Y19009   1.082   6.866   8.230  0.6936 -0.2521  0.6797
  168SOPE  C31719010   1.048   6.885   8.441  0.5423  0.3082 -0.3863
  168SOPE  H17X19011   1.150   6.875   8.484  0.6389 -0.2033 -0.7300
  168SOPE  H17Y19012   0.997   6.825   8.520 -1.4707  0.2573 -1.6955
  168SOPE  C31819013   1.013   7.035   8.457 -0.6613  0.4256  0.5119
  168SOPE  H18X19014   0.905   7.041   8.429 -0.9964 -2.6742  1.0060
  168SOPE  H18Y19015   1.065   7.088   8.374 -0.5050 -0.4177  0.0722
  168SOPE  H18Z19016   1.042   7.087   8.551  0.7161  1.2449 -0.3380
  169SOPE     N19017   3.138   2.274   6.070  0.7041  0.5633  0.2727
  169SOPE   HN119018   3.212   2.221   6.020  0.3835 -0.1917  0.5877
  169SOPE   HN219019   3.053   2.216   6.086 -0.9761  2.2664 -2.1513
  169SOPE   HN319020   3.119   2.360   6.014 -3.0855  0.1271  0.7699
  169SOPE   C1219021   3.185   2.316   6.202 -0.1299 -0.0412 -0.0898
  169SOPE  H12A19022   3.106   2.373   6.255  2.2380  1.8181  1.5113
  169SOPE  H12B19023   3.274   2.379   6.185 -0.1217  0.0602  0.3122
  169SOPE   C1119024   3.216   2.193   6.285  0.1380  0.3884  0.5099
  169SOPE  H11A19025   3.279   2.223   6.371 -0.4417  0.6731  0.8407
  169SOPE  H11B19026   3.277   2.125   6.222  2.6124  1.2588  1.9090
  169SOPE     P19027   3.088   1.986   6.397 -0.1092 -0.2044 -0.0312
  169SOPE   O1319028   3.171   1.893   6.317 -0.5894  0.0032 -0.0796
  169SOPE   O1419029   2.945   1.957   6.417  0.0492 -0.6143  0.1103
  169SOPE   O1219030   3.099   2.123   6.324 -0.5349 -0.6817  0.5897
  169SOPE   O1119031   3.150   2.015   6.544  0.7137 -0.3835  0.1581
  169SOPE    C119032   3.287   2.002   6.578  0.4351 -0.3824 -0.0301
  169SOPE    HA19033   3.333   2.103   6.585  0.8227 -0.5872  0.4502
  169SOPE    HB19034   3.346   1.947   6.502  1.9205  1.5127 -0.2744
  169SOPE    C219035   3.302   1.937   6.713  0.0486 -0.0274  0.1546
  169SOPE    HS19036   3.410   1.942   6.739  0.5143 -1.3637 -1.4782
  169SOPE   O2119037   3.262   1.797   6.711 -0.0482 -0.0928  0.0864
  169SOPE   C2119038   3.331   1.717   6.626 -0.0709  0.0791 -0.3129
  169SOPE   O2219039   3.446   1.739   6.583 -0.0381  0.0543  0.1275
  169SOPE   C2219040   3.244   1.600   6.578  0.2859 -0.1352 -0.8231
  169SOPE   H2R19041   3.209   1.617   6.475 -0.1662  0.2696 -0.6019
  169SOPE   H2S19042   3.151   1.588   6.638  0.0910  0.6859 -0.9577
  169SOPE    C319043   3.225   2.005   6.823  0.0347 -0.4793 -0.8257
  169SOPE    HX19044   3.123   2.024   6.783 -0.8055 -0.0365  1.4789
  169SOPE    HY19045   3.270   2.106   6.837  2.1966 -1.0044 -3.4746
  169SOPE   O3119046   3.217   1.930   6.943  0.0619 -0.3865 -0.1226
  169SOPE   C3119047   3.321   1.942   7.026 -0.7620 -0.4190 -0.0301
  169SOPE   O3219048   3.423   2.011   7.011 -0.1796  0.0400 -0.3920
  169SOPE   C3219049   3.289   1.846   7.143 -0.1092 -0.1622  1.2762
  169SOPE   H2X19050   3.335   1.747   7.126  1.2736  0.3999  1.6400
  169SOPE   H2Y19051   3.180   1.829   7.149 -0.5132  1.3996 -0.9803
  169SOPE   C2319052   3.321   1.467   6.581  0.2539 -1.3155 -0.7537
  169SOPE   H3R19053   3.422   1.476   6.535  0.3283 -0.7371 -0.4740
  169SOPE   H3S19054   3.266   1.393   6.519  0.3165 -1.6313 -0.4335
  169SOPE   C2419055   3.333   1.408   6.723  0.0437 -0.1517 -0.7314
  169SOPE   H4R19056   3.231   1.395   6.765 -0.2956 -1.5752 -1.9540
  169SOPE   H4S19057   3.379   1.306   6.721 -0.8551 -0.5555 -1.0077
  169SOPE   C2519058   3.436   1.486   6.813 -1.3162 -0.7236  0.5099
  169SOPE   H5R19059   3.537   1.491   6.768 -1.1841 -0.6598  0.8122
  169SOPE   H5S19060   3.409   1.592   6.832 -2.2539 -0.7585 -0.5225
  169SOPE   C2619061   3.454   1.409   6.946 -0.3062 -0.4330 -0.0703
  169SOPE   H6R19062   3.495   1.308   6.930  2.7731  0.5765  1.1655
  169SOPE   H6S19063   3.528   1.458   7.012 -0.0218 -1.4935  0.4087
  169SOPE   C2719064   3.333   1.421   7.041 -0.1603  0.0350  0.5402
  169SOPE   H7R19065   3.320   1.530   7.056 -2.1658 -0.3151  1.6181
  169SOPE   H7S19066   3.247   1.371   6.991 -1.1973 -0.5618  2.8489
  169SOPE   C2819067   3.347   1.346   7.179  0.2225 -0.2525  0.5346
  169SOPE   H8R19068   3.354   1.236   7.168  0.2678 -0.3666  1.6351
  169SOPE   H8S19069   3.441   1.380   7.227  1.1909 -3.5180  1.0865
  169SOPE   C2919070   3.226   1.375   7.261 -0.1974 -0.4021 -0.0788
  169SOPE   H9119071   3.149   1.407   7.189  0.5573  0.2106 -0.6167
  169SOPE  C21019072   3.217   1.381   7.394 -0.3347 -0.1111 -0.5456
  169SOPE  H10119073   3.116   1.395   7.437  0.3350 -0.2855  1.1468
  169SOPE  C21119074   3.332   1.361   7.490 -0.4810  0.1843 -0.1758
  169SOPE  H11R19075   3.426   1.372   7.432  0.2430 -2.1757  0.4945
  169SOPE  H11S19076   3.334   1.263   7.542  0.9640 -0.1805 -0.8751
  169SOPE  C21219077   3.324   1.461   7.607 -0.1957  0.0361  0.2048
  169SOPE  H12R19078   3.351   1.554   7.552  1.4951  0.0867  1.0602
  169SOPE  H12S19079   3.414   1.451   7.672 -0.1630  1.2109  0.3616
  169SOPE  C21319080   3.191   1.464   7.691  0.4575  0.5761 -0.4342
  169SOPE  H13R19081   3.181   1.362   7.735 -1.1251  1.0360  0.3105
  169SOPE  H13S19082   3.098   1.492   7.638  0.9019  0.5569 -1.2322
  169SOPE  C21419083   3.199   1.566   7.804 -0.3753  0.2996 -0.5773
  169SOPE  H14R19084   3.201   1.667   7.758  2.1293  1.3274  1.6517
  169SOPE  H14S19085   3.299   1.542   7.845 -1.0665  0.0619  1.0130
  169SOPE  C21519086   3.092   1.560   7.910  0.2353  0.0207 -0.5493
  169SOPE  H15R19087   3.108   1.472   7.976 -0.0119 -0.3220 -0.9441
  169SOPE  H15S19088   2.998   1.537   7.856  0.1951 -0.8495 -0.1130
  169SOPE  C21619089   3.089   1.681   7.999 -0.1792  0.3643  0.5860
  169SOPE  H16R19090   3.057   1.765   7.934  1.2642 -0.2707 -0.9927
  169SOPE  H16S19091   3.194   1.698   8.032  0.1953 -0.3196 -0.2282
  169SOPE  C21719092   3.003   1.670   8.128  0.0075 -0.3981 -0.1923
  169SOPE  H17R19093   2.904   1.652   8.081 -0.5813  5.5164 -1.7154
  169SOPE  H17S19094   2.995   1.771   8.175 -0.1941 -0.9925  1.0654
  169SOPE  C21819095   3.039   1.573   8.237  0.6628 -0.0385  0.3338
  169SOPE  H18R19096   3.033   1.466   8.208  0.5639 -0.2338  1.0477
  169SOPE  H18S19097   2.995   1.576   8.339 -0.7807  3.3969 -0.3387
  169SOPE  H18T19098   3.149   1.580   8.249  0.9628 -0.2609 -2.1580
  169SOPE   C3319099   3.335   1.889   7.284 -0.2285 -0.3987 -0.0330
  169SOPE   H3X19100   3.445   1.905   7.284 -0.5475  2.2459 -2.8952
  169SOPE   H3Y19101   3.310   1.812   7.361  2.9563  0.0902  1.6100
  169SOPE   C3419102   3.280   2.028   7.324 -0.0760 -0.8711  0.0703
  169SOPE   H4X19103   3.170   2.037   7.305  0.1693  0.1105 -0.9645
  169SOPE   H4Y19104   3.329   2.106   7.262  3.1525 -2.1831  0.8726
  169SOPE   C3519105   3.299   2.050   7.474  0.0399  0.2819 -0.1962
  169SOPE   H5X19106   3.273   2.154   7.503  2.3048  0.8372 -0.0167
  169SOPE   H5Y19107   3.406   2.033   7.501  1.1790  4.5960 -1.4796
  169SOPE   C3619108   3.213   1.954   7.554  0.0956  0.2751 -0.1376
  169SOPE   H6X19109   3.244   1.847   7.547 -1.1496 -0.3854  3.0774
  169SOPE   H6Y19110   3.109   1.977   7.524 -0.3267 -1.9083 -0.4633
  169SOPE   C3719111   3.219   1.984   7.709 -0.2429 -0.4644  0.6087
  169SOPE   H7X19112   3.132   1.941   7.762 -0.5600 -0.0920  0.4004
  169SOPE   H7Y19113   3.192   2.092   7.716  1.8380  0.1504 -0.4752
  169SOPE   C3819114   3.354   1.934   7.769  0.2026  0.1232 -0.1652
  169SOPE   H8X19115   3.333   1.831   7.803 -1.3197  0.2816 -0.5999
  169SOPE   H8Y19116   3.441   1.939   7.699  0.1686 -1.5781 -0.3372
  169SOPE   C3919117   3.394   2.012   7.896  0.0073 -0.2055  0.0804
  169SOPE   H9X19118   3.417   2.116   7.864 -1.1639 -0.3756 -1.3601
  169SOPE   H9Y19119   3.490   1.982   7.944 -0.4197 -0.0993  1.0251
  169SOPE  C31019120   3.283   2.004   8.004  0.4757 -0.5601  0.0877
  169SOPE  H10X19121   3.258   1.899   8.027 -0.5772 -0.6533 -1.4538
  169SOPE  H10Y19122   3.186   2.045   7.970  0.7589 -0.2221 -0.3199
  169SOPE  C31119123   3.315   2.081   8.138  0.2411 -0.3747  0.1844
  169SOPE  H11X19124   3.270   2.182   8.146  0.3100 -0.2415 -1.0250
  169SOPE  H11Y19125   3.424   2.102   8.143  0.5826 -2.2359  0.8021
  169SOPE  C31219126   3.248   2.013   8.266  0.8456 -0.0299 -0.6877
  169SOPE  H12X19127   3.284   1.908   8.272 -1.9353 -0.9625  0.2211
  169SOPE  H12Y19128   3.138   2.019   8.256  0.8950  0.8943 -0.6662
  169SOPE  C31319129   3.302   2.082   8.393 -0.1938 -0.2750 -0.0449
  169SOPE  H13X19130   3.250   2.181   8.397  0.2883  0.0725 -1.8054
  169SOPE  H13Y19131   3.410   2.101   8.375 -0.4378  0.3805 -0.8656
  169SOPE  C31419132   3.278   2.016   8.529 -0.5215 -0.9857 -0.0429
  169SOPE  H14X19133   3.330   1.917   8.528 -0.2806 -0.8552 -1.7746
  169SOPE  H14Y19134   3.170   1.996   8.543 -0.8521  1.0344  0.4955
  169SOPE  C31519135   3.326   2.100   8.653 -0.9106 -0.1518  0.5568
  169SOPE  H15X19136   3.308   2.209   8.640  1.8475  0.0954 -1.9865
  169SOPE  H15Y19137   3.437   2.095   8.666 -1.1986 -1.9817  2.5881
  169SOPE  C31619138   3.275   2.043   8.781  0.6900  0.1686  0.5848
  169SOPE  H16X19139   3.314   1.939   8.777 -0.0230 -0.0570 -0.6652
  169SOPE  H16Y19140   3.166   2.032   8.766  0.9397 -0.7081 -0.7447
  169SOPE  C31719141   3.323   2.104   8.915  0.0143 -0.0907  0.3030
  169SOPE  H17X19142   3.434   2.097   8.913 -0.0356 -0.8980  0.1192
  169SOPE  H17Y19143   3.278   2.052   9.002  0.6842 -1.0363  0.0947
  169SOPE  C31819144   3.281   2.257   8.923 -0.2382  0.0787 -0.1189
  169SOPE  H18X19145   3.322   2.303   9.015 -0.7700 -0.6729  0.4975
  169SOPE  H18Y19146   3.173   2.277   8.911 -0.4036 -0.4166  0.5522
  169SOPE  H18Z19147   3.334   2.324   8.852  1.1650  0.6440  1.4234
  170SOPE     N19148   4.089   0.463   6.134  0.0784  0.1962  0.4520
  170SOPE   HN119149   4.088   0.565   6.154 -0.4616  0.7640 -2.2479
  170SOPE   HN219150   4.117   0.449   6.035 -1.0193  1.9482 -0.1219
  170SOPE   HN319151   3.991   0.428   6.126 -0.4936  1.4616  1.7122
  170SOPE   C1219152   4.176   0.395   6.244 -0.1386 -0.2853 -0.0674
  170SOPE  H12A19153   4.277   0.440   6.248  1.4853 -3.9195  1.4279
  170SOPE  H12B19154   4.176   0.288   6.216  0.1738 -0.9462  2.3390
  170SOPE   C1119155   4.127   0.408   6.388  0.1424  0.3232  0.5309
  170SOPE  H11A19156   4.131   0.510   6.430  0.2517  0.2979  0.5813
  170SOPE  H11B19157   4.193   0.337   6.441  0.1518  0.5058  0.7605
  170SOPE     P19158   3.964   0.217   6.465  0.6598  0.0418 -0.0297
  170SOPE   O1319159   4.044   0.117   6.382  0.2097 -0.1013 -0.3273
  170SOPE   O1419160   3.820   0.188   6.465  0.3039  0.0545 -0.4949
  170SOPE   O1219161   3.988   0.361   6.405 -0.1480 -0.0283 -0.4694
  170SOPE   O1119162   4.025   0.219   6.613 -0.1305  0.2159 -0.0642
  170SOPE    C119163   4.003   0.339   6.694 -0.0803  0.0295 -0.0596
  170SOPE    HA19164   3.937   0.421   6.659  1.2173  0.3454 -1.8255
  170SOPE    HB19165   4.100   0.385   6.722  1.8417 -0.9251 -4.7396
  170SOPE    C219166   3.915   0.289   6.821 -0.0655  0.6456 -0.2415
  170SOPE    HS19167   3.909   0.365   6.901  0.4789  1.4038 -0.9112
  170SOPE   O2119168   3.966   0.160   6.871  0.3468 -0.0351  0.0929
  170SOPE   C2119169   4.070   0.184   6.952 -0.7348 -0.0951  0.1925
  170SOPE   O2219170   4.114   0.300   6.979  0.2191 -0.1096  0.4253
  170SOPE   C2219171   4.127   0.058   7.006  0.5894 -0.0134  0.3281
  170SOPE   H2R19172   4.224   0.038   6.955  0.2100 -2.3291  0.4394
  170SOPE   H2S19173   4.073  -0.034   6.973  1.6374 -0.1514 -1.0480
  170SOPE    C319174   3.771   0.260   6.783 -0.1423  0.6133  0.1929
  170SOPE    HX19175   3.715   0.215   6.868  0.7481  0.0261  0.4766
  170SOPE    HY19176   3.772   0.177   6.709  4.1665 -1.1654  2.0231
  170SOPE   O3119177   3.698   0.383   6.750  0.1052 -0.5476  0.2027
  170SOPE   C3119178   3.578   0.360   6.708  0.2265 -0.8998  0.1841
  170SOPE   O3219179   3.529   0.252   6.679  0.1095  0.1679 -0.2533
  170SOPE   C3219180   3.497   0.487   6.715  0.6081  0.4568  0.2692
  170SOPE   H2X19181   3.466   0.505   6.610  1.2020 -1.6969 -0.3036
  170SOPE   H2Y19182   3.566   0.568   6.748  0.2920  0.0251  2.0650
  170SOPE   C2319183   4.152   0.061   7.160 -0.1488  0.0805 -0.3481
  170SOPE   H3R19184   4.054   0.045   7.209 -0.0470  2.4647  0.7279
  170SOPE   H3S19185   4.190   0.155   7.205 -0.2171 -1.0516  2.1417
  170SOPE   C2419186   4.246  -0.047   7.212 -0.2334  0.1569  0.7392
  170SOPE   H4R19187   4.352  -0.029   7.182 -0.4297  2.6913  1.4495
  170SOPE   H4S19188   4.235  -0.036   7.322  1.2980  3.5497  0.6322
  170SOPE   C2519189   4.201  -0.187   7.176 -0.7264 -0.1167  0.1564
  170SOPE   H5R19190   4.173  -0.188   7.068  0.0197 -1.7115 -0.0407
  170SOPE   H5S19191   4.292  -0.251   7.183  0.1030  0.9302 -0.7055
  170SOPE   C2619192   4.090  -0.247   7.265  0.8525  0.1772 -0.1518
  170SOPE   H6R19193   4.000  -0.183   7.256  1.4875  1.2949  1.1733
  170SOPE   H6S19194   4.063  -0.349   7.232  1.2717 -0.0045  0.0676
  170SOPE   C2719195   4.130  -0.255   7.412 -0.4367 -0.8071  0.5392
  170SOPE   H7R19196   4.208  -0.334   7.422  1.9677  1.3491 -0.4668
  170SOPE   H7S19197   4.192  -0.168   7.443  1.8851 -2.0465 -0.4681
  170SOPE   C2819198   4.011  -0.276   7.511  0.0471  0.3380  0.8979
  170SOPE   H8R19199   3.935  -0.195   7.508  1.9448  2.2027  1.4409
  170SOPE   H8S19200   3.959  -0.369   7.481  0.6578  0.4156 -0.4297
  170SOPE   C2919201   4.057  -0.287   7.656 -0.0397 -0.8610  0.2458
  170SOPE   H9119202   4.138  -0.214   7.676 -0.2998  0.1376 -2.2004
  170SOPE  C21019203   4.002  -0.363   7.759  1.1552  0.7771 -0.5804
  170SOPE  H10119204   4.048  -0.361   7.859  0.6061  0.9044 -0.3329
  170SOPE  C21119205   3.889  -0.453   7.743  0.2642  0.6320 -0.1294
  170SOPE  H11R19206   3.919  -0.560   7.751  0.6466  0.4839 -2.8848
  170SOPE  H11S19207   3.843  -0.435   7.644 -0.1762 -2.7297 -0.5877
  170SOPE  C21219208   3.775  -0.427   7.845 -0.0137  0.2767  0.6908
  170SOPE  H12R19209   3.691  -0.493   7.815  0.5015 -0.1044  0.0903
  170SOPE  H12S19210   3.739  -0.322   7.848  2.1044  0.9976  1.6704
  170SOPE  C21319211   3.822  -0.478   7.981  0.1945 -0.4705  0.3220
  170SOPE  H13R19212   3.882  -0.401   8.035  0.6531  1.1164 -2.3735
  170SOPE  H13S19213   3.886  -0.569   7.970 -0.1692 -0.6698 -0.1681
  170SOPE  C21419214   3.704  -0.526   8.071  0.5006  0.3456 -0.0656
  170SOPE  H14R19215   3.609  -0.474   8.049 -1.4512 -2.3192  1.8542
  170SOPE  H14S19216   3.731  -0.484   8.171 -0.6174 -0.3938  0.5506
  170SOPE  C21519217   3.667  -0.676   8.074 -0.1898 -0.1643 -0.0083
  170SOPE  H15R19218   3.765  -0.727   8.065 -1.3516 -2.5547  0.4660
  170SOPE  H15S19219   3.610  -0.707   7.984 -2.4247 -1.3468  1.7600
  170SOPE  C21619220   3.587  -0.705   8.200 -0.2961 -0.4160 -0.0785
  170SOPE  H16R19221   3.646  -0.681   8.291  0.1585  2.4657 -1.0793
  170SOPE  H16S19222   3.574  -0.815   8.201 -2.1305 -0.2079 -0.4252
  170SOPE  C21719223   3.446  -0.647   8.200 -0.2586  0.2004 -0.2319
  170SOPE  H17R19224   3.455  -0.538   8.219 -0.5537  0.1211  0.3562
  170SOPE  H17S19225   3.414  -0.689   8.297 -0.7320  2.3928  0.5858
  170SOPE  C21819226   3.358  -0.676   8.080 -0.2349 -0.0751 -0.5001
  170SOPE  H18R19227   3.398  -0.769   8.035  1.0081  0.2361 -0.0562
  170SOPE  H18S19228   3.371  -0.594   8.006 -0.5376  0.7085  0.3006
  170SOPE  H18T19229   3.250  -0.694   8.094 -0.5881  1.8623 -0.5577
  170SOPE   C3319230   3.374   0.474   6.807 -0.0367  0.1662  0.0642
  170SOPE   H3X19231   3.305   0.395   6.771 -0.7465  0.2081  1.3045
  170SOPE   H3Y19232   3.304   0.560   6.805 -2.8858 -2.0745  0.3693
  170SOPE   C3419233   3.422   0.444   6.956 -0.1452 -0.6054 -0.1037
  170SOPE   H4X19234   3.498   0.520   6.984  1.5977 -1.6683 -1.8452
  170SOPE   H4Y19235   3.481   0.352   6.977  1.3180  0.1877 -0.7388
  170SOPE   C3519236   3.306   0.452   7.057 -0.2257  0.0650  0.3063
  170SOPE   H5X19237   3.223   0.387   7.023  0.3726 -0.7326  0.3338
  170SOPE   H5Y19238   3.265   0.555   7.061  1.5426  0.7334  1.6944
  170SOPE   C3619239   3.363   0.428   7.193  0.7918  0.5911 -0.0291
  170SOPE   H6X19240   3.415   0.520   7.229  3.3393 -0.0194 -1.9661
  170SOPE   H6Y19241   3.439   0.346   7.193 -0.9158 -1.0157 -0.3769
  170SOPE   C3719242   3.260   0.378   7.290  0.5963 -1.1807  0.4684
  170SOPE   H7X19243   3.221   0.280   7.257 -3.4059  0.0111  1.3532
  170SOPE   H7Y19244   3.169   0.442   7.289  1.5271  0.1731  0.2611
  170SOPE   C3819245   3.320   0.361   7.435  0.4187 -0.2392  0.0706
  170SOPE   H8X19246   3.371   0.451   7.476  0.5366 -1.8827  3.7654
  170SOPE   H8Y19247   3.393   0.280   7.455  0.6938  0.1763  0.7704
  170SOPE   C3919248   3.197   0.335   7.524  0.6692  0.4947 -0.6712
  170SOPE   H9X19249   3.155   0.234   7.504  0.3080  0.7779 -1.3639
  170SOPE   H9Y19250   3.114   0.403   7.494 -0.2527 -0.6102 -0.6699
  170SOPE  C31019251   3.235   0.326   7.674  0.1002  0.2521  0.5361
  170SOPE  H10X19252   3.146   0.289   7.729 -0.3967 -0.3359 -0.6457
  170SOPE  H10Y19253   3.264   0.428   7.708  0.0641 -0.2990  2.2498
  170SOPE  C31119254   3.350   0.223   7.705  0.2649  0.4246 -0.3377
  170SOPE  H11X19255   3.448   0.270   7.681  0.5672 -1.4888 -3.0530
  170SOPE  H11Y19256   3.347   0.127   7.651 -0.2726  0.8126 -1.0099
  170SOPE  C31219257   3.351   0.185   7.857 -0.8447 -0.6137  0.0580
  170SOPE  H12X19258   3.432   0.109   7.862  0.8574  1.1541 -0.1002
  170SOPE  H12Y19259   3.256   0.138   7.889 -0.6359  0.7815  2.8735
  170SOPE  C31319260   3.378   0.306   7.946  0.5860  0.2250  0.3936
  170SOPE  H13X19261   3.308   0.387   7.914 -2.1355 -1.5983  1.5463
  170SOPE  H13Y19262   3.484   0.336   7.931  0.8142 -1.3743 -1.2930
  170SOPE  C31419263   3.326   0.276   8.092 -0.4731  0.5137 -0.4294
  170SOPE  H14X19264   3.403   0.212   8.141  1.0304  2.6844  0.1139
  170SOPE  H14Y19265   3.228   0.226   8.086 -1.6017  2.4859  0.9302
  170SOPE  C31519266   3.308   0.403   8.180  0.0151  0.1934 -0.3564
  170SOPE  H15X19267   3.230   0.467   8.133  0.4657 -0.3413 -1.8578
  170SOPE  H15Y19268   3.404   0.457   8.170  0.3166  0.0485  1.5405
  170SOPE  C31619269   3.272   0.375   8.328  0.5372  0.3245  0.7649
  170SOPE  H16X19270   3.347   0.308   8.374 -0.5501 -1.6039 -0.1689
  170SOPE  H16Y19271   3.187   0.303   8.322  2.9986 -2.6455  0.2454
  170SOPE  C31719272   3.244   0.500   8.412  0.2099  0.8171  0.0854
  170SOPE  H17X19273   3.169   0.570   8.369 -0.0576  0.6161  0.2264
  170SOPE  H17Y19274   3.339   0.556   8.426  0.2754  0.7941 -0.2576
  170SOPE  C31819275   3.192   0.464   8.552  0.1867 -0.2253 -0.7225
  170SOPE  H18X19276   3.112   0.387   8.551  0.6781 -0.7773  0.6840
  170SOPE  H18Y19277   3.162   0.557   8.605  1.9071 -0.5600  0.8948
  170SOPE  H18Z19278   3.274   0.418   8.611 -0.7137 -0.1268  0.6511
  171SOPE     N19279   3.784   3.484   6.335 -1.0308 -0.6841 -0.2776
  171SOPE   HN119280   3.730   3.573   6.346 -0.8002 -0.5231 -0.4451
  171SOPE   HN219281   3.709   3.413   6.323 -1.5829 -0.4890  1.8057
  171SOPE   HN319282   3.847   3.462   6.415 -0.7031  0.5436 -0.1784
  171SOPE   C1219283   3.882   3.529   6.230 -0.1633 -0.1192  0.0877
  171SOPE  H12A19284   3.834   3.535   6.130  0.4760 -1.0847 -0.2841
  171SOPE  H12B19285   3.955   3.445   6.226  0.6493  0.6096 -0.4807
  171SOPE   C1119286   3.950   3.663   6.260  0.3899  0.7823  0.3936
  171SOPE  H11A19287   3.871   3.741   6.260  0.8897  1.3057 -1.1400
  171SOPE  H11B19288   4.017   3.686   6.174  2.4808 -4.3222  0.5416
  171SOPE     P19289   4.147   3.687   6.426 -0.2370  0.0488  0.5671
  171SOPE   O1319290   4.198   3.814   6.365  0.0206 -0.4496  1.1004
  171SOPE   O1419291   4.222   3.568   6.384 -0.2165 -0.5380  0.0108
  171SOPE   O1219292   3.997   3.669   6.393  0.6043  0.2888  0.0100
  171SOPE   O1119293   4.134   3.698   6.575  0.3189 -0.6435  0.2658
  171SOPE    C119294   4.011   3.706   6.642 -0.3117  0.0564  0.6777
  171SOPE    HA19295   3.937   3.633   6.604  0.7602  0.3880 -2.1405
  171SOPE    HB19296   3.972   3.808   6.620  0.5037 -0.0784 -1.5290
  171SOPE    C219297   4.030   3.710   6.798  0.8496  0.3061 -0.1770
  171SOPE    HS19298   3.938   3.710   6.860  0.1981  2.7002 -1.0771
  171SOPE   O2119299   4.103   3.829   6.833  0.1847 -0.4734 -0.3606
  171SOPE   C2119300   4.040   3.945   6.831 -0.2303 -0.0250  0.2565
  171SOPE   O2219301   3.924   3.963   6.794  0.1616  0.2454  0.0434
  171SOPE   C2219302   4.135   4.042   6.881 -0.4989 -0.2129 -0.2732
  171SOPE   H2R19303   4.207   4.069   6.800 -0.5362 -2.0273 -0.9488
  171SOPE   H2S19304   4.194   3.988   6.958  0.1115 -1.2148 -1.4033
  171SOPE    C319305   4.103   3.583   6.840  0.2559 -0.5191 -0.2619
  171SOPE    HX19306   4.207   3.578   6.800 -0.1499 -1.1832 -1.2372
  171SOPE    HY19307   4.052   3.497   6.792 -2.0294  0.5493  0.1801
  171SOPE   O3119308   4.093   3.577   6.983 -0.2234 -0.5293  0.6057
  171SOPE   C3119309   4.193   3.629   7.050  0.0744 -1.0914  0.8478
  171SOPE   O3219310   4.292   3.688   7.007 -0.0248 -0.0651 -0.0480
  171SOPE   C3219311   4.175   3.602   7.197 -0.7310 -0.1612  0.0035
  171SOPE   H2X19312   4.186   3.494   7.221  0.5730  0.1079  0.6432
  171SOPE   H2Y19313   4.076   3.644   7.226 -0.3084 -0.4285  1.9119
  171SOPE   C2319314   4.070   4.165   6.952 -0.1904 -0.9536  0.2395
  171SOPE   H3R19315   3.967   4.182   6.914  0.3293  2.1507  0.1156
  171SOPE   H3S19316   4.117   4.259   6.916 -1.1858 -0.2465  0.7602
  171SOPE   C2419317   4.088   4.171   7.106 -0.1033  0.5527  0.0750
  171SOPE   H4R19318   4.198   4.160   7.117 -0.0114  1.3012 -0.0427
  171SOPE   H4S19319   4.056   4.271   7.143 -0.3766  0.2119  0.7626
  171SOPE   C2519320   4.018   4.057   7.184  0.5046  0.5898 -0.7147
  171SOPE   H5R19321   3.909   4.076   7.192 -0.4187 -3.8986 -1.0711
  171SOPE   H5S19322   4.027   3.965   7.122  1.9377 -0.4249  0.9576
  171SOPE   C2619323   4.078   4.031   7.320 -0.3154  1.0408 -0.5275
  171SOPE   H6R19324   4.182   3.995   7.310 -0.3253  0.8450  0.0694
  171SOPE   H6S19325   4.071   4.117   7.390  0.4947  0.5010  0.2312
  171SOPE   C2719326   3.999   3.917   7.396  0.2846 -0.7219 -0.2815
  171SOPE   H7R19327   3.892   3.941   7.415  0.5117  0.8490 -0.9165
  171SOPE   H7S19328   4.002   3.835   7.321 -0.1960  0.4624 -1.6140
  171SOPE   C2819329   4.072   3.879   7.529  0.2664 -0.2412 -0.2062
  171SOPE   H8R19330   4.044   3.784   7.581  0.3249  0.3164  0.8546
  171SOPE   H8S19331   4.171   3.845   7.492 -0.5435 -1.8300 -0.9815
  171SOPE   C2919332   4.068   3.997   7.626  0.7089  0.0709  0.1103
  171SOPE   H9119333   3.975   4.054   7.617  1.2311  0.4968 -3.2981
  171SOPE  C21019334   4.161   4.025   7.722 -0.1097  0.1283 -0.3983
  171SOPE  H10119335   4.140   4.106   7.794 -0.4097 -0.5281  0.2534
  171SOPE  C21119336   4.294   3.952   7.739  0.7415  0.0397  0.0310
  171SOPE  H11R19337   4.381   4.020   7.754  0.2841  0.0100  3.2187
  171SOPE  H11S19338   4.309   3.883   7.654  0.6912 -0.7435  0.6492
  171SOPE  C21219339   4.294   3.872   7.870  0.3052 -0.0012  0.5372
  171SOPE  H12R19340   4.276   3.929   7.964  0.8036 -0.9960  1.2597
  171SOPE  H12S19341   4.393   3.824   7.880 -0.4058 -1.5365  0.4814
  171SOPE  C21319342   4.184   3.764   7.873  0.3029  0.0100  0.3744
  171SOPE  H13R19343   4.190   3.706   7.779 -1.2019 -2.3199  1.6625
  171SOPE  H13S19344   4.083   3.811   7.863  1.2882  1.9685 -0.6227
  171SOPE  C21419345   4.185   3.670   7.998  1.2712 -0.6519  0.1946
  171SOPE  H14R19346   4.287   3.652   8.037  0.8291  0.1216  1.7110
  171SOPE  H14S19347   4.131   3.574   7.985 -1.8517  1.0644  0.1100
  171SOPE  C21519348   4.108   3.744   8.123 -0.2447  0.3450  0.5550
  171SOPE  H15R19349   3.999   3.753   8.109  0.1751  1.8786 -2.2161
  171SOPE  H15S19350   4.144   3.848   8.137  1.6822 -0.3644  1.1743
  171SOPE  C21619351   4.137   3.675   8.254 -0.7431  0.4824  0.2036
  171SOPE  H16R19352   4.245   3.651   8.259 -0.4523  2.2129  3.1298
  171SOPE  H16S19353   4.087   3.576   8.262  1.8167 -0.6260  4.0415
  171SOPE  C21719354   4.105   3.750   8.388  0.0614 -0.3076 -0.4602
  171SOPE  H17R19355   4.164   3.843   8.399  1.3217 -0.9728 -1.4583
  171SOPE  H17S19356   4.139   3.679   8.467  1.2792  1.9913  1.1198
  171SOPE  C21819357   3.956   3.789   8.402 -0.6484 -0.0232  0.5688
  171SOPE  H18R19358   3.939   3.891   8.361  0.9698 -0.5068 -1.3844
  171SOPE  H18S19359   3.927   3.783   8.509 -0.5228 -1.6677  0.5221
  171SOPE  H18T19360   3.899   3.714   8.343 -1.3339 -0.2164  1.4700
  171SOPE   C3319361   4.284   3.655   7.289  0.2314  0.2234 -0.5073
  171SOPE   H3X19362   4.289   3.766   7.296  0.2545  0.2827 -1.3748
  171SOPE   H3Y19363   4.387   3.631   7.258 -0.0323 -0.0769 -1.1575
  171SOPE   C3419364   4.259   3.596   7.432  0.1668 -0.2664  0.5909
  171SOPE   H4X19365   4.149   3.601   7.446  0.1731  1.4315  0.0562
  171SOPE   H4Y19366   4.325   3.654   7.500  1.6361  0.0570 -1.0888
  171SOPE   C3519367   4.319   3.457   7.442  0.3572  0.0847  0.0492
  171SOPE   H5X19368   4.429   3.464   7.453  0.1697  2.1558  0.6915
  171SOPE   H5Y19369   4.311   3.395   7.350  2.3696 -2.9183  1.8168
  171SOPE   C3619370   4.271   3.361   7.554 -0.3382  0.4901  0.4604
  171SOPE   H6X19371   4.311   3.259   7.534 -0.1081  0.6903 -0.0972
  171SOPE   H6Y19372   4.162   3.340   7.547 -0.0110 -1.7988  1.6383
  171SOPE   C3719373   4.312   3.401   7.696 -0.0986  0.4147  0.1610
  171SOPE   H7X19374   4.255   3.495   7.714 -0.3229  0.6626 -1.7007
  171SOPE   H7Y19375   4.423   3.410   7.701  0.1014 -1.2053 -1.1257
  171SOPE   C3819376   4.276   3.299   7.795 -0.0301 -0.0501 -0.1938
  171SOPE   H8X19377   4.183   3.241   7.772 -0.2750  1.5504 -3.4274
  171SOPE   H8Y19378   4.273   3.349   7.894  1.7290 -0.7054  0.2131
  171SOPE   C3919379   4.387   3.193   7.802 -0.2764  0.0469 -0.0808
  171SOPE   H9X19380   4.483   3.238   7.835  0.4649 -0.9716 -0.7994
  171SOPE   H9Y19381   4.400   3.125   7.715 -1.0534  0.5230 -0.5704
  171SOPE  C31019382   4.366   3.112   7.932  0.7402  1.0999 -1.0362
  171SOPE  H10X19383   4.292   3.034   7.904  0.2036  1.1091  0.3364
  171SOPE  H10Y19384   4.340   3.191   8.006  1.5328 -0.2780  0.7657
  171SOPE  C31119385   4.495   3.045   7.979 -0.0843 -0.7815 -0.4986
  171SOPE  H11X19386   4.559   3.122   8.027  0.3984 -1.5605  0.1207
  171SOPE  H11Y19387   4.553   2.986   7.904  0.7325  0.1846 -0.6375
  171SOPE  C31219388   4.459   2.944   8.087 -0.5462 -0.6100 -0.3318
  171SOPE  H12X19389   4.368   2.891   8.054  0.1501 -1.8546 -0.2619
  171SOPE  H12Y19390   4.428   2.995   8.181  1.6502  2.4833 -1.2033
  171SOPE  C31319391   4.571   2.841   8.103  0.3797 -0.4954  0.3546
  171SOPE  H13X19392   4.662   2.887   8.146 -0.3782  0.7405  0.6742
  171SOPE  H13Y19393   4.595   2.802   8.002 -1.1813  0.3972 -0.3860
  171SOPE  C31419394   4.531   2.732   8.196  0.2183  0.3084  0.5898
  171SOPE  H14X19395   4.439   2.693   8.147  1.2193 -2.6671  1.0326
  171SOPE  H14Y19396   4.498   2.755   8.300 -1.9694 -2.4490  0.5513
  171SOPE  C31519397   4.630   2.622   8.201  0.4354  0.1643 -0.0325
  171SOPE  H15X19398   4.726   2.666   8.234  0.4578 -1.8024  2.6835
  171SOPE  H15Y19399   4.654   2.586   8.099 -2.5765 -3.1260  0.2863
  171SOPE  C31619400   4.588   2.494   8.291 -0.1541  0.1483 -0.2916
  171SOPE  H16X19401   4.490   2.453   8.259 -0.1888  1.3874 -1.8514
  171SOPE  H16Y19402   4.575   2.537   8.393 -2.9297 -0.5989 -0.2769
  171SOPE  C31719403   4.691   2.389   8.277  0.0173 -0.2695 -0.8342
  171SOPE  H17X19404   4.786   2.441   8.303  0.2266 -1.4332  0.8599
  171SOPE  H17Y19405   4.718   2.358   8.174 -1.6137  1.3061 -1.7636
  171SOPE  C31819406   4.659   2.272   8.361  0.1499 -0.2562 -0.0471
  171SOPE  H18X19407   4.755   2.220   8.382 -1.0390 -2.7856 -0.5958
  171SOPE  H18Y19408   4.584   2.201   8.320  0.6727  0.0736 -1.6038
  171SOPE  H18Z19409   4.612   2.309   8.455 -0.7488 -1.0801 -0.1625
  172SOPE     N19410   5.632   5.265   6.155 -0.2387  0.1346 -0.2404
  172SOPE   HN119411   5.719   5.209   6.155 -0.2441  0.1276 -0.1813
  172SOPE   HN219412   5.555   5.217   6.103 -0.6516 -1.4548  1.7707
  172SOPE   HN319413   5.648   5.359   6.113  2.1297 -0.2793 -0.3129
  172SOPE   C1219414   5.584   5.286   6.305 -0.2628 -0.2355  0.1309
  172SOPE  H12A19415   5.476   5.311   6.301 -0.5863 -1.0023  3.0047
  172SOPE  H12B19416   5.641   5.373   6.344  0.0836  0.1662 -1.2458
  172SOPE   C1119417   5.605   5.167   6.392  0.1061  0.1252  0.1403
  172SOPE  H11A19418   5.711   5.137   6.398  0.8423  2.6440  0.3800
  172SOPE  H11B19419   5.548   5.085   6.343  1.6143  0.5652 -2.4200
  172SOPE     P19420   5.417   5.168   6.564 -0.0367 -0.4852  0.1079
  172SOPE   O1319421   5.363   5.041   6.508  0.6867  0.0388  0.5049
  172SOPE   O1419422   5.337   5.288   6.520 -0.0520 -0.3696  0.3031
  172SOPE   O1219423   5.569   5.193   6.526 -0.2311 -0.1813  0.1522
  172SOPE   O1119424   5.417   5.153   6.720  0.4915 -0.4239  0.4267
  172SOPE    C119425   5.471   5.265   6.793 -0.0786 -0.0068 -0.0621
  172SOPE    HA19426   5.507   5.348   6.728  2.5226 -1.8773 -1.0881
  172SOPE    HB19427   5.570   5.237   6.835 -0.9542 -1.8320  0.8471
  172SOPE    C219428   5.376   5.312   6.905  0.1319 -0.6994 -0.5614
  172SOPE    HS19429   5.396   5.419   6.927  1.2504 -0.7231 -1.4547
  172SOPE   O2119430   5.393   5.241   7.029  0.0530  0.0214  0.2536
  172SOPE   C2119431   5.354   5.111   7.034 -0.0410  0.2506 -0.0795
  172SOPE   O2219432   5.306   5.048   6.943  0.1296 -0.1410 -0.6749
  172SOPE   C2219433   5.384   5.054   7.171  0.7393 -0.2954 -0.7433
  172SOPE   H2R19434   5.494   5.046   7.179  0.8373  1.6564  0.0317
  172SOPE   H2S19435   5.342   4.951   7.172  0.4536 -0.2083 -2.9137
  172SOPE    C319436   5.226   5.310   6.852 -0.2883  0.0816  0.2182
  172SOPE    HX19437   5.206   5.226   6.782  1.8946 -0.7170  0.5218
  172SOPE    HY19438   5.219   5.403   6.791  0.0256  0.5202  0.8419
  172SOPE   O3119439   5.134   5.312   6.957 -0.0444  0.1165 -0.4339
  172SOPE   C3119440   5.008   5.322   6.911  0.2621  0.1602 -0.7530
  172SOPE   O3219441   4.972   5.327   6.794  0.2343  0.0105  0.1952
  172SOPE   C3219442   4.904   5.330   7.029  0.5885  0.7453 -0.9687
  172SOPE   H2X19443   4.960   5.329   7.125 -0.6443 -1.6906 -0.2501
  172SOPE   H2Y19444   4.847   5.235   7.029  0.5040  0.7690  1.3328
  172SOPE   C2319445   5.340   5.153   7.290 -0.9978 -0.3056 -0.7726
  172SOPE   H3R19446   5.241   5.201   7.280 -1.6319 -1.3945  0.1504
  172SOPE   H3S19447   5.413   5.236   7.278  0.5593 -1.5472 -0.1999
  172SOPE   C2419448   5.360   5.081   7.433 -0.3319  0.4441 -0.2351
  172SOPE   H4R19449   5.336   5.160   7.508 -2.1975  0.8152 -1.1770
  172SOPE   H4S19450   5.284   5.000   7.437  1.2336 -1.0857 -0.9829
  172SOPE   C2519451   5.493   5.011   7.470  0.3601  0.4233 -0.3593
  172SOPE   H5R19452   5.511   4.915   7.417  2.3046  0.0719  0.8811
  172SOPE   H5S19453   5.576   5.082   7.447 -0.4653  1.5801  0.1723
  172SOPE   C2619454   5.517   4.979   7.618  0.6679  0.3697  0.2378
  172SOPE   H6R19455   5.445   4.896   7.633 -0.2525  0.7530 -1.8219
  172SOPE   H6S19456   5.621   4.940   7.610  0.1121 -1.0593 -0.1142
  172SOPE   C2719457   5.504   5.095   7.713 -0.4671  0.1313  0.1518
  172SOPE   H7R19458   5.573   5.176   7.684 -0.7283  0.5039  0.5569
  172SOPE   H7S19459   5.407   5.148   7.702 -0.9429 -1.3810 -3.5028
  172SOPE   C2819460   5.525   5.062   7.859  0.8630  0.9550  0.2681
  172SOPE   H8R19461   5.629   5.024   7.855 -0.0259 -1.4213 -0.9410
  172SOPE   H8S19462   5.515   5.148   7.929  2.0658  1.4665 -0.1815
  172SOPE   C2919463   5.444   4.942   7.911  0.1913 -0.3455  0.1584
  172SOPE   H9119464   5.485   4.843   7.885  1.6568  0.6993 -1.6199
  172SOPE  C21019465   5.326   4.945   7.985 -0.1379 -0.5436 -0.4355
  172SOPE  H10119466   5.282   4.853   8.024  2.3798 -1.5509  0.1497
  172SOPE  C21119467   5.256   5.067   8.032  0.3980 -0.7011 -1.3749
  172SOPE  H11R19468   5.298   5.169   8.019  2.1018 -1.0135  1.2899
  172SOPE  H11S19469   5.252   5.058   8.143  0.2104 -1.5893 -1.4450
  172SOPE  C21219470   5.114   5.056   7.968 -1.0080  0.0521  0.3819
  172SOPE  H12R19471   5.055   5.134   8.021 -0.3390  1.0232 -0.2792
  172SOPE  H12S19472   5.069   4.959   7.998  0.2127 -0.7436 -0.3204
  172SOPE  C21319473   5.105   5.084   7.818  0.5585 -0.9777  0.2307
  172SOPE  H13R19474   5.153   5.011   7.750 -0.3562 -1.2803 -0.0941
  172SOPE  H13S19475   5.140   5.187   7.796  0.8785 -1.0340  0.4761
  172SOPE  C21419476   4.952   5.076   7.779  0.9522 -0.2967  0.3269
  172SOPE  H14R19477   4.910   5.145   7.856 -0.4603 -0.0267 -0.6690
  172SOPE  H14S19478   4.902   4.977   7.786 -1.3489  0.8038 -0.0417
  172SOPE  C21519479   4.921   5.123   7.636 -0.0670 -0.6670 -0.0381
  172SOPE  H15R19480   4.814   5.104   7.616 -1.1336  3.8599  0.7992
  172SOPE  H15S19481   4.969   5.069   7.551 -0.7102  0.6540 -1.2688
  172SOPE  C21619482   4.947   5.269   7.587 -0.1765  0.1777 -0.5892
  172SOPE  H16R19483   5.055   5.273   7.613  0.2254  0.6855 -2.2473
  172SOPE  H16S19484   4.891   5.333   7.658 -0.9156 -0.1737 -0.8531
  172SOPE  C21719485   4.911   5.296   7.442 -0.5833 -0.1094 -0.9128
  172SOPE  H17R19486   4.989   5.258   7.372 -0.8401  0.1910 -1.3648
  172SOPE  H17S19487   4.917   5.407   7.453  2.3375 -0.3672  0.7170
  172SOPE  C21819488   4.765   5.257   7.398  0.3740  0.0457  0.4965
  172SOPE  H18R19489   4.768   5.146   7.391 -1.0031  0.0477 -0.2150
  172SOPE  H18S19490   4.739   5.304   7.301 -0.8900 -0.1156  0.7546
  172SOPE  H18T19491   4.696   5.293   7.477  1.2753  2.4739  0.2002
  172SOPE   C3319492   4.823   5.458   7.034  1.1664 -0.1009 -0.2929
  172SOPE   H3X19493   4.743   5.431   7.106  0.0965  0.0976 -1.3894
  172SOPE   H3Y19494   4.765   5.475   6.940  1.1518 -0.6512 -0.3860
  172SOPE   C3419495   4.905   5.587   7.067  0.6755  0.4710 -0.3875
  172SOPE   H4X19496   4.872   5.672   7.004  0.1172  0.2189 -0.4369
  172SOPE   H4Y19497   5.013   5.569   7.046  0.9897  1.8136  0.0049
  172SOPE   C3519498   4.899   5.632   7.221  0.2193  0.1642 -0.2005
  172SOPE   H5X19499   4.963   5.555   7.269  1.6426 -0.1085 -2.4686
  172SOPE   H5Y19500   4.799   5.625   7.268 -1.2888 -0.4126 -3.3985
  172SOPE   C3619501   4.965   5.768   7.241  0.0535 -0.6509  0.2594
  172SOPE   H6X19502   4.908   5.847   7.187  1.1609 -0.6253 -0.8995
  172SOPE   H6Y19503   5.064   5.761   7.191 -0.5916 -1.0587 -0.9998
  172SOPE   C3719504   4.993   5.810   7.384  0.2861  0.0231  0.1526
  172SOPE   H7X19505   5.002   5.920   7.386 -1.3605  0.1476  2.4011
  172SOPE   H7Y19506   5.092   5.768   7.413 -0.5742 -1.5530  0.8914
  172SOPE   C3819507   4.888   5.757   7.479  0.3679  0.4880  0.0602
  172SOPE   H8X19508   4.872   5.648   7.474 -0.1697  0.4606  1.9268
  172SOPE   H8Y19509   4.791   5.805   7.451  1.4973  1.3621 -2.4842
  172SOPE   C3919510   4.925   5.804   7.625 -0.1312 -0.3244 -0.1497
  172SOPE   H9X19511   4.915   5.915   7.625  1.5332 -0.1594  0.2147
  172SOPE   H9Y19512   5.026   5.766   7.649 -0.6385 -1.9291 -0.4964
  172SOPE  C31019513   4.816   5.755   7.727 -0.2678 -0.1185 -0.3570
  172SOPE  H10X19514   4.805   5.646   7.711  0.0478 -0.3205  0.7252
  172SOPE  H10Y19515   4.719   5.806   7.709 -0.2691 -0.5612 -1.6532
  172SOPE  C31119516   4.867   5.783   7.865  0.3303  0.5146  0.1490
  172SOPE  H11X19517   4.885   5.890   7.886 -0.7357  0.5200  1.0801
  172SOPE  H11Y19518   4.966   5.732   7.873  1.6715  2.3710 -3.5919
  172SOPE  C31219519   4.779   5.728   7.978 -0.0574  0.7915 -0.3359
  172SOPE  H12X19520   4.789   5.619   7.962  2.3273  1.3189 -2.8471
  172SOPE  H12Y19521   4.677   5.769   7.960  0.3604  0.0403 -4.8985
  172SOPE  C31319522   4.822   5.784   8.118 -0.3363  0.3070 -0.5285
  172SOPE  H13X19523   4.838   5.892   8.095 -0.9416  0.8293  1.4133
  172SOPE  H13Y19524   4.917   5.731   8.136 -0.6267 -0.4192 -1.1025
  172SOPE  C31419525   4.704   5.769   8.221 -0.4893  0.4932  0.0307
  172SOPE  H14X19526   4.663   5.666   8.219  0.7348 -0.0624  2.2628
  172SOPE  H14Y19527   4.630   5.840   8.179  1.3592  1.4393 -1.7100
  172SOPE  C31519528   4.740   5.798   8.369  0.0896  0.3456  0.0611
  172SOPE  H15X19529   4.820   5.873   8.387  0.6904 -0.2698 -0.0324
  172SOPE  H15Y19530   4.785   5.700   8.398 -1.1065 -0.9918 -2.4274
  172SOPE  C31619531   4.623   5.849   8.454 -0.1288  0.2064  0.1661
  172SOPE  H16X19532   4.646   5.856   8.562  4.5139 -1.6150 -0.5882
  172SOPE  H16Y19533   4.535   5.783   8.442 -0.1050  0.0117  1.0152
  172SOPE  C31719534   4.592   5.994   8.408  0.0111 -0.0010 -0.6760
  172SOPE  H17X19535   4.577   6.009   8.299 -0.3168  2.0618 -0.3710
  172SOPE  H17Y19536   4.679   6.058   8.436 -0.9666  1.5603 -1.1361
  172SOPE  C31819537   4.468   6.055   8.476 -0.0485 -0.1319 -0.2623
  172SOPE  H18X19538   4.473   6.042   8.586 -0.8562  2.9132  0.1896
  172SOPE  H18Y19539   4.379   5.997   8.446 -0.6490  0.8496 -0.3925
  172SOPE  H18Z19540   4.463   6.164   8.454 -2.4415 -0.3285 -0.8253
  173SAPI   C1219541   6.581   2.676  11.136 -0.0073  0.4360  0.0360
  173SAPI    H219542   6.575   2.603  11.219  0.9712 -0.1027 -0.3553
  173SAPI    O219543   6.486   2.783  11.176  0.2771  0.6407 -0.4038
  173SAPI   HO219544   6.401   2.742  11.158 -0.6971  0.8916  3.2199
  173SAPI   C1319545   6.729   2.726  11.119  0.0506 -0.5053 -0.6391
  173SAPI    H319546   6.785   2.646  11.066  2.2140  0.3078  0.3500
  173SAPI    O319547   6.781   2.758  11.243  0.1691 -0.1089 -0.1952
  173SAPI   HO319548   6.742   2.842  11.269 -0.9798  0.0166 -2.2358
  173SAPI   C1419549   6.734   2.841  11.014 -0.4411 -0.1040 -0.1560
  173SAPI    H419550   6.655   2.910  11.050 -0.3857  0.3422 -0.8864
  173SAPI    O419551   6.865   2.909  11.013 -0.5569 -0.2717 -0.9249
  173SAPI   HO419552   6.935   2.849  10.985 -0.6881  0.2430 -2.4127
  173SAPI   C1519553   6.685   2.794  10.880  0.6230 -0.0644 -0.8398
  173SAPI    H519554   6.749   2.708  10.849  0.8667  0.2068 -1.0842
  173SAPI    O519555   6.689   2.893  10.775  0.1381 -0.5634 -0.7714
  173SAPI   HO519556   6.647   2.975  10.802  0.3137 -0.2918 -1.3295
  173SAPI   C1619557   6.543   2.733  10.896  0.1522  0.3826  0.6888
  173SAPI    H619558   6.465   2.808  10.921 -0.1492  0.3844 -0.2440
  173SAPI    O619559   6.495   2.682  10.775  0.8537 -0.3060 -0.7986
  173SAPI   HO619560   6.444   2.751  10.733  0.7578  1.5155  2.1625
  173SAPI   C1119561   6.540   2.620  11.001  0.2119  0.0534 -0.2037
  173SAPI    H119562   6.613   2.540  10.974  0.2666 -0.7577  2.1908
  173SAPI     P19563   6.390   2.414  11.075  0.1387  0.3234  0.4179
  173SAPI   O1319564   6.277   2.395  11.166 -0.2896  0.1659 -0.0054
  173SAPI   O1419565   6.518   2.349  11.123 -0.0429 -0.6688  0.7200
  173SAPI   O1219566   6.401   2.575  11.025 -0.2695 -0.1273 -0.8400
  173SAPI   O1119567   6.351   2.343  10.943 -0.1889 -0.5486  0.3461
  173SAPI    C119568   6.445   2.341  10.835  0.1366 -0.4998 -0.3126
  173SAPI    HA19569   6.496   2.437  10.812 -0.1602  0.0364  1.2341
  173SAPI    HB19570   6.516   2.256  10.847  0.5597 -0.1942 -0.5992
  173SAPI    C219571   6.381   2.292  10.695  0.9891 -0.4490  0.3637
  173SAPI    HS19572   6.460   2.285  10.617  0.3675  1.1406 -0.4410
  173SAPI   O2119573   6.281   2.387  10.641 -0.0929 -0.0445 -0.7306
  173SAPI   C2119574   6.332   2.488  10.562  0.2764 -0.2542  0.3252
  173SAPI   O2219575   6.447   2.509  10.532 -0.5158 -0.2331 -0.1611
  173SAPI   C2219576   6.209   2.556  10.503  0.4624 -0.2025  0.4115
  173SAPI   H2R19577   6.112   2.528  10.551 -0.5964  1.4632 -0.6926
  173SAPI   H2S19578   6.233   2.664  10.516  0.1703 -0.3153  2.0418
  173SAPI    C319579   6.328   2.148  10.724  0.3562 -0.2055  0.5106
  173SAPI    HX19580   6.251   2.148  10.804 -1.4961 -3.5256 -1.1496
  173SAPI    HY19581   6.417   2.087  10.752  1.2658  1.7146  1.9513
  173SAPI   O3119582   6.271   2.075  10.612  0.0309 -0.2311  0.6739
  173SAPI   C3119583   6.137   2.080  10.604 -1.0191 -0.0479 -0.4313
  173SAPI   O3219584   6.057   2.127  10.687  0.0679  0.2213  0.1336
  173SAPI   C3219585   6.084   2.011  10.470  0.4323 -0.7898  0.1025
  173SAPI   H2X19586   5.973   2.016  10.473  0.2430 -2.2397 -2.6645
  173SAPI   H2Y19587   6.121   1.907  10.467 -2.4942 -1.9031  1.2563
  173SAPI   C2319588   6.196   2.535  10.341  0.1073  0.5265 -0.0432
  173SAPI   H3R19589   6.195   2.426  10.319 -0.9233  0.8423 -1.7206
  173SAPI   H3S19590   6.288   2.577  10.295  2.6218 -2.9942  1.5857
  173SAPI   C2419591   6.067   2.592  10.274  0.1177 -0.4436  0.4253
  173SAPI   H4R19592   5.978   2.539  10.314 -0.7911  1.0237  0.3874
  173SAPI   H4S19593   6.069   2.586  10.164  1.2139  2.2028  0.2789
  173SAPI   C2519594   6.050   2.735  10.306  0.1579  0.0802 -0.4643
  173SAPI   H5R19595   6.027   2.750  10.412 -1.3395  0.0816 -0.7735
  173SAPI   C2619596   6.066   2.843  10.227  1.0127 -0.2401  0.1311
  173SAPI   H6R19597   6.052   2.939  10.280 -0.7038 -0.9906  1.0559
  173SAPI   C2719598   6.110   2.848  10.083 -0.0411 -0.3125  0.6334
  173SAPI   H7R19599   6.206   2.793  10.069  0.2977  0.2546  0.7369
  173SAPI   H7S19600   6.126   2.955  10.057 -1.5724 -0.6749 -1.9821
  173SAPI   C2819601   6.004   2.805   9.986 -0.4254  1.5717  0.5572
  173SAPI   H8R19602   5.910   2.777  10.036 -0.7805 -1.4659 -1.6888
  173SAPI   C2919603   6.009   2.791   9.856 -0.0720 -0.5818  0.1106
  173SAPI   H9R19604   5.920   2.765   9.796 -1.3278  2.2431  0.6656
  173SAPI  C21019605   6.136   2.818   9.772 -0.2353  0.3581 -0.0721
  173SAPI  H10R19606   6.224   2.851   9.833 -1.4114  0.8659  1.3827
  173SAPI  H10S19607   6.120   2.902   9.702  2.5020  1.0960  0.1329
  173SAPI  C21119608   6.183   2.696   9.702  0.6020  0.4411  0.2049
  173SAPI  H11R19609   6.241   2.620   9.757  0.6712 -0.2722 -0.8282
  173SAPI  C21219610   6.162   2.673   9.571  0.0763 -0.0035 -0.0090
  173SAPI  H12R19611   6.195   2.575   9.535  0.0433  0.8173 -2.3778
  173SAPI  C21319612   6.085   2.754   9.466 -0.1892 -0.2467 -0.3803
  173SAPI  H13R19613   6.032   2.842   9.510 -0.7493  0.0138 -1.5468
  173SAPI  H13S19614   6.013   2.682   9.423  0.2474  0.3887 -2.2242
  173SAPI  C21419615   6.190   2.792   9.357 -0.3919 -0.4732 -0.2016
  173SAPI  H14R19616   6.285   2.831   9.396 -1.3708  1.7449  0.0521
  173SAPI  C21519617   6.180   2.783   9.223  0.0675 -0.0217  0.2850
  173SAPI  H15R19618   6.269   2.807   9.163  1.1331  0.4047  1.9955
  173SAPI  C21619619   6.060   2.730   9.147 -0.7148  0.1415  0.8070
  173SAPI  H16R19620   6.005   2.822   9.116 -1.6186 -0.1066  1.6478
  173SAPI  H16S19621   5.991   2.678   9.216  0.4719 -1.3386  0.8969
  173SAPI  C21719622   6.113   2.646   9.031  0.7591 -0.4066 -0.2619
  173SAPI  H17R19623   6.149   2.548   9.069 -0.0831 -0.5852  0.0708
  173SAPI  H17S19624   6.202   2.699   8.990 -0.5696  1.5397 -0.6711
  173SAPI  C21819625   6.012   2.607   8.919 -0.0466 -0.5320 -0.1175
  173SAPI  H18R19626   5.918   2.569   8.963 -2.0926  0.7964 -3.1458
  173SAPI  H18S19627   6.052   2.523   8.859  1.2586  1.3591 -1.9973
  173SAPI  C21919628   5.978   2.719   8.819 -0.0216  0.4635 -0.8033
  173SAPI  H19R19629   6.071   2.771   8.788  0.1057 -0.3543 -1.7833
  173SAPI  H19S19630   5.910   2.794   8.866 -1.9457 -1.2565 -0.7983
  173SAPI  C22019631   5.920   2.661   8.695 -0.0522 -0.6244 -0.1864
  173SAPI  H20R19632   5.903   2.744   8.623  0.8932  1.7314  2.2078
  173SAPI  H20S19633   5.822   2.617   8.722 -1.0696  2.8354  2.0250
  173SAPI  H20T19634   5.985   2.582   8.653  0.2941 -0.7912  0.6529
  173SAPI   C3319635   6.110   2.089  10.333  0.2943  0.4396 -0.3914
  173SAPI   H3X19636   6.218   2.074  10.313 -0.0266 -0.0490 -1.8266
  173SAPI   H3Y19637   6.099   2.198  10.352  0.7243  0.7112 -1.6492
  173SAPI   C3419638   6.017   2.042  10.224  0.1489  0.2031 -0.5910
  173SAPI   H4X19639   6.008   1.931  10.225 -2.5855  0.3823 -0.0356
  173SAPI   H4Y19640   6.050   2.064  10.121 -4.0351  1.9842 -1.6554
  173SAPI   C3519641   5.866   2.090  10.229 -0.3429 -0.3785 -0.6593
  173SAPI   H5X19642   5.803   2.040  10.306 -0.3935  0.1349 -0.3646
  173SAPI   H5Y19643   5.829   2.048  10.133  1.8391 -2.0529 -0.8119
  173SAPI   C3619644   5.837   2.244  10.234 -0.2794 -0.0461 -0.1532
  173SAPI   H6X19645   5.862   2.278  10.336 -1.1902  0.6804 -0.1606
  173SAPI   H6Y19646   5.734   2.278  10.210  0.2625  0.7836 -1.3576
  173SAPI   C3719647   5.923   2.333  10.137 -0.6470 -0.5484  0.0995
  173SAPI   H7X19648   6.031   2.322  10.159 -0.2962  1.7517 -0.3069
  173SAPI   H7Y19649   5.883   2.436  10.150 -3.0839 -1.6103  1.4485
  173SAPI   C3819650   5.899   2.313   9.987  0.2509  0.1203 -0.1128
  173SAPI   H8X19651   5.790   2.299   9.970 -0.1809  2.6910  0.3100
  173SAPI   H8Y19652   5.947   2.216   9.962  1.2454  0.1169  1.7005
  173SAPI   C3919653   5.944   2.432   9.898  0.4697  0.5675 -0.4398
  173SAPI   H9X19654   6.054   2.426   9.901  0.5265  1.4301 -0.7466
  173SAPI   H9Y19655   5.900   2.527   9.935  2.1608  1.5668 -0.9710
  173SAPI  C31019656   5.884   2.420   9.752 -0.7418  0.4971 -0.3086
  173SAPI  H10X19657   5.904   2.515   9.698 -0.6066  0.7356  0.1619
  173SAPI  H10Y19658   5.774   2.410   9.762 -0.7247  0.1012 -0.5014
  173SAPI  C31119659   5.941   2.316   9.656 -0.5769  0.7805  0.3131
  173SAPI  H11X19660   5.924   2.210   9.685 -2.6998  1.3041  1.0737
  173SAPI  H11Y19661   6.050   2.331   9.644 -0.2697  0.5581  2.6121
  173SAPI  C31219662   5.881   2.318   9.515  0.1192 -0.5890  0.1168
  173SAPI  H12X19663   5.865   2.425   9.490  0.8394 -0.7043 -0.8702
  173SAPI  H12Y19664   5.790   2.253   9.518  1.0897 -2.0176 -0.7773
  173SAPI  C31319665   5.966   2.266   9.398 -0.4101  0.0862  0.1647
  173SAPI  H13X19666   6.001   2.163   9.421 -1.5301 -0.0494  1.2826
  173SAPI  H13Y19667   6.052   2.337   9.392 -0.8576  0.4229 -4.5190
  173SAPI  C31419668   5.889   2.253   9.267 -0.1843 -0.2253 -0.0006
  173SAPI  H14X19669   5.876   2.357   9.230 -0.1973  0.3527  1.5743
  173SAPI  H14Y19670   5.792   2.203   9.289  0.4910 -1.5022  0.1353
  173SAPI  C31519671   5.957   2.173   9.161 -0.1839  0.3172  0.0818
  173SAPI  H15X19672   5.975   2.067   9.189 -1.4448 -0.2725 -1.2878
  173SAPI  H15Y19673   6.059   2.214   9.147 -0.0490 -0.4420 -1.1673
  173SAPI  C31619674   5.892   2.190   9.022 -0.5033 -0.1745  0.4217
  173SAPI  H16X19675   5.883   2.298   8.998 -0.5751 -0.7341 -2.2468
  173SAPI  H16Y19676   5.791   2.151   9.046 -0.8127  0.3958  0.0574
  173SAPI  C31719677   5.951   2.104   8.906 -0.8260 -0.4742  0.6076
  173SAPI  H17X19678   6.056   2.137   8.892 -0.5960 -1.2633  0.3998
  173SAPI  H17Y19679   5.891   2.117   8.813 -0.5282 -0.1004  0.4677
  173SAPI  C31819680   5.938   1.953   8.933 -0.3413  1.4001 -0.5790
  173SAPI  H18X19681   5.993   1.900   8.852 -1.8281 -0.7555 -0.2308
  173SAPI  H18Y19682   5.832   1.920   8.932  0.5870 -1.7677 -0.3408
  173SAPI  H18Z19683   5.992   1.919   9.024 -3.2498 -0.4535  0.5193
  174SAPI   C1219684   2.222   3.698  10.940  0.8268  0.2486  0.4148
  174SAPI    H219685   2.214   3.651  10.840  2.8730 -2.1498  1.3004
  174SAPI    O219686   2.089   3.744  10.973 -0.3313 -0.2301  0.2294
  174SAPI   HO219687   2.051   3.777  10.891 -0.0769 -0.4417  0.0279
  174SAPI   C1319688   2.259   3.586  11.041  0.5463  0.2755 -0.6703
  174SAPI    H319689   2.361   3.550  11.015  1.6077  1.4430  1.6995
  174SAPI    O319690   2.157   3.488  11.028 -0.5573  0.1304 -0.2699
  174SAPI   HO319691   2.074   3.535  11.039 -1.8615 -1.6619 -2.1474
  174SAPI   C1419692   2.278   3.638  11.179 -0.0927 -0.0202 -0.9876
  174SAPI    H419693   2.183   3.688  11.207 -0.1839  0.4412 -2.0752
  174SAPI    O419694   2.303   3.533  11.273 -0.3447  0.2384  0.2459
  174SAPI   HO419695   2.262   3.551  11.358  0.2748 -3.7243  1.5101
  174SAPI   C1519696   2.382   3.751  11.175 -0.3038  0.5928 -0.4324
  174SAPI    H519697   2.479   3.710  11.138 -0.5077  0.7453 -1.1328
  174SAPI    O519698   2.402   3.799  11.311 -0.5599  0.0798  0.6694
  174SAPI   HO519699   2.463   3.874  11.309  0.8697 -1.0574 -1.4849
  174SAPI   C1619700   2.336   3.862  11.085 -1.1997 -0.1655  0.1360
  174SAPI    H619701   2.236   3.894  11.122 -1.0347  0.8515 -0.2764
  174SAPI    O619702   2.435   3.964  11.089 -0.2908  1.1418  0.1398
  174SAPI   HO619703   2.452   3.993  10.999  3.9448 -2.9288 -0.5969
  174SAPI   C1119704   2.322   3.811  10.938  0.1271 -0.3837  0.4312
  174SAPI    H119705   2.415   3.764  10.898 -0.3410  0.1742 -1.3499
  174SAPI     P19706   2.357   3.998  10.752  0.2837  0.5079  0.2641
  174SAPI   O1319707   2.479   4.026  10.831 -0.0870  0.1849  0.2006
  174SAPI   O1419708   2.262   4.111  10.724 -0.2344  0.3809 -0.3136
  174SAPI   O1219709   2.265   3.895  10.840  0.3504  0.5465  0.3254
  174SAPI   O1119710   2.381   3.912  10.628  0.3342  0.1473 -0.7959
  174SAPI    C119711   2.464   3.801  10.615 -0.4727 -0.4939 -0.5784
  174SAPI    HA19712   2.552   3.804  10.683 -0.8938 -0.9444 -0.0130
  174SAPI    HB19713   2.407   3.707  10.633 -0.0464 -0.4268  1.1956
  174SAPI    C219714   2.526   3.777  10.476 -0.4041  0.9299  0.2809
  174SAPI    HS19715   2.598   3.693  10.480 -0.7607  0.6628  1.0830
  174SAPI   O2119716   2.602   3.895  10.434  0.7810  0.2278 -0.5402
  174SAPI   C2119717   2.708   3.931  10.507  0.0058  0.0088 -0.2475
  174SAPI   O2219718   2.775   3.856  10.570  0.1244  0.1686 -0.5427
  174SAPI   C2219719   2.730   4.079  10.494 -0.3318 -0.0495 -0.0228
  174SAPI   H2R19720   2.630   4.126  10.507  0.1184  1.0269 -0.4477
  174SAPI   H2S19721   2.791   4.116  10.578  1.3100 -0.9467 -0.7984
  174SAPI    C319722   2.417   3.747  10.364  0.3677  0.3016  0.1108
  174SAPI    HX19723   2.360   3.842  10.367  0.3791  0.2692  1.3274
  174SAPI    HY19724   2.352   3.663  10.398  0.8397  0.7058  2.0475
  174SAPI   O3119725   2.481   3.731  10.237 -0.1686  0.4036 -0.0954
  174SAPI   C3119726   2.480   3.618  10.173 -0.8117  0.0736 -0.0445
  174SAPI   O3219727   2.418   3.515  10.206  0.1344  0.2882  0.1471
  174SAPI   C3219728   2.576   3.630  10.052  0.0179 -0.1798  0.2056
  174SAPI   H2X19729   2.659   3.556  10.057 -1.5503 -1.8606  1.9040
  174SAPI   H2Y19730   2.621   3.732  10.050 -1.6508  0.5625  0.1877
  174SAPI   C2319731   2.791   4.116  10.352 -0.4259 -0.5232 -0.8299
  174SAPI   H3R19732   2.769   4.223  10.333 -0.7411  0.0303  2.4613
  174SAPI   H3S19733   2.726   4.055  10.285 -0.7691  0.6978 -1.6217
  174SAPI   C2419734   2.940   4.095  10.328 -0.1278  0.1600 -0.2734
  174SAPI   H4R19735   3.000   4.162  10.393 -0.8144  1.3682 -0.8738
  174SAPI   H4S19736   2.962   4.128  10.224  1.9021 -1.0294 -0.2555
  174SAPI   C2519737   3.005   3.961  10.344  0.4982 -0.4242 -0.3091
  174SAPI   H5R19738   3.079   3.950  10.425  0.5308 -1.1558 -0.4351
  174SAPI   C2619739   2.973   3.853  10.273  0.4077 -0.2440  0.4715
  174SAPI   H6R19740   3.025   3.757  10.287 -0.3232 -0.3592  2.5228
  174SAPI   C2719741   2.874   3.850  10.159  0.2364  0.6227 -0.9634
  174SAPI   H7R19742   2.808   3.939  10.155 -0.1173  0.3008 -3.0147
  174SAPI   H7S19743   2.799   3.769  10.171  1.6674 -0.6681 -0.5345
  174SAPI   C2819744   2.960   3.836  10.033  0.1856  0.5550  0.5266
  174SAPI   H8R19745   3.044   3.767  10.051 -0.3573  0.1639  1.6227
  174SAPI   C2919746   2.935   3.885   9.917  0.1829  0.3300  0.0901
  174SAPI   H9R19747   2.997   3.852   9.832 -1.8118 -2.2026 -0.4266
  174SAPI  C21019748   2.823   3.973   9.876  0.2391 -0.1763  0.2957
  174SAPI  H10R19749   2.750   3.992   9.957 -1.0946  2.0866 -1.3622
  174SAPI  H10S19750   2.764   3.926   9.794  0.9903  0.0120 -0.3561
  174SAPI  C21119751   2.873   4.107   9.831  0.2161 -0.0186 -0.0298
  174SAPI  H11R19752   2.907   4.177   9.909  0.1252  0.9035 -0.8163
  174SAPI  C21219753   2.885   4.165   9.708  0.9455  0.3784 -0.0306
  174SAPI  H12R19754   2.911   4.272   9.712  0.5688  0.6386 -3.2671
  174SAPI  C21319755   2.838   4.112   9.577  0.2129 -0.3753 -0.4765
  174SAPI  H13R19756   2.785   4.194   9.525 -0.5608 -1.3673 -1.2881
  174SAPI  H13S19757   2.767   4.027   9.582 -0.3709  0.0114 -2.1279
  174SAPI  C21419758   2.947   4.067   9.483  0.5576 -0.2179  0.1951
  174SAPI  H14R19759   3.053   4.073   9.512  0.3102  0.0775  1.0409
  174SAPI  C21519760   2.929   4.019   9.364 -0.2578 -0.3656 -0.0253
  174SAPI  H15R19761   3.019   4.013   9.302 -2.2064  1.8549 -3.2191
  174SAPI  C21619762   2.798   3.997   9.291  0.5055 -0.1048  0.0072
  174SAPI  H16R19763   2.708   4.019   9.353 -0.3484 -0.3103 -1.1372
  174SAPI  H16S19764   2.794   3.890   9.262  0.8208  0.4677 -2.1981
  174SAPI  C21719765   2.784   4.065   9.157 -0.1658 -0.8001  0.5110
  174SAPI  H17R19766   2.854   4.021   9.083 -1.6819 -0.8753 -0.9192
  174SAPI  H17S19767   2.804   4.175   9.161  2.1565 -1.1408 -1.1503
  174SAPI  C21819768   2.643   4.056   9.098 -0.9004  1.1079 -0.5320
  174SAPI  H18R19769   2.585   4.133   9.152 -1.8917  0.6598 -0.9473
  174SAPI  H18S19770   2.601   3.956   9.122  0.1716  0.8518  0.3194
  174SAPI  C21919771   2.630   4.086   8.950  0.7234 -0.0859  0.0160
  174SAPI  H19R19772   2.660   4.003   8.883 -2.0122 -1.5978  0.5656
  174SAPI  H19S19773   2.684   4.174   8.910 -0.4107 -0.4030 -2.3014
  174SAPI  C22019774   2.474   4.103   8.914  0.2263 -0.0880 -0.2507
  174SAPI  H20R19775   2.419   4.018   8.961 -1.3707  1.6414  1.0520
  174SAPI  H20S19776   2.456   4.107   8.804  0.7554  2.5579 -0.2760
  174SAPI  H20T19777   2.439   4.200   8.954  0.1712  1.4027 -3.7306
  174SAPI   C3319778   2.505   3.621   9.915 -0.2360  0.5208  0.1235
  174SAPI   H3X19779   2.416   3.685   9.903 -0.6090  0.8154  3.9079
  174SAPI   H3Y19780   2.473   3.515   9.913 -0.9966  0.6874  2.0197
  174SAPI   C3419781   2.601   3.638   9.795 -0.4560 -0.4238 -0.1008
  174SAPI   H4X19782   2.680   3.560   9.807  0.4171  0.2268 -1.4326
  174SAPI   H4Y19783   2.636   3.743   9.794  1.5984 -1.0853 -0.7612
  174SAPI   C3519784   2.523   3.598   9.664 -0.4778  0.6913  0.1725
  174SAPI   H5X19785   2.441   3.528   9.691  0.7284 -0.8645 -0.0983
  174SAPI   H5Y19786   2.598   3.541   9.604 -0.4709  0.4624  0.3959
  174SAPI   C3619787   2.485   3.730   9.606 -0.1251 -0.2997 -0.0614
  174SAPI   H6X19788   2.578   3.789   9.593 -0.0197 -0.5125 -0.2975
  174SAPI   H6Y19789   2.418   3.786   9.675  1.4286 -1.0639  2.0877
  174SAPI   C3719790   2.420   3.719   9.468 -0.3014 -0.5183  0.4434
  174SAPI   H7X19791   2.390   3.821   9.434 -0.2738 -0.4830  0.5252
  174SAPI   H7Y19792   2.334   3.656   9.499  0.5743 -1.7259  0.4680
  174SAPI   C3819793   2.500   3.651   9.344  0.3505  0.1497  0.0305
  174SAPI   H8X19794   2.546   3.554   9.372  0.0220  0.3392  1.2773
  174SAPI   H8Y19795   2.584   3.717   9.313 -0.0405  1.0412  0.8466
  174SAPI   C3919796   2.412   3.641   9.226  0.1079 -0.1288  0.7587
  174SAPI   H9X19797   2.361   3.739   9.209 -0.0741  0.0074  2.0697
  174SAPI   H9Y19798   2.335   3.562   9.227  1.2088 -1.2271  3.3893
  174SAPI  C31019799   2.486   3.623   9.101  0.5864  0.1570  0.2757
  174SAPI  H10X19800   2.552   3.534   9.098 -0.8840 -1.0708  2.3939
  174SAPI  H10Y19801   2.561   3.704   9.084  1.2563 -0.8495 -1.6920
  174SAPI  C31119802   2.383   3.609   8.984 -0.2161 -0.6603  0.0452
  174SAPI  H11X19803   2.319   3.699   8.974  3.3352  2.1594  1.4110
  174SAPI  H11Y19804   2.312   3.530   9.017 -1.6543  0.1528 -1.0495
  174SAPI  C31219805   2.451   3.570   8.846  0.7598 -0.2600  0.8588
  174SAPI  H12X19806   2.529   3.492   8.862 -0.2877 -1.3843  0.5292
  174SAPI  H12Y19807   2.481   3.670   8.808 -1.1032  0.0817  0.2280
  174SAPI  C31319808   2.357   3.501   8.746  0.2049 -0.2173  0.5645
  174SAPI  H13X19809   2.308   3.417   8.799 -1.1791  0.7499  0.8521
  174SAPI  H13Y19810   2.414   3.461   8.659  0.4020 -2.3639  1.6624
  174SAPI  C31419811   2.239   3.592   8.695 -0.4964  0.2120 -0.0424
  174SAPI  H14X19812   2.167   3.625   8.773 -1.3183 -0.1004 -0.6618
  174SAPI  H14Y19813   2.181   3.529   8.624  1.5355 -1.9366  0.1567
  174SAPI  C31519814   2.283   3.711   8.607 -0.2932 -1.1160 -0.1643
  174SAPI  H15X19815   2.356   3.691   8.525  0.7071  0.3696  0.3392
  174SAPI  H15Y19816   2.324   3.785   8.679  0.0664 -2.7265  1.3074
  174SAPI  C31619817   2.165   3.768   8.528 -0.2152 -0.3536 -0.5744
  174SAPI  H16X19818   2.078   3.785   8.595  0.2028 -1.4134  0.2318
  174SAPI  H16Y19819   2.115   3.701   8.455 -1.9861 -0.1706  0.4424
  174SAPI  C31719820   2.193   3.890   8.440 -0.5223 -0.9109 -0.1363
  174SAPI  H17X19821   2.096   3.926   8.401  0.2756  0.1011 -1.2320
  174SAPI  H17Y19822   2.255   3.861   8.352 -0.9286 -2.1227 -0.0314
  174SAPI  C31819823   2.258   4.015   8.499 -0.1426  0.1064 -0.2344
  174SAPI  H18X19824   2.295   4.087   8.423  2.9872 -0.9115  0.2422
  174SAPI  H18Y19825   2.351   3.999   8.557  0.9417  2.6433 -1.1640
  174SAPI  H18Z19826   2.183   4.064   8.566  1.2848  2.0787 -0.0357
  175SAPI   C1219827   5.685   2.458   6.461  0.2794  0.2190  0.2755
  175SAPI    H219828   5.674   2.396   6.552  0.2109  0.3859  0.3814
  175SAPI    O219829   5.556   2.493   6.408 -0.3457  0.4341  0.5904
  175SAPI   HO219830   5.547   2.462   6.318 -1.1271 -0.2515  0.8961
  175SAPI   C1319831   5.752   2.592   6.513  0.1256 -0.5325 -0.5282
  175SAPI    H319832   5.852   2.555   6.547 -0.3294 -0.7761  0.5834
  175SAPI    O319833   5.676   2.643   6.629 -0.8612  0.1859 -0.5971
  175SAPI   HO319834   5.714   2.727   6.655  0.2367 -0.1832 -0.9480
  175SAPI   C1419835   5.775   2.700   6.405 -0.5050  0.0409  1.3474
  175SAPI    H419836   5.682   2.721   6.349  1.3263 -0.9872 -2.1830
  175SAPI    O419837   5.840   2.819   6.463  0.0284  0.0559 -0.9471
  175SAPI   HO419838   5.915   2.788   6.513 -0.1438 -0.0018 -0.7258
  175SAPI   C1519839   5.857   2.628   6.295 -0.2566 -0.0143 -0.0904
  175SAPI    H519840   5.951   2.599   6.347 -1.1082 -0.0749  1.4429
  175SAPI    O519841   5.880   2.725   6.197  0.1856  0.2469 -0.6291
  175SAPI   HO519842   5.967   2.712   6.159  0.5406  0.7652 -0.0094
  175SAPI   C1619843   5.794   2.503   6.238  0.1652 -0.2483  0.1791
  175SAPI    H619844   5.693   2.524   6.195 -0.4955 -1.3235  1.1771
  175SAPI    O619845   5.877   2.437   6.141 -0.3610 -0.1180 -0.1132
  175SAPI   HO619846   5.846   2.352   6.110  1.1541  0.0049 -2.0222
  175SAPI   C1119847   5.771   2.402   6.352  0.8883 -1.0487 -0.2781
  175SAPI    H119848   5.873   2.383   6.390  0.5276 -2.2891  0.0771
  175SAPI     P19849   5.750   2.129   6.371 -0.1890  0.0357 -0.2316
  175SAPI   O1319850   5.896   2.118   6.408  0.2804 -0.5814  0.6058
  175SAPI   O1419851   5.693   2.024   6.286 -0.5021 -0.3729 -0.7276
  175SAPI   O1219852   5.715   2.278   6.303  0.4315 -0.1243 -0.0515
  175SAPI   O1119853   5.668   2.136   6.509  0.0921 -0.3756 -0.1029
  175SAPI    C119854   5.529   2.123   6.521 -0.4014 -0.5817 -0.0045
  175SAPI    HA19855   5.493   2.228   6.515  0.2948 -0.3769 -0.6571
  175SAPI    HB19856   5.477   2.061   6.445  1.6749 -2.0022 -0.3087
  175SAPI    C219857   5.495   2.067   6.663 -0.5710 -0.1469  0.3204
  175SAPI    HS19858   5.385   2.077   6.672 -0.6486 -1.4608  1.0561
  175SAPI   O2119859   5.562   2.147   6.758 -0.2736 -0.4701  0.3598
  175SAPI   C2119860   5.506   2.263   6.788  0.1917  0.0098 -0.1696
  175SAPI   O2219861   5.403   2.306   6.741 -0.3787 -0.8752 -0.1626
  175SAPI   C2219862   5.588   2.324   6.908  0.0534  0.0787  0.0959
  175SAPI   H2R19863   5.579   2.251   6.992  1.8645  1.2749  1.3566
  175SAPI   H2S19864   5.693   2.329   6.873  0.1543 -0.0368  0.3709
  175SAPI    C319865   5.531   1.914   6.676 -0.7019 -1.1276 -0.5267
  175SAPI    HX19866   5.633   1.905   6.633 -0.9899 -0.4109 -1.3731
  175SAPI    HY19867   5.467   1.855   6.607 -0.7443 -0.9150 -0.6707
  175SAPI   O3119868   5.522   1.865   6.813  0.0524 -0.4324  0.1927
  175SAPI   C3119869   5.396   1.851   6.859 -0.4534  0.4401 -0.4006
  175SAPI   O3219870   5.296   1.878   6.795 -0.3582  1.5637  0.1999
  175SAPI   C3219871   5.395   1.793   6.997 -0.1016  0.3514  0.5567
  175SAPI   H2X19872   5.476   1.831   7.063  0.6949 -0.3869  0.0055
  175SAPI   H2Y19873   5.412   1.684   6.980 -0.0830  0.1249  1.9405
  175SAPI   C2319874   5.546   2.465   6.948  0.2739 -0.4331 -0.5150
  175SAPI   H3R19875   5.437   2.469   6.967  0.5782 -2.5929  1.9221
  175SAPI   H3S19876   5.559   2.546   6.873  3.3428  0.0751  0.5237
  175SAPI   C2419877   5.612   2.508   7.086  0.7975  0.1087 -0.3014
  175SAPI   H4R19878   5.599   2.430   7.164 -2.3835  0.9478  0.0871
  175SAPI   H4S19879   5.569   2.605   7.121  0.9290 -0.0936  0.4319
  175SAPI   C2519880   5.756   2.516   7.070 -0.3273  0.5291 -0.5973
  175SAPI   H5R19881   5.781   2.589   6.991 -0.4346  1.5621  0.3007
  175SAPI   C2619882   5.856   2.454   7.138  0.2227 -0.0469 -0.3496
  175SAPI   H6R19883   5.960   2.468   7.107  0.0267  0.3043 -0.8469
  175SAPI   C2719884   5.849   2.355   7.251  0.4171 -0.4375  0.1432
  175SAPI   H7R19885   5.752   2.366   7.304  0.7271  3.3419  0.0666
  175SAPI   H7S19886   5.926   2.377   7.327  1.0302 -1.7780 -0.0791
  175SAPI   C2819887   5.871   2.214   7.199  0.1431 -0.4530 -0.0827
  175SAPI   H8R19888   5.908   2.209   7.095 -0.0427  1.1129 -0.2445
  175SAPI   C2919889   5.853   2.092   7.264  0.1802 -0.2601  0.0915
  175SAPI   H9R19890   5.878   2.001   7.207 -1.5992 -1.5926  1.3517
  175SAPI  C21019891   5.810   2.065   7.409 -0.0283  0.4033 -0.5270
  175SAPI  H10R19892   5.817   2.158   7.469  0.4184  0.0337  0.0150
  175SAPI  H10S19893   5.881   1.987   7.446 -0.7020  0.1064  0.1570
  175SAPI  C21119894   5.669   2.015   7.410 -0.1551 -0.2882  0.3566
  175SAPI  H11R19895   5.617   2.038   7.316 -0.9188 -2.2397  0.2877
  175SAPI  C21219896   5.604   1.987   7.527  0.1272 -0.7940 -0.2351
  175SAPI  H12R19897   5.497   1.961   7.525 -0.5082  1.6866 -0.0734
  175SAPI  C21319898   5.655   1.989   7.668  0.2267  0.3296  0.0285
  175SAPI  H13R19899   5.620   2.069   7.737  0.1559  1.9576 -1.8454
  175SAPI  H13S19900   5.762   2.020   7.665 -0.4906  2.9706  0.6982
  175SAPI  C21419901   5.640   1.855   7.738 -0.5163 -0.3729  0.2039
  175SAPI  H14R19902   5.538   1.837   7.776 -1.1281  0.9427 -0.7523
  175SAPI  C21519903   5.729   1.762   7.738  0.4501 -0.3398 -0.0473
  175SAPI  H15R19904   5.708   1.660   7.775 -1.6658 -0.1111 -0.5941
  175SAPI  C21619905   5.866   1.772   7.684 -0.4710 -0.6753  0.5549
  175SAPI  H16R19906   5.903   1.873   7.655  2.4277 -1.1233  2.5020
  175SAPI  H16S19907   5.865   1.721   7.586 -1.7137 -0.0774  0.2483
  175SAPI  C21719908   5.968   1.708   7.778  0.1564  0.2221  0.4786
  175SAPI  H17R19909   6.061   1.696   7.719 -0.4401 -1.1721 -0.1900
  175SAPI  H17S19910   5.926   1.610   7.807  1.9376 -0.2897  1.4035
  175SAPI  C21819911   5.998   1.799   7.897  0.6935  0.1858 -0.5844
  175SAPI  H18R19912   5.910   1.806   7.964  1.2857  0.4933  0.1673
  175SAPI  H18S19913   6.000   1.902   7.855 -0.2084  0.5928  0.3404
  175SAPI  C21919914   6.119   1.753   7.979 -0.3232 -0.1824  0.0436
  175SAPI  H19R19915   6.212   1.796   7.937 -0.1526  0.1553  0.7752
  175SAPI  H19S19916   6.118   1.643   7.960  1.1329 -0.0423 -0.8853
  175SAPI  C22019917   6.123   1.791   8.127  0.0061  0.2957  0.2920
  175SAPI  H20R19918   6.199   1.738   8.188  0.8595  2.5196  1.2049
  175SAPI  H20S19919   6.019   1.781   8.165  0.3201 -1.8012  0.6417
  175SAPI  H20T19920   6.150   1.899   8.118 -0.5583  0.5413  1.5222
  175SAPI   C3319921   5.257   1.813   7.072 -0.1059 -0.1444  0.2196
  175SAPI   H3X19922   5.180   1.754   7.018 -0.8581 -1.3960  2.6106
  175SAPI   H3Y19923   5.242   1.923   7.072 -1.8040 -0.3562  0.5891
  175SAPI   C3419924   5.259   1.764   7.218  0.4760 -0.0011 -0.2801
  175SAPI   H4X19925   5.330   1.829   7.273  1.4295 -0.1425 -1.3298
  175SAPI   H4Y19926   5.283   1.657   7.233 -0.4088  0.0714  1.7767
  175SAPI   C3519927   5.128   1.794   7.287  0.0920  0.2546 -0.3830
  175SAPI   H5X19928   5.042   1.725   7.271  0.3929 -0.5351  1.3297
  175SAPI   H5Y19929   5.086   1.882   7.234 -1.3678  1.4218  2.6164
  175SAPI   C3619930   5.146   1.828   7.439 -0.9663  0.0053  0.3186
  175SAPI   H6X19931   5.214   1.916   7.435  0.2234 -0.8710  0.9058
  175SAPI   H6Y19932   5.204   1.750   7.493  0.2727  2.5034  2.7778
  175SAPI   C3719933   5.022   1.863   7.518  0.0542 -0.2814  0.4348
  175SAPI   H7X19934   4.943   1.785   7.512 -1.5276  1.2416  0.9468
  175SAPI   H7Y19935   4.991   1.963   7.480  3.2689  1.2111  1.5160
  175SAPI   C3819936   5.055   1.860   7.666  0.1414  0.2334  0.6496
  175SAPI   H8X19937   5.121   1.781   7.709  4.0118  2.3846 -1.1191
  175SAPI   H8Y19938   4.962   1.845   7.725 -0.9723 -0.2983 -1.2038
  175SAPI   C3919939   5.118   1.977   7.730 -0.3006 -0.7610  0.0658
  175SAPI   H9X19940   5.060   2.068   7.703 -0.3131 -1.2590 -1.6441
  175SAPI   H9Y19941   5.215   1.988   7.677 -1.2883  0.0144 -1.6358
  175SAPI  C31019942   5.137   1.960   7.881 -0.8495 -0.6501 -0.4219
  175SAPI  H10X19943   5.037   1.959   7.931  0.0690  1.2209  1.5224
  175SAPI  H10Y19944   5.196   2.049   7.911  1.3817 -2.1297 -0.2920
  175SAPI  C31119945   5.216   1.838   7.919 -0.5342 -0.0035  0.0819
  175SAPI  H11X19946   5.299   1.803   7.854  0.7179 -2.2878  2.8072
  175SAPI  H11Y19947   5.147   1.751   7.923 -0.4780 -0.2123 -2.7743
  175SAPI  C31219948   5.269   1.868   8.057  0.3000  0.4967 -0.1331
  175SAPI  H12X19949   5.193   1.879   8.137 -1.6124  1.0686 -1.9528
  175SAPI  H12Y19950   5.327   1.963   8.050 -0.5669  1.0538  0.0513
  175SAPI  C31319951   5.356   1.758   8.116  0.2713  0.2814  1.1869
  175SAPI  H13X19952   5.399   1.711   8.025 -0.0052 -1.2576  1.8368
  175SAPI  H13Y19953   5.286   1.679   8.150 -0.3691  0.2664 -0.1411
  175SAPI  C31419954   5.456   1.804   8.220 -0.3624 -0.0152 -1.0932
  175SAPI  H14X19955   5.523   1.884   8.180  0.3868 -0.5707 -0.9591
  175SAPI  H14Y19956   5.518   1.717   8.250  0.9768  0.7638 -1.5362
  175SAPI  C31519957   5.395   1.873   8.343 -0.8073 -0.8928  0.2765
  175SAPI  H15X19958   5.320   1.947   8.308  0.5346 -0.6778 -2.2368
  175SAPI  H15Y19959   5.467   1.921   8.413  1.3039 -1.1641 -1.6535
  175SAPI  C31619960   5.315   1.776   8.426 -0.3028  0.6555  0.3766
  175SAPI  H16X19961   5.391   1.722   8.486  0.2183  0.7828 -0.1721
  175SAPI  H16Y19962   5.255   1.707   8.363  1.1460  0.5282 -0.8798
  175SAPI  C31719963   5.219   1.836   8.528 -0.1424  0.2569  0.3112
  175SAPI  H17X19964   5.179   1.753   8.590 -0.7232  1.2240  1.2565
  175SAPI  H17Y19965   5.133   1.884   8.477 -0.0641 -0.6443 -0.6924
  175SAPI  C31819966   5.277   1.932   8.631 -0.6763  0.5049  0.3703
  175SAPI  H18X19967   5.193   1.966   8.696 -2.4126  1.1628 -2.1223
  175SAPI  H18Y19968   5.318   2.024   8.586  0.8859 -0.1058  0.5207
  175SAPI  H18Z19969   5.356   1.891   8.697 -1.0942 -2.5163 -0.9172
  176SAPI   C1219970   5.071   0.622   6.460  0.7036 -0.8610  0.1028
  176SAPI    H219971   5.101   0.560   6.547  1.8329  0.1482  0.4430
  176SAPI    O219972   5.051   0.541   6.346 -0.8484  0.2419 -0.1628
  176SAPI   HO219973   5.140   0.518   6.319 -2.0598 -1.4935 -2.9121
  176SAPI   C1319974   4.940   0.700   6.492 -0.3330  0.2599 -0.0181
  176SAPI    H319975   4.965   0.763   6.580 -0.3114 -0.5769  0.5874
  176SAPI    O319976   4.829   0.610   6.526  0.1945 -0.0842  0.5639
  176SAPI   HO319977   4.840   0.526   6.481  1.1468 -0.4628  1.5026
  176SAPI   C1419978   4.904   0.790   6.378  0.4821 -0.9671  0.9046
  176SAPI    H419979   4.895   0.729   6.285  1.8552 -0.4788  0.4489
  176SAPI    O419980   4.778   0.866   6.404 -0.1480 -0.0613 -0.1770
  176SAPI   HO419981   4.712   0.797   6.405  1.5167 -1.6701  0.2628
  176SAPI   C1519982   5.025   0.881   6.346 -0.2474  0.6387  0.1783
  176SAPI    H519983   5.044   0.939   6.438 -3.2628 -0.7053  1.7294
  176SAPI    O519984   4.991   0.979   6.248 -0.0959 -0.4526 -0.3213
  176SAPI   HO519985   4.997   1.071   6.276 -2.0560 -0.2338 -0.5392
  176SAPI   C1619986   5.147   0.796   6.314  0.1278  0.0398  0.4262
  176SAPI    H619987   5.132   0.734   6.223  3.8815 -0.1716 -0.1057
  176SAPI    O619988   5.259   0.875   6.267  0.0877 -0.3919 -0.6632
  176SAPI   HO619989   5.291   0.932   6.337 -1.9093 -0.1390  0.0924
  176SAPI   C1119990   5.183   0.715   6.432 -1.1358  0.0957  0.1002
  176SAPI    H119991   5.194   0.784   6.519 -0.2214 -0.9814  0.8488
  176SAPI     P19992   5.442   0.691   6.500 -0.2609  0.1659 -0.2629
  176SAPI   O1319993   5.445   0.830   6.542 -0.0495  0.2817 -0.1587
  176SAPI   O1419994   5.562   0.651   6.417  0.0683  0.1949 -0.3775
  176SAPI   O1219995   5.305   0.640   6.423  0.5647 -0.1422  0.1877
  176SAPI   O1119996   5.447   0.592   6.624 -0.8411 -0.5360 -0.2746
  176SAPI    C119997   5.426   0.451   6.609 -0.4299 -0.7477 -0.3489
  176SAPI    HA19998   5.342   0.425   6.541 -0.5380  2.1788 -1.3912
  176SAPI    HB19999   5.518   0.400   6.571 -1.4335 -4.2300  1.6856
  176SAPI    C220000   5.405   0.374   6.744  0.3183  0.0573  0.5930
  176SAPI    HS20001   5.406   0.267   6.716 -0.6908  0.2721 -0.2577
  176SAPI   O2120002   5.290   0.427   6.816 -0.2565 -0.0943  0.1064
  176SAPI   C2120003   5.175   0.402   6.763  0.3844  0.0160 -0.3061
  176SAPI   O2220004   5.158   0.329   6.664 -0.6272 -0.3294 -0.3852
  176SAPI   C2220005   5.062   0.473   6.830 -0.6198  0.1112 -0.0837
  176SAPI   H2R20006   5.088   0.483   6.938  1.2058  2.4600 -0.7164
  176SAPI   H2S20007   5.064   0.572   6.780 -2.8467 -0.6501 -1.7962
  176SAPI    C320008   5.532   0.378   6.836 -0.0023  0.0656  0.2496
  176SAPI    HX20009   5.529   0.480   6.878  2.5280  0.5837 -0.7224
  176SAPI    HY20010   5.623   0.359   6.775 -0.3854 -0.8835 -0.0497
  176SAPI   O3120011   5.523   0.282   6.938 -0.0667  0.0900 -0.0735
  176SAPI   C3120012   5.623   0.279   7.020 -0.6260 -0.5132  0.2226
  176SAPI   O3220013   5.737   0.322   6.994 -0.4889  0.6184  0.0515
  176SAPI   C3220014   5.589   0.207   7.151  0.2946  0.0404 -1.0771
  176SAPI   H2X20015   5.674   0.154   7.200  1.2091  1.8858 -0.5704
  176SAPI   H2Y20016   5.498   0.146   7.137  0.6371 -0.4192 -1.3121
  176SAPI   C2320017   4.924   0.401   6.828  0.2440 -0.1962 -0.4456
  176SAPI   H3R20018   4.928   0.296   6.865  0.4817 -0.0803 -0.1450
  176SAPI   H3S20019   4.888   0.377   6.725 -0.8697  0.4021 -0.2064
  176SAPI   C2420020   4.812   0.457   6.918 -0.7789 -0.5801  0.8928
  176SAPI   H4R20021   4.847   0.430   7.020 -0.3137 -0.4396  0.7703
  176SAPI   H4S20022   4.714   0.405   6.916 -0.5735 -0.9480  0.2486
  176SAPI   C2520023   4.790   0.600   6.901 -0.1540 -0.0649  0.0143
  176SAPI   H5R20024   4.822   0.634   6.802 -0.5871 -1.5775 -0.6613
  176SAPI   C2620025   4.743   0.684   7.000  0.3089  0.7039  0.0103
  176SAPI   H6R20026   4.726   0.790   6.976  0.3839  0.2398 -2.2110
  176SAPI   C2720027   4.701   0.629   7.140 -0.8044 -0.2955 -0.0274
  176SAPI   H7R20028   4.775   0.559   7.184 -0.2917 -0.4110 -1.0746
  176SAPI   H7S20029   4.610   0.567   7.124 -0.5745  0.2595 -3.7862
  176SAPI   C2820030   4.667   0.740   7.240  0.3451  0.3926  0.1815
  176SAPI   H8R20031   4.615   0.827   7.198  2.9974  2.2175  0.5782
  176SAPI   C2920032   4.672   0.719   7.374 -0.9495  0.1005 -0.4725
  176SAPI   H9R20033   4.640   0.797   7.446  0.4291  1.3177 -1.1485
  176SAPI  C21020034   4.716   0.580   7.432  0.0598  0.0167 -0.7324
  176SAPI  H10R20035   4.816   0.598   7.479  0.2894  0.9873 -1.5865
  176SAPI  H10S20036   4.727   0.503   7.352 -1.6793 -0.1528 -0.8113
  176SAPI  C21120037   4.610   0.533   7.534  0.4735 -0.6250 -0.3180
  176SAPI  H11R20038   4.523   0.485   7.489  0.1553  0.4463 -0.8619
  176SAPI  C21220039   4.610   0.579   7.658 -0.5822  0.0027  0.1681
  176SAPI  H12R20040   4.530   0.538   7.721 -2.0091 -0.4463 -1.8704
  176SAPI  C21320041   4.719   0.660   7.725 -0.6253 -0.2500 -0.2126
  176SAPI  H13R20042   4.664   0.738   7.782  0.0617  0.8283 -0.9943
  176SAPI  H13S20043   4.787   0.712   7.653  1.3035 -0.1709  1.6330
  176SAPI  C21420044   4.814   0.576   7.804  0.8152  0.8273  1.1248
  176SAPI  H14R20045   4.847   0.480   7.761 -2.6418 -0.4245  1.1107
  176SAPI  C21520046   4.851   0.591   7.930  0.4475 -0.5723  0.3410
  176SAPI  H15R20047   4.929   0.526   7.972  2.5647  0.3667 -2.0631
  176SAPI  C21620048   4.798   0.699   8.019 -0.0860  0.5334 -0.6549
  176SAPI  H16R20049   4.769   0.793   7.968  0.1214  0.6762 -0.5054
  176SAPI  H16S20050   4.876   0.723   8.093 -1.1525 -1.1346  1.0766
  176SAPI  C21720051   4.666   0.652   8.100  0.0815  0.2126  0.1213
  176SAPI  H17R20052   4.699   0.560   8.152 -0.8921  1.4181  2.9954
  176SAPI  H17S20053   4.574   0.631   8.042  0.2788  0.2012 -0.1846
  176SAPI  C21820054   4.641   0.748   8.216  0.1615 -0.0503  0.2216
  176SAPI  H18R20055   4.627   0.851   8.177  2.1053 -0.4571 -1.6495
  176SAPI  H18S20056   4.734   0.750   8.277  0.6413 -0.9999 -0.4577
  176SAPI  C21920057   4.528   0.706   8.319  0.2409 -0.5872 -0.2085
  176SAPI  H19R20058   4.431   0.698   8.266  0.6787  0.9000 -1.2609
  176SAPI  H19S20059   4.521   0.776   8.405  1.0639  1.6670 -1.9522
  176SAPI  C22020060   4.556   0.577   8.396  0.2568 -0.1541  0.1304
  176SAPI  H20R20061   4.469   0.535   8.450 -1.5962  0.8869 -1.9805
  176SAPI  H20S20062   4.636   0.591   8.472 -1.5312  1.7067  1.6931
  176SAPI  H20T20063   4.599   0.507   8.320  1.0806 -1.1084  1.4573
  176SAPI   C3320064   5.535   0.313   7.247  0.1401  0.7289 -0.4753
  176SAPI   H3X20065   5.448   0.370   7.207 -0.8992  0.4643  1.3342
  176SAPI   H3Y20066   5.619   0.380   7.273 -0.6030  1.5581 -0.1897
  176SAPI   C3420067   5.491   0.257   7.389 -0.0624  0.1905 -0.4226
  176SAPI   H4X20068   5.578   0.195   7.422 -0.5095 -0.5867 -0.6854
  176SAPI   H4Y20069   5.408   0.184   7.377  0.1321 -0.6032  2.7092
  176SAPI   C3520070   5.450   0.371   7.487 -0.1159  0.5215 -0.0785
  176SAPI   H5X20071   5.367   0.427   7.439 -0.0543 -1.1823 -2.2763
  176SAPI   H5Y20072   5.536   0.439   7.501 -0.2701  0.8698 -0.8170
  176SAPI   C3620073   5.405   0.316   7.626 -1.0110 -0.4546  0.3199
  176SAPI   H6X20074   5.489   0.259   7.672  0.3311  0.8909 -0.4281
  176SAPI   H6Y20075   5.317   0.251   7.607 -1.2041 -0.4849  1.2708
  176SAPI   C3720076   5.390   0.418   7.736  0.2739 -0.1630 -0.3526
  176SAPI   H7X20077   5.292   0.466   7.718  0.2944  0.6458  1.6117
  176SAPI   H7Y20078   5.473   0.492   7.734  0.2387 -0.1141 -0.0209
  176SAPI   C3820079   5.396   0.353   7.879 -0.2862 -0.7258  0.4082
  176SAPI   H8X20080   5.392   0.445   7.941 -0.4693 -1.1537  1.0383
  176SAPI   H8Y20081   5.497   0.309   7.889  0.7081  1.3460 -0.2646
  176SAPI   C3920082   5.293   0.252   7.908 -0.7642 -0.6528  0.6809
  176SAPI   H9X20083   5.285   0.162   7.844  1.5218 -2.2291  2.5516
  176SAPI   H9Y20084   5.195   0.303   7.895 -0.4691 -0.6596 -1.6806
  176SAPI  C31020085   5.301   0.200   8.049 -0.3186 -0.4413  0.8433
  176SAPI  H10X20086   5.303   0.283   8.123  0.2142 -0.4196  0.8063
  176SAPI  H10Y20087   5.402   0.155   8.052 -0.2174 -0.0987  3.4925
  176SAPI  C31120088   5.195   0.093   8.094  0.1024 -0.0909 -0.4991
  176SAPI  H11X20089   5.229  -0.010   8.069  1.6194  0.4427 -0.6484
  176SAPI  H11Y20090   5.098   0.109   8.042  0.2964  0.1241 -0.7915
  176SAPI  C31220091   5.174   0.096   8.248 -0.0404 -0.1632 -0.5600
  176SAPI  H12X20092   5.267   0.135   8.294 -2.3995  2.8197  1.9207
  176SAPI  H12Y20093   5.169  -0.010   8.281 -1.9290  0.8456  2.7587
  176SAPI  C31320094   5.055   0.179   8.294 -0.1259 -0.4537 -0.4703
  176SAPI  H13X20095   4.963   0.130   8.254  0.7126 -1.8171 -0.7808
  176SAPI  H13Y20096   5.066   0.278   8.245  0.8693  0.0885  0.8435
  176SAPI  C31420097   5.036   0.177   8.445 -0.0610 -0.3868  0.1353
  176SAPI  H14X20098   5.133   0.218   8.481 -1.4545  2.6939  0.4825
  176SAPI  H14Y20099   5.018   0.069   8.466 -0.8119 -0.8771 -2.7363
  176SAPI  C31520100   4.926   0.280   8.487 -0.2611  0.1973 -0.2324
  176SAPI  H15X20101   4.828   0.230   8.477 -1.1552  1.7821  0.3883
  176SAPI  H15Y20102   4.939   0.368   8.420 -0.6641 -1.7666 -2.9452
  176SAPI  C31620103   4.925   0.321   8.632  0.3120  0.5842  0.3170
  176SAPI  H16X20104   4.822   0.356   8.655  0.2396  1.8117 -1.7557
  176SAPI  H16Y20105   4.994   0.408   8.640  0.4080  0.4703  0.7440
  176SAPI  C31720106   4.955   0.214   8.739 -0.2201 -0.2468  0.1270
  176SAPI  H17X20107   4.970   0.248   8.843 -0.2080 -0.5125  0.2111
  176SAPI  H17Y20108   5.043   0.155   8.704  0.4074  1.8292 -1.9997
  176SAPI  C31820109   4.841   0.110   8.738  0.4071 -0.1814  0.2737
  176SAPI  H18X20110   4.743   0.162   8.749 -0.7337 -1.6215 -2.6465
  176SAPI  H18Y20111   4.843   0.045   8.828 -0.3189  0.5045  0.7999
  176SAPI  H18Z20112   4.831   0.042   8.651 -0.0650  0.4870 -0.2002
  177SLPC     N20113   4.371   4.420  11.051  0.5680 -0.3736  0.5483
  177SLPC   C1320114   4.516   4.458  11.051 -0.4783 -0.3629 -0.4576
  177SLPC  H13A20115   4.586   4.403  10.990  2.1649  0.6312  1.5573
  177SLPC  H13B20116   4.529   4.562  11.023  0.9713 -0.2787  0.4422
  177SLPC  H13C20117   4.559   4.463  11.150  0.5598  1.8247 -0.9925
  177SLPC   C1420118   4.309   4.510  11.159  0.2918  0.4605 -0.1487
  177SLPC  H14A20119   4.204   4.489  11.166  0.5158 -0.0122  1.8683
  177SLPC  H14B20120   4.346   4.490  11.258 -0.3057  0.5523  0.0918
  177SLPC  H14C20121   4.324   4.613  11.127  0.3655  0.5066  0.0387
  177SLPC   C1520122   4.373   4.274  11.090  0.1547 -0.6397 -0.4619
  177SLPC  H15A20123   4.276   4.229  11.076 -1.1035  1.5331  0.9529
  177SLPC  H15B20124   4.434   4.212  11.027 -1.3959 -2.0730 -0.5941
  177SLPC  H15C20125   4.398   4.259  11.194  1.4499  1.4087 -0.4484
  177SLPC   C1220126   4.311   4.436  10.916 -0.1934 -0.6772 -0.0385
  177SLPC  H12A20127   4.229   4.366  10.907  0.2285 -1.3369  1.1205
  177SLPC  H12B20128   4.379   4.413  10.836  0.2412 -0.8944  0.3865
  177SLPC   C1120129   4.250   4.575  10.880  0.1632 -0.7899 -0.1135
  177SLPC  H11A20130   4.170   4.601  10.952 -0.4090  2.5284 -1.8755
  177SLPC  H11B20131   4.200   4.570  10.782 -0.7411 -1.8408  0.3932
  177SLPC     P20132   4.455   4.695  10.765 -0.2190  0.1841  0.0528
  177SLPC   O1320133   4.388   4.768  10.654 -0.4399  0.3094  0.4614
  177SLPC   O1420134   4.577   4.760  10.821  0.3944 -0.1746 -0.4565
  177SLPC   O1220135   4.351   4.673  10.876  0.0848 -0.5419 -0.3183
  177SLPC   O1120136   4.490   4.547  10.725 -0.2355 -0.2735 -0.5691
  177SLPC    C120137   4.614   4.494  10.680  0.2356 -0.0084  0.5311
  177SLPC    HA20138   4.682   4.577  10.651  2.6549 -2.6312 -1.6916
  177SLPC    HB20139   4.675   4.436  10.752  1.3478  2.5979  1.7267
  177SLPC    C220140   4.586   4.409  10.558  0.2025 -1.0097 -0.5950
  177SLPC    HS20141   4.683   4.359  10.537  1.5710  1.8432 -1.1818
  177SLPC   O2120142   4.534   4.480  10.445  0.0056 -0.0450  0.2361
  177SLPC   C2120143   4.624   4.561  10.387 -0.2857 -0.2027 -0.1236
  177SLPC   O2220144   4.747   4.550  10.409  0.6786 -0.3400  0.0785
  177SLPC   C2220145   4.558   4.637  10.269 -0.2031  0.2127  0.1107
  177SLPC   H2R20146   4.586   4.583  10.176 -0.3328  1.1797 -0.4955
  177SLPC   H2S20147   4.448   4.623  10.275 -0.0685 -0.4594  1.1649
  177SLPC    C320148   4.490   4.293  10.596 -0.1487 -1.8612 -0.0292
  177SLPC    HX20149   4.392   4.341  10.618  0.7455 -0.4877  1.0918
  177SLPC    HY20150   4.530   4.260  10.694  0.2651  0.3836  0.5998
  177SLPC   O3120151   4.493   4.189  10.495  0.1137 -0.2097 -0.2165
  177SLPC   C3120152   4.375   4.156  10.448  0.2462  0.4780 -0.4550
  177SLPC   O3220153   4.267   4.192  10.495 -0.0511 -0.3237 -0.4301
  177SLPC   C3220154   4.395   4.060  10.329  0.0138 -0.0786 -0.1052
  177SLPC   H2X20155   4.297   4.047  10.277  0.7386 -1.5835 -1.1119
  177SLPC   H2Y20156   4.443   3.971  10.375  1.9770  0.8118 -0.4076
  177SLPC   C2320157   4.590   4.792  10.267 -0.3401  0.2830 -0.1742
  177SLPC   H3R20158   4.693   4.798  10.225 -0.2911 -2.3326 -0.5353
  177SLPC   H3S20159   4.588   4.830  10.371 -0.0670 -0.1418 -0.0112
  177SLPC   C2420160   4.485   4.862  10.183 -0.1352 -0.0927  0.0480
  177SLPC   H4R20161   4.528   4.963  10.166 -1.7474  0.7182  0.7180
  177SLPC   H4S20162   4.394   4.883  10.244  0.4366  0.8085  0.6003
  177SLPC   C2520163   4.459   4.788  10.053 -0.1247 -0.1714  0.8129
  177SLPC   H5R20164   4.375   4.842  10.006  0.0332 -0.3562  0.3132
  177SLPC   H5S20165   4.424   4.683  10.068 -0.2720 -0.1059  0.9131
  177SLPC   C2620166   4.582   4.772   9.955 -0.5271 -0.4176  0.2436
  177SLPC   H6R20167   4.670   4.745  10.016  0.0659  0.5738 -0.1596
  177SLPC   H6S20168   4.614   4.874   9.923 -0.5288 -0.0071  1.4951
  177SLPC   C2720169   4.561   4.667   9.839  0.5075  0.4326 -1.2470
  177SLPC   H7R20170   4.467   4.686   9.783  0.7590  0.7917 -1.5580
  177SLPC   H7S20171   4.565   4.562   9.874  0.6173  0.4674 -1.1569
  177SLPC   C2820172   4.664   4.679   9.734 -0.1867  0.2481 -0.3066
  177SLPC   H8R20173   4.756   4.677   9.796  0.0607 -0.5018 -0.7000
  177SLPC   H8S20174   4.666   4.778   9.682 -1.6403 -0.1516 -1.1518
  177SLPC   C2920175   4.659   4.559   9.637 -0.1913 -0.4625 -0.1524
  177SLPC   H9R20176   4.674   4.460   9.681  1.7531 -0.3145 -0.4360
  177SLPC  C21020177   4.640   4.564   9.502  0.6342 -0.0307 -0.1337
  177SLPC  H10R20178   4.649   4.471   9.443 -3.0923 -0.7783  0.3277
  177SLPC  C21120179   4.624   4.691   9.418  0.2516  0.1411  0.1033
  177SLPC  H11R20180   4.589   4.779   9.476  0.8595  0.3834  0.0997
  177SLPC  H11S20181   4.726   4.715   9.382  0.3877 -0.9431 -0.2486
  177SLPC  C21220182   4.528   4.665   9.303  0.1597 -0.4832 -0.2952
  177SLPC  H12R20183   4.471   4.573   9.325 -0.7314  0.6573  2.3601
  177SLPC  C21320184   4.521   4.737   9.192  0.5054 -0.1806 -0.6667
  177SLPC  H13R20185   4.443   4.721   9.116 -1.2059 -2.0039  1.4134
  177SLPC  C21420186   4.602   4.859   9.154  0.0155  0.2205 -0.3422
  177SLPC  H14R20187   4.696   4.866   9.212  0.0186 -1.8494 -0.0659
  177SLPC  H14S20188   4.545   4.953   9.173 -1.0728 -0.5288  0.2114
  177SLPC  C21520189   4.640   4.850   9.003  0.0676 -0.0551 -0.5778
  177SLPC  H15R20190   4.548   4.861   8.942 -0.3602 -2.1670 -0.3517
  177SLPC  H15S20191   4.680   4.748   8.985  0.6021 -0.3041  1.7925
  177SLPC  C21620192   4.740   4.965   8.956 -0.0225  0.2368 -0.0854
  177SLPC  H16R20193   4.825   4.965   9.026 -2.4911  0.0470  3.0058
  177SLPC  H16S20194   4.680   5.058   8.955 -0.1551  0.1777 -3.0653
  177SLPC  C21720195   4.784   4.936   8.810 -0.9000 -0.3401 -0.2250
  177SLPC  H17R20196   4.684   4.939   8.762 -3.1017 -0.3935  4.1643
  177SLPC  H17S20197   4.837   4.838   8.805  0.5414  0.3858  0.5157
  177SLPC  C21820198   4.880   5.049   8.750 -0.0375  0.2216 -0.0175
  177SLPC  H18R20199   4.874   5.055   8.640 -1.8381  1.0875  0.1128
  177SLPC  H18S20200   4.985   5.037   8.785 -0.2658 -1.5910  0.0955
  177SLPC  H18T20201   4.839   5.145   8.787  1.0917 -0.1238  2.2058
  177SLPC   C3320202   4.494   4.123  10.227  0.1033  0.7524 -0.2247
  177SLPC   H3X20203   4.529   4.051  10.149  1.2291 -0.3207  1.2263
  177SLPC   H3Y20204   4.589   4.146  10.280  0.2719  0.0742 -0.2169
  177SLPC   C3420205   4.439   4.241  10.145 -0.1103  0.0359  0.6272
  177SLPC   H4X20206   4.401   4.319  10.215 -0.0396  0.5538  0.0876
  177SLPC   H4Y20207   4.353   4.200  10.088  0.1243 -0.1393  0.3978
  177SLPC   C3520208   4.540   4.321  10.072 -0.2227  0.0716 -0.1461
  177SLPC   H5X20209   4.629   4.349  10.132  1.3286  0.3323 -2.4706
  177SLPC   H5Y20210   4.506   4.421  10.037 -1.4079  0.1848  1.2868
  177SLPC   C3620211   4.609   4.241   9.959  0.3702 -0.2075  0.7778
  177SLPC   H6X20212   4.675   4.164  10.005  0.1329 -0.4164  0.7751
  177SLPC   H6Y20213   4.673   4.316   9.909 -0.4634  0.6849  1.0457
  177SLPC   C3720214   4.499   4.208   9.859  0.0825  0.7441 -0.2290
  177SLPC   H7X20215   4.430   4.293   9.841 -0.6679 -0.4141 -3.0148
  177SLPC   H7Y20216   4.455   4.112   9.893  0.6582 -0.8102 -3.6670
  177SLPC   C3820217   4.560   4.179   9.723  0.0366 -0.1090  0.5690
  177SLPC   H8X20218   4.632   4.095   9.735  0.0480 -0.8126 -3.6480
  177SLPC   H8Y20219   4.630   4.261   9.697  0.8080 -0.6030  1.0500
  177SLPC   C3920220   4.453   4.160   9.614 -0.3624  0.4008  0.2456
  177SLPC   H9X20221   4.387   4.248   9.595 -0.9006  0.0132  0.3154
  177SLPC   H9Y20222   4.397   4.068   9.640  1.3933 -0.8670 -0.3841
  177SLPC  C31020223   4.536   4.128   9.489  0.3580  0.3884  0.3966
  177SLPC  H10X20224   4.607   4.043   9.501 -1.5121 -1.0653  1.5215
  177SLPC  H10Y20225   4.595   4.220   9.470 -1.8948  1.6665 -0.6431
  177SLPC  C31120226   4.438   4.093   9.373 -0.4063  0.3916  0.1511
  177SLPC  H11X20227   4.380   4.009   9.418  0.3121 -0.0870  0.1909
  177SLPC  H11Y20228   4.497   4.055   9.287 -1.4045  0.4217 -0.5551
  177SLPC  C31220229   4.357   4.210   9.325  0.6805  0.3803  0.2157
  177SLPC  H12X20230   4.427   4.295   9.309  1.7970 -0.1391  2.1801
  177SLPC  H12Y20231   4.280   4.237   9.400  1.8275  0.9893  1.2026
  177SLPC  C31320232   4.280   4.184   9.201 -1.1607 -0.2527  0.0746
  177SLPC  H13X20233   4.176   4.154   9.225 -0.2785 -1.7698  2.1791
  177SLPC  H13Y20234   4.328   4.102   9.143 -1.5448 -0.3197 -0.1449
  177SLPC  C31420235   4.268   4.301   9.110  0.2044  0.1383  0.7092
  177SLPC  H14X20236   4.367   4.320   9.064 -0.2432  2.4598  0.6698
  177SLPC  H14Y20237   4.237   4.389   9.169  1.3517 -0.1493  1.7556
  177SLPC  C31520238   4.166   4.273   9.000 -0.3320 -0.4945 -0.1905
  177SLPC  H15X20239   4.064   4.286   9.043 -0.2644 -1.4474  0.2816
  177SLPC  H15Y20240   4.175   4.165   8.974  2.4691 -0.3772  0.1372
  177SLPC  C31620241   4.182   4.354   8.872 -0.0927  0.3826 -0.0503
  177SLPC  H16X20242   4.289   4.345   8.843 -0.1864  1.5623 -0.8069
  177SLPC  H16Y20243   4.165   4.461   8.898  0.1592  0.6033 -0.8014
  177SLPC  C31720244   4.093   4.315   8.755 -0.3545 -0.3641 -0.0669
  177SLPC  H17X20245   3.996   4.312   8.809 -1.5992  0.6250 -2.1774
  177SLPC  H17Y20246   4.110   4.208   8.727  1.0593  0.1682 -1.2911
  177SLPC  C31820247   4.097   4.408   8.638  0.1453  0.0006 -0.0423
  177SLPC  H18X20248   4.110   4.508   8.685 -0.1638  0.4395 -0.8802
  177SLPC  H18Y20249   4.003   4.428   8.583  0.8210 -0.4269 -1.3758
  177SLPC  H18Z20250   4.184   4.387   8.572 -0.8316 -2.2107 -0.6739
  178SLPC     N20251   0.361   6.618  10.975  0.7516 -1.3046  0.6236
  178SLPC   C1320252   0.352   6.763  10.937  0.3088 -0.0810  0.0505
  178SLPC  H13A20253   0.386   6.818  11.024 -0.2889  0.1472  0.1439
  178SLPC  H13B20254   0.414   6.791  10.853 -2.4273  1.6487 -1.4435
  178SLPC  H13C20255   0.253   6.796  10.909  0.5287 -1.1496 -2.0593
  178SLPC   C1420256   0.286   6.582  11.102  0.1645  0.0450  0.1988
  178SLPC  H14A20257   0.184   6.575  11.066  0.4526  0.1340 -0.6384
  178SLPC  H14B20258   0.309   6.483  11.140  1.3653 -0.0606 -0.7733
  178SLPC  H14C20259   0.299   6.659  11.176  0.8722  2.5515 -2.4561
  178SLPC   C1520260   0.503   6.588  10.993 -0.5003 -0.1913  0.2407
  178SLPC  H15A20261   0.560   6.611  10.903 -0.7609 -0.1221  0.0910
  178SLPC  H15B20262   0.552   6.644  11.071 -0.4459 -0.3589  0.3262
  178SLPC  H15C20263   0.527   6.484  11.006  0.4992 -0.2249 -1.6293
  178SLPC   C1220264   0.300   6.531  10.865  0.2142  0.0176  0.2493
  178SLPC  H12A20265   0.314   6.429  10.898 -1.8816 -1.5571 -3.3845
  178SLPC  H12B20266   0.362   6.525  10.777 -0.5734  1.1854 -0.4007
  178SLPC   C1120267   0.149   6.546  10.834  0.1909 -0.2181  0.1622
  178SLPC  H11A20268   0.117   6.506  10.735  2.5480 -0.2889 -0.6118
  178SLPC  H11B20269   0.133   6.656  10.826 -0.1117 -0.1182  1.9218
  178SLPC     P20270   0.025   6.340  10.956  0.1416  0.0340 -0.2684
  178SLPC   O1320271   0.132   6.243  10.918  0.1261  0.1195 -0.4383
  178SLPC   O1420272  -0.032   6.324  11.093  0.1080  0.6455 -0.0782
  178SLPC   O1220273   0.078   6.486  10.933  0.6516  0.6207 -0.6596
  178SLPC   O1120274  -0.095   6.338  10.844  0.0282  0.2614  0.9622
  178SLPC    C120275  -0.110   6.221  10.756  0.4489  0.8686  0.0363
  178SLPC    HA20276  -0.016   6.188  10.708  1.4723  1.3835  1.6267
  178SLPC    HB20277  -0.162   6.143  10.817 -0.2075  1.5903  0.4215
  178SLPC    C220278  -0.213   6.239  10.647 -0.0646 -0.1525 -0.7816
  178SLPC    HS20279  -0.192   6.153  10.580  4.6582  0.6234 -0.4153
  178SLPC   O2120280  -0.188   6.368  10.581 -0.1375  0.4371 -0.2055
  178SLPC   C2120281  -0.086   6.363  10.491 -0.6229  0.7525  0.0615
  178SLPC   O2220282  -0.017   6.260  10.468  0.3288 -0.5116 -0.3697
  178SLPC   C2220283  -0.065   6.496  10.415 -0.1627  0.8343  0.6027
  178SLPC   H2R20284  -0.162   6.548  10.402 -0.2786 -0.0021 -2.3744
  178SLPC   H2S20285   0.005   6.561  10.472  0.4286  1.4593 -0.8088
  178SLPC    C320286  -0.358   6.236  10.700  0.7570 -0.0445 -0.5743
  178SLPC    HX20287  -0.366   6.331  10.758  1.6060  1.2836 -2.5561
  178SLPC    HY20288  -0.363   6.150  10.770  1.1215 -0.0338 -0.5338
  178SLPC   O3120289  -0.458   6.218  10.601 -0.2981  0.3142  0.1030
  178SLPC   C3120290  -0.538   6.317  10.565  0.3618 -0.5227  0.1185
  178SLPC   O3220291  -0.558   6.418  10.630  0.1917  0.5518 -0.0969
  178SLPC   C3220292  -0.619   6.271  10.444  0.2497  0.0731  0.2346
  178SLPC   H2X20293  -0.685   6.357  10.424  1.0621  0.5828 -0.2712
  178SLPC   H2Y20294  -0.689   6.189  10.471 -1.1522  0.5957 -1.7119
  178SLPC   C2320295  -0.006   6.469  10.276  0.4957 -0.1744 -0.0046
  178SLPC   H3R20296   0.074   6.392  10.274 -2.0089 -3.0113  2.1341
  178SLPC   H3S20297   0.039   6.567  10.251  3.7052 -1.1076  1.9474
  178SLPC   C2420298  -0.120   6.429  10.174 -0.2633 -0.4562 -0.8568
  178SLPC   H4R20299  -0.212   6.487  10.197  0.3640  0.0197  0.4715
  178SLPC   H4S20300  -0.148   6.322  10.181 -1.1420 -0.1069  1.5278
  178SLPC   C2520301  -0.065   6.453  10.028  0.9533 -0.9873 -0.5365
  178SLPC   H5R20302   0.033   6.406  10.004  1.5884  0.3757 -0.6632
  178SLPC   H5S20303  -0.064   6.564  10.018  0.2398 -1.0281 -1.0582
  178SLPC   C2620304  -0.169   6.394   9.925 -0.1215  0.2831  0.7279
  178SLPC   H6R20305  -0.196   6.293   9.962 -0.8297  0.4629  0.6971
  178SLPC   H6S20306  -0.124   6.399   9.823 -2.6084  1.9667 -0.3091
  178SLPC   C2720307  -0.302   6.478   9.922  0.1454 -0.4222  0.6108
  178SLPC   H7R20308  -0.292   6.588   9.930 -0.3157 -0.4523  1.6372
  178SLPC   H7S20309  -0.349   6.458  10.021  1.1468 -0.5954  1.0636
  178SLPC   C2820310  -0.403   6.446   9.814  0.0040 -0.0697 -0.2960
  178SLPC   H8R20311  -0.373   6.490   9.716 -0.5523 -1.3315 -1.0552
  178SLPC   H8S20312  -0.493   6.509   9.832  0.9470  0.8404  1.2736
  178SLPC   C2920313  -0.459   6.305   9.804  0.1864 -0.5240  0.4087
  178SLPC   H9R20314  -0.432   6.239   9.887 -1.3178 -4.5426 -2.0987
  178SLPC  C21020315  -0.517   6.253   9.693  0.0523 -0.3778 -0.9478
  178SLPC  H10R20316  -0.512   6.144   9.681  2.0931 -0.2838 -1.1005
  178SLPC  C21120317  -0.545   6.317   9.560  0.1219 -0.3634  0.1851
  178SLPC  H11R20318  -0.550   6.242   9.478 -1.2433  0.6195 -0.6498
  178SLPC  H11S20319  -0.458   6.380   9.533 -0.5424 -0.2961 -1.9609
  178SLPC  C21220320  -0.671   6.403   9.565 -0.2968 -0.1295  0.5818
  178SLPC  H12R20321  -0.655   6.477   9.644 -0.6768  0.8372 -0.2343
  178SLPC  C21320322  -0.777   6.414   9.479  0.5909  0.1665 -0.1229
  178SLPC  H13R20323  -0.846   6.498   9.493  1.5338  1.0029 -0.4143
  178SLPC  C21420324  -0.804   6.332   9.355  0.2579  0.6715  0.0303
  178SLPC  H14R20325  -0.884   6.257   9.373  1.5819 -0.5793  0.8326
  178SLPC  H14S20326  -0.720   6.264   9.329 -0.0644  0.3288 -0.1113
  178SLPC  C21520327  -0.833   6.411   9.225  0.3399  0.0357  0.0372
  178SLPC  H15R20328  -0.752   6.484   9.205  0.2152  0.0283 -0.4847
  178SLPC  H15S20329  -0.932   6.462   9.227 -0.5238 -1.4661 -2.0460
  178SLPC  C21620330  -0.858   6.309   9.110 -0.0703  0.5794  0.1624
  178SLPC  H16R20331  -0.955   6.258   9.129  0.0377 -0.9961 -3.1205
  178SLPC  H16S20332  -0.771   6.240   9.114 -1.4803 -1.1490  4.1672
  178SLPC  C21720333  -0.866   6.352   8.966 -0.8308 -0.9478  0.2245
  178SLPC  H17R20334  -0.958   6.413   8.954  0.9240  1.3254 -2.3146
  178SLPC  H17S20335  -0.881   6.264   8.900 -0.7690 -1.5221  0.9704
  178SLPC  C21820336  -0.736   6.435   8.926 -0.0440  0.4696  0.0557
  178SLPC  H18R20337  -0.641   6.378   8.926 -1.0627 -1.2446 -0.4095
  178SLPC  H18S20338  -0.726   6.521   8.997 -0.6473  2.4996 -2.2507
  178SLPC  H18T20339  -0.746   6.490   8.830 -1.7372 -1.1938 -0.7460
  178SLPC   C3320340  -0.531   6.234  10.323 -0.4230  0.2565  0.7663
  178SLPC   H3X20341  -0.455   6.162  10.360  0.0334  0.6579  0.6144
  178SLPC   H3Y20342  -0.489   6.332  10.289  0.5331  0.8163  3.4457
  178SLPC   C3420343  -0.608   6.174  10.204  0.2635  1.3347  0.1737
  178SLPC   H4X20344  -0.679   6.116  10.266 -0.7598  0.8935 -1.3881
  178SLPC   H4Y20345  -0.538   6.118  10.139  0.8894 -0.4830  2.3432
  178SLPC   C3520346  -0.669   6.282  10.117  0.2025  0.0242  0.2778
  178SLPC   H5X20347  -0.597   6.351  10.066  0.9552  0.1736  1.5359
  178SLPC   H5Y20348  -0.732   6.349  10.180 -1.9672  0.3929 -2.1918
  178SLPC   C3620349  -0.767   6.228  10.012 -0.2673  0.2811 -1.1461
  178SLPC   H6X20350  -0.842   6.161  10.059  0.5152 -1.1358 -1.9074
  178SLPC   H6Y20351  -0.722   6.159   9.937 -0.7829 -1.1397 -0.1574
  178SLPC   C3720352  -0.840   6.338   9.948  0.1578  0.2947  0.1202
  178SLPC   H7X20353  -0.777   6.388   9.871 -1.6987 -0.2506 -1.8038
  178SLPC   H7Y20354  -0.879   6.407  10.026  0.0963 -1.2179  1.4496
  178SLPC   C3820355  -0.963   6.303   9.870  0.0092 -0.5398  0.0176
  178SLPC   H8X20356  -1.006   6.389   9.814 -1.3818  1.0191  3.3537
  178SLPC   H8Y20357  -1.047   6.277   9.939 -0.1229 -2.1302 -0.7030
  178SLPC   C3920358  -0.941   6.194   9.764  0.1465  0.9255  0.0837
  178SLPC   H9X20359  -0.905   6.105   9.820 -1.9622  0.0266  0.0488
  178SLPC   H9Y20360  -0.866   6.235   9.692  0.9207  1.4163  1.1590
  178SLPC  C31020361  -1.079   6.161   9.696 -0.2671 -0.5272 -0.1275
  178SLPC  H10X20362  -1.133   6.256   9.673  1.2166 -0.2457 -2.6049
  178SLPC  H10Y20363  -1.142   6.098   9.762  1.4085 -2.0500  0.0529
  178SLPC  C31120364  -1.068   6.076   9.566  0.4174  0.2747 -0.3899
  178SLPC  H11X20365  -1.029   5.976   9.593  2.3495  0.5067 -2.1720
  178SLPC  H11Y20366  -0.987   6.117   9.502  1.7497 -0.5415  0.7549
  178SLPC  C31220367  -1.207   6.046   9.501 -0.9658 -0.2625 -0.4889
  178SLPC  H12X20368  -1.261   6.137   9.470 -0.5996 -0.9164 -3.1117
  178SLPC  H12Y20369  -1.274   5.995   9.574 -0.9138 -1.0371 -0.9773
  178SLPC  C31320370  -1.187   5.959   9.380 -0.0473 -0.3150 -0.1133
  178SLPC  H13X20371  -1.286   5.926   9.340  1.0262 -3.1228 -0.5477
  178SLPC  H13Y20372  -1.138   5.862   9.398 -2.2859 -1.5896 -0.6089
  178SLPC  C31420373  -1.128   6.028   9.253 -0.2070 -0.0863 -0.0696
  178SLPC  H14X20374  -1.019   6.039   9.274  0.0914  0.3962 -1.7549
  178SLPC  H14Y20375  -1.167   6.132   9.250 -3.1855 -1.1371  0.6311
  178SLPC  C31520376  -1.166   5.951   9.123  0.3371  0.1914  0.5885
  178SLPC  H15X20377  -1.112   5.854   9.130  2.5729  1.2257 -1.3185
  178SLPC  H15Y20378  -1.273   5.925   9.114  0.0809  2.0101 -2.5531
  178SLPC  C31620379  -1.123   6.012   8.997  0.1098 -0.0754 -0.2855
  178SLPC  H16X20380  -1.013   6.030   9.001  0.1383 -0.2318 -0.3875
  178SLPC  H16Y20381  -1.169   6.113   8.989  0.8644  0.2986  0.0597
  178SLPC  C31720382  -1.156   5.933   8.865 -0.1787 -0.3288 -0.2685
  178SLPC  H17X20383  -1.266   5.919   8.858 -0.0684 -2.7957  2.2083
  178SLPC  H17Y20384  -1.108   5.834   8.882 -0.6654 -0.0972  2.7823
  178SLPC  C31820385  -1.104   5.992   8.735 -0.1718  0.1232  0.1979
  178SLPC  H18X20386  -1.178   5.993   8.652  1.0817  1.3895 -0.9378
  178SLPC  H18Y20387  -1.004   5.950   8.707 -0.4479 -1.1412  1.0855
  178SLPC  H18Z20388  -1.083   6.100   8.751 -2.4208  1.0223 -2.5960
  179SLPC     N20389   1.310   3.051  10.297 -0.2163  0.2356 -0.1282
  179SLPC   C1320390   1.363   2.918  10.251 -0.5051  0.2251  0.7767
  179SLPC  H13A20391   1.390   2.930  10.147 -1.2336  1.8221  0.7546
  179SLPC  H13B20392   1.444   2.880  10.311 -0.7982  0.4200  1.2975
  179SLPC  H13C20393   1.284   2.846  10.268 -0.1759 -0.0785  1.0414
  179SLPC   C1420394   1.214   3.105  10.200 -0.5497  0.1273 -0.1602
  179SLPC  H14A20395   1.152   3.022  10.169 -1.0315  0.7804 -0.9778
  179SLPC  H14B20396   1.163   3.194  10.237 -3.2383 -0.5272 -2.1377
  179SLPC  H14C20397   1.266   3.136  10.111 -0.9290 -0.4906 -0.5991
  179SLPC   C1520398   1.411   3.158  10.293  0.2781  0.0288 -0.1745
  179SLPC  H15A20399   1.457   3.181  10.198 -4.3844 -0.4807 -2.6777
  179SLPC  H15B20400   1.365   3.253  10.317  1.0743 -0.5705  4.2169
  179SLPC  H15C20401   1.489   3.160  10.368  0.3573  1.1993 -0.2762
  179SLPC   C1220402   1.256   3.042  10.435 -0.3869 -0.2875  0.2083
  179SLPC  H12A20403   1.228   3.142  10.463 -3.0730 -0.5814 -1.3172
  179SLPC  H12B20404   1.337   3.025  10.504 -2.1722 -1.8716  1.9722
  179SLPC   C1120405   1.131   2.961  10.471  0.7054  0.3956  1.2440
  179SLPC  H11A20406   1.118   2.958  10.582 -0.6138 -1.3965  1.0658
  179SLPC  H11B20407   1.144   2.854  10.445 -1.2623  0.3379  0.4038
  179SLPC     P20408   0.955   3.154  10.442 -0.1956 -0.0669 -0.2837
  179SLPC   O1320409   0.907   3.145  10.579  0.2133 -0.4046 -0.1072
  179SLPC   O1420410   1.052   3.261  10.414  0.6736 -0.1294  0.3838
  179SLPC   O1220411   1.015   3.018  10.406  0.2907  0.0493  0.0658
  179SLPC   O1120412   0.829   3.182  10.344 -0.2468 -0.5174  0.2770
  179SLPC    C120413   0.718   3.089  10.332 -0.1406 -0.2007 -0.6222
  179SLPC    HA20414   0.750   2.988  10.298 -1.2785 -1.3725  1.6655
  179SLPC    HB20415   0.669   3.086  10.432  1.5706 -1.8132  0.1940
  179SLPC    C220416   0.605   3.146  10.234 -0.0407  0.5651 -0.2908
  179SLPC    HS20417   0.553   3.068  10.175 -0.8652  0.5963  0.3816
  179SLPC   O2120418   0.655   3.253  10.153  0.1581 -0.4505 -0.4488
  179SLPC   C2120419   0.759   3.215  10.072  0.5633  0.1518 -0.3979
  179SLPC   O2220420   0.777   3.097  10.037  0.0907  0.1575  0.4215
  179SLPC   C2220421   0.830   3.344  10.028  0.2562 -0.2744 -0.2646
  179SLPC   H2R20422   0.823   3.419  10.110  2.0627  1.2544 -1.4766
  179SLPC   H2S20423   0.936   3.312  10.018  0.3302 -0.5372  1.2892
  179SLPC    C320424   0.482   3.195  10.320  0.4491  0.5910  0.1911
  179SLPC    HX20425   0.510   3.280  10.386 -0.2597 -0.8261  2.3833
  179SLPC    HY20426   0.456   3.110  10.387 -0.2057  0.4733 -0.2025
  179SLPC   O3120427   0.376   3.224  10.229 -0.1897 -0.1478 -0.1735
  179SLPC   C3120428   0.330   3.339  10.214 -0.0366  0.4543  0.6148
  179SLPC   O3220429   0.366   3.441  10.275 -0.7687 -0.0077 -0.5771
  179SLPC   C3220430   0.213   3.336  10.118  0.7383  0.3320  0.1608
  179SLPC   H2X20431   0.140   3.398  10.173  0.9449  2.4510 -1.8778
  179SLPC   H2Y20432   0.156   3.241  10.115 -2.5381  2.2698 -2.8136
  179SLPC   C2320433   0.783   3.407   9.897 -0.0983 -1.0270  0.3088
  179SLPC   H3R20434   0.854   3.490   9.876 -1.7503  0.1686 -0.6968
  179SLPC   H3S20435   0.677   3.440   9.903  0.6823  1.8247 -0.8787
  179SLPC   C2420436   0.804   3.307   9.784  0.0329  0.7080 -0.7905
  179SLPC   H4R20437   0.720   3.235   9.788  0.9015 -0.3559 -1.3101
  179SLPC   H4S20438   0.891   3.244   9.813  0.1967  0.8705 -0.9188
  179SLPC   C2520439   0.836   3.373   9.647  0.2410 -0.0295 -0.1234
  179SLPC   H5R20440   0.916   3.451   9.655  0.4301 -0.3260  0.8717
  179SLPC   H5S20441   0.741   3.419   9.613  0.2179 -0.9515 -1.3243
  179SLPC   C2620442   0.872   3.265   9.539 -0.3883  0.1874 -0.0992
  179SLPC   H6R20443   0.934   3.186   9.587  1.1619  2.1866  1.2959
  179SLPC   H6S20444   0.949   3.300   9.467 -0.8673 -0.3288 -0.8686
  179SLPC   C2720445   0.757   3.207   9.469  0.2580 -0.7893  0.8390
  179SLPC   H7R20446   0.681   3.155   9.532 -1.4403  2.3981  1.4882
  179SLPC   H7S20447   0.796   3.135   9.393 -0.2616  1.6075 -1.7749
  179SLPC   C2820448   0.671   3.301   9.372  0.3558 -0.2573 -0.2385
  179SLPC   H8R20449   0.630   3.375   9.444  1.4285  0.2321 -0.1182
  179SLPC   H8S20450   0.593   3.236   9.328  0.9444 -1.5676  0.6222
  179SLPC   C2920451   0.749   3.373   9.268 -0.1681 -0.3810  0.0863
  179SLPC   H9R20452   0.817   3.452   9.302  1.6876 -2.4074  1.1978
  179SLPC  C21020453   0.741   3.367   9.130  0.2796  0.8185 -0.0962
  179SLPC  H10R20454   0.794   3.438   9.065  0.9110 -1.1403 -1.8041
  179SLPC  C21120455   0.651   3.271   9.054 -0.5467  0.1915 -0.4394
  179SLPC  H11R20456   0.555   3.255   9.108  0.1025  0.2188  0.7452
  179SLPC  H11S20457   0.699   3.172   9.069 -1.5824 -0.3458 -0.5903
  179SLPC  C21220458   0.632   3.311   8.909  0.2411  0.2052 -0.3474
  179SLPC  H12R20459   0.731   3.333   8.867  0.9028 -1.1297  0.4927
  179SLPC  C21320460   0.524   3.298   8.835  0.7439 -0.6149 -0.3023
  179SLPC  H13R20461   0.541   3.331   8.732 -2.6301  2.0935 -0.0939
  179SLPC  C21420462   0.385   3.245   8.881  0.1652 -0.0304  0.8780
  179SLPC  H14R20463   0.296   3.288   8.830  0.5497 -0.3414 -0.0677
  179SLPC  H14S20464   0.373   3.270   8.988  1.8934  2.6496  0.5033
  179SLPC  C21520465   0.370   3.094   8.859  0.5572  0.4119  0.4134
  179SLPC  H15R20466   0.384   3.072   8.751  0.9300  1.0566  0.3286
  179SLPC  H15S20467   0.266   3.056   8.870  0.3566  1.4649  2.3820
  179SLPC  C21620468   0.469   3.003   8.939  0.3057 -0.1399 -0.1134
  179SLPC  H16R20469   0.434   3.014   9.044 -1.2351  0.2229 -0.6528
  179SLPC  H16S20470   0.576   3.033   8.931  0.5767  0.3051  3.9460
  179SLPC  C21720471   0.459   2.855   8.895  0.1768 -0.4264 -0.5056
  179SLPC  H17R20472   0.349   2.845   8.897  0.0740  0.7694  0.9556
  179SLPC  H17S20473   0.496   2.789   8.976  1.3805  0.4864 -0.2851
  179SLPC  C21820474   0.525   2.806   8.766 -0.5536 -0.1595 -0.0587
  179SLPC  H18R20475   0.632   2.835   8.762 -0.8642  0.8586 -1.0900
  179SLPC  H18S20476   0.474   2.842   8.674 -0.2398 -0.3438 -0.3094
  179SLPC  H18T20477   0.524   2.695   8.773  0.8025 -0.1215  0.8993
  179SLPC   C3320478   0.244   3.390   9.980 -0.2566 -0.0474  0.5310
  179SLPC   H3X20479   0.284   3.494   9.981  0.1762 -0.1774 -1.0998
  179SLPC   H3Y20480   0.158   3.385   9.909  0.8784  3.4082 -1.2327
  179SLPC   C3420481   0.356   3.309   9.906 -0.4442 -0.0722 -0.4136
  179SLPC   H4X20482   0.360   3.212   9.961  0.7981  0.2847  0.1380
  179SLPC   H4Y20483   0.448   3.367   9.927 -1.1725  0.7293  0.6374
  179SLPC   C3520484   0.343   3.279   9.753 -0.2064 -0.5880  0.0146
  179SLPC   H5X20485   0.262   3.206   9.730 -0.4575 -0.2780 -0.0888
  179SLPC   H5Y20486   0.433   3.233   9.708  0.2131  3.5103 -3.7483
  179SLPC   C3620487   0.310   3.405   9.676 -0.0309  0.0509  0.6381
  179SLPC   H6X20488   0.368   3.483   9.730  1.3951  0.0267 -0.8082
  179SLPC   H6Y20489   0.205   3.434   9.696  0.3862  1.4776  0.7785
  179SLPC   C3720490   0.338   3.387   9.527 -0.0494 -0.6506 -0.5201
  179SLPC   H7X20491   0.426   3.324   9.502 -0.3757 -1.4188  0.2779
  179SLPC   H7Y20492   0.358   3.494   9.505  0.1580 -0.7633 -0.8936
  179SLPC   C3820493   0.220   3.324   9.449 -0.7217 -0.0044 -0.1908
  179SLPC   H8X20494   0.158   3.416   9.447  1.3139  1.4002 -2.7494
  179SLPC   H8Y20495   0.178   3.247   9.517  1.3110  1.9819  3.4594
  179SLPC   C3920496   0.263   3.266   9.317 -0.0572  0.0092  0.2508
  179SLPC   H9X20497   0.345   3.193   9.334 -0.8726 -0.6648  1.3427
  179SLPC   H9Y20498   0.303   3.353   9.260 -0.5895  0.5111  0.6400
  179SLPC  C31020499   0.156   3.197   9.231 -0.4203 -0.3534  0.3507
  179SLPC  H10X20500   0.151   3.092   9.267  2.3711  0.0149  2.0264
  179SLPC  H10Y20501   0.191   3.202   9.126 -0.4339  2.1693  0.4261
  179SLPC  C31120502   0.022   3.275   9.223  0.5724  0.2541  0.4420
  179SLPC  H11X20503   0.046   3.377   9.186 -1.6878  0.4354 -0.6388
  179SLPC  H11Y20504  -0.021   3.293   9.323 -0.3080 -0.1307  0.1323
  179SLPC  C31220505  -0.082   3.216   9.124  0.0140  0.1761 -0.2325
  179SLPC  H12X20506  -0.177   3.270   9.145  1.6071  1.8801  2.8732
  179SLPC  H12Y20507  -0.095   3.111   9.155  2.5867 -0.9888 -2.8132
  179SLPC  C31320508  -0.035   3.220   8.975 -0.6766 -0.1881  0.0208
  179SLPC  H13X20509   0.016   3.122   8.956 -1.6644 -0.9184  1.1181
  179SLPC  H13Y20510   0.045   3.291   8.945 -0.9461  1.1967  2.5173
  179SLPC  C31420511  -0.149   3.226   8.877  0.6598  0.1178 -0.3501
  179SLPC  H14X20512  -0.232   3.172   8.928  0.4959  0.3303 -0.3948
  179SLPC  H14Y20513  -0.123   3.171   8.783 -1.8370 -0.7375 -0.5728
  179SLPC  C31520514  -0.197   3.372   8.837  0.2870  1.4630  0.0039
  179SLPC  H15X20515  -0.291   3.364   8.778 -0.3600  1.9636  0.9514
  179SLPC  H15Y20516  -0.110   3.420   8.787 -0.5944  0.7605 -2.2731
  179SLPC  C31620517  -0.242   3.457   8.951 -0.2148  0.2680 -0.3362
  179SLPC  H16X20518  -0.151   3.469   9.014 -0.5413  1.9747 -0.1784
  179SLPC  H16Y20519  -0.322   3.404   9.007  1.1518 -0.8612  0.5983
  179SLPC  C31720520  -0.291   3.594   8.910 -0.4376 -0.3557  0.1376
  179SLPC  H17X20521  -0.386   3.583   8.854  1.4319  0.1138 -3.3200
  179SLPC  H17Y20522  -0.218   3.625   8.832 -1.2976  0.0308 -0.5281
  179SLPC  C31820523  -0.306   3.694   9.024  0.0473 -0.2120 -0.3512
  179SLPC  H18X20524  -0.383   3.645   9.088  0.3183 -0.5475 -0.2849
  179SLPC  H18Y20525  -0.353   3.782   8.975  2.4236  1.2528 -0.0632
  179SLPC  H18Z20526  -0.210   3.712   9.076  0.6356  0.0591 -1.5266
  180SLPC     N20527   1.537   1.493  10.738 -0.3879  0.2656 -0.3816
  180SLPC   C1320528   1.387   1.514  10.756 -0.4319  0.5738 -0.1732
  180SLPC  H13A20529   1.367   1.577  10.842 -0.9346 -1.8379  1.5130
  180SLPC  H13B20530   1.341   1.559  10.668 -1.5397 -1.4422 -0.6443
  180SLPC  H13C20531   1.330   1.423  10.767 -1.0508  0.7424 -1.7973
  180SLPC   C1420532   1.604   1.627  10.749  0.1962 -0.7480  0.1332
  180SLPC  H14A20533   1.546   1.695  10.688  2.2450  1.0352  0.0970
  180SLPC  H14B20534   1.599   1.675  10.846  2.6830  0.9064 -0.5053
  180SLPC  H14C20535   1.705   1.632  10.713  0.4607 -0.3654  0.9090
  180SLPC   C1520536   1.568   1.430  10.600 -0.2369 -0.5691 -0.2623
  180SLPC  H15A20537   1.673   1.436  10.577  0.0127  2.2110  1.3999
  180SLPC  H15B20538   1.535   1.329  10.583 -0.5307 -0.6710  0.8835
  180SLPC  H15C20539   1.526   1.489  10.519 -0.9518 -0.0444  0.4864
  180SLPC   C1220540   1.587   1.399  10.837  0.0663  0.6602 -0.0320
  180SLPC  H12A20541   1.555   1.430  10.935 -1.9610 -1.3944  0.0106
  180SLPC  H12B20542   1.694   1.386  10.833  0.0047  0.5306 -1.5347
  180SLPC   C1120543   1.531   1.258  10.818 -0.5815 -0.0318 -0.1349
  180SLPC  H11A20544   1.448   1.257  10.744 -0.0389  3.0649 -0.8965
  180SLPC  H11B20545   1.486   1.213  10.908  1.2483 -1.4783  0.0957
  180SLPC     P20546   1.733   1.094  10.858  0.1058 -0.4088  0.4129
  180SLPC   O1320547   1.814   1.198  10.925 -0.6486  0.3265 -0.5146
  180SLPC   O1420548   1.663   0.996  10.939 -0.6875  0.3964 -0.5207
  180SLPC   O1220549   1.638   1.179  10.763 -0.4161  0.5408  0.0610
  180SLPC   O1120550   1.807   1.014  10.746 -0.4792  0.0250 -0.0149
  180SLPC    C120551   1.737   0.944  10.643  0.1656  0.1570  0.0198
  180SLPC    HA20552   1.743   0.834  10.658  1.6186  0.2034 -0.1363
  180SLPC    HB20553   1.630   0.970  10.631  0.9730  2.7071 -2.2548
  180SLPC    C220554   1.804   0.956  10.506  0.6363 -0.3710 -0.0875
  180SLPC    HS20555   1.808   1.064  10.482  0.5387 -0.4361 -0.4046
  180SLPC   O2120556   1.726   0.874  10.421 -0.2994 -0.1718 -0.2078
  180SLPC   C2120557   1.710   0.926  10.301 -0.3521  0.1710 -0.4651
  180SLPC   O2220558   1.736   1.042  10.267  0.1439 -0.0130  0.6262
  180SLPC   C2220559   1.647   0.835  10.204 -0.0851 -0.0216  0.2022
  180SLPC   H2R20560   1.549   0.794  10.237  0.1848 -0.7787  0.0739
  180SLPC   H2S20561   1.623   0.896  10.114 -0.4668  0.1958  0.4452
  180SLPC    C320562   1.947   0.898  10.492 -0.0404  0.0791  0.5396
  180SLPC    HX20563   1.928   0.794  10.526 -1.8500  0.1604 -0.2004
  180SLPC    HY20564   2.018   0.943  10.565 -0.1035  0.6533  0.2440
  180SLPC   O3120565   1.997   0.892  10.361 -0.2774  0.3308 -0.1826
  180SLPC   C3120566   2.126   0.837  10.359 -0.9830  0.8948  0.0133
  180SLPC   O3220567   2.186   0.799  10.459 -0.5522 -0.3072  0.0435
  180SLPC   C3220568   2.201   0.841  10.225 -0.6024 -0.2194 -0.1186
  180SLPC   H2X20569   2.250   0.743  10.205  0.9646  0.7328 -1.0041
  180SLPC   H2Y20570   2.266   0.929  10.241  0.5149 -0.8976 -0.8339
  180SLPC   C2320571   1.729   0.718  10.159  0.1880 -0.4582  0.2475
  180SLPC   H3R20572   1.820   0.746  10.102  0.3818  0.2490  0.9045
  180SLPC   H3S20573   1.659   0.671  10.086 -1.3455  1.4950  0.4056
  180SLPC   C2420574   1.771   0.616  10.267  0.1967  0.0698  0.2308
  180SLPC   H4R20575   1.697   0.616  10.350 -1.9283  0.4416 -1.6231
  180SLPC   H4S20576   1.865   0.653  10.314 -0.2421 -0.2554  1.3768
  180SLPC   C2520577   1.802   0.478  10.199  0.1885 -0.2426 -0.7680
  180SLPC   H5R20578   1.704   0.429  10.184  1.4267 -2.0983 -3.1891
  180SLPC   H5S20579   1.852   0.414  10.275  1.0877 -1.1315 -2.0937
  180SLPC   C2620580   1.889   0.473  10.073  0.2571  0.0776  0.3893
  180SLPC   H6R20581   1.984   0.531  10.077 -0.4151  1.4447 -2.0688
  180SLPC   H6S20582   1.837   0.529   9.992  1.4393 -1.3430 -1.3794
  180SLPC   C2720583   1.888   0.330  10.017 -0.7313  0.0114  0.3146
  180SLPC   H7R20584   1.782   0.301   9.997  0.3306 -1.8480 -2.8917
  180SLPC   H7S20585   1.935   0.256  10.085  2.1866 -0.2120 -1.8637
  180SLPC   C2820586   1.965   0.307   9.883 -0.8726  0.2619  0.5561
  180SLPC   H8R20587   1.967   0.201   9.853 -1.1051  0.5784 -0.6023
  180SLPC   H8S20588   2.070   0.341   9.894 -0.9595  0.1984  1.6495
  180SLPC   C2920589   1.904   0.385   9.773 -0.3730  1.9210  0.1434
  180SLPC   H9R20590   1.811   0.435   9.802 -0.1034  2.2829  0.3925
  180SLPC  C21020591   1.944   0.395   9.646  0.3486 -0.2005  0.3596
  180SLPC  H10R20592   1.873   0.449   9.581  0.6061 -1.5323 -1.0525
  180SLPC  C21120593   2.052   0.321   9.590  0.5268  0.6021 -0.6617
  180SLPC  H11R20594   2.078   0.243   9.665  0.3085  1.4566  0.2989
  180SLPC  H11S20595   2.142   0.385   9.574  0.2246  1.5073  1.1297
  180SLPC  C21220596   2.008   0.252   9.461 -0.4346 -0.4305  0.0148
  180SLPC  H12R20597   1.969   0.149   9.468 -1.7997  0.1492  1.2619
  180SLPC  C21320598   2.000   0.312   9.341 -0.1466 -0.0504 -0.0399
  180SLPC  H13R20599   1.983   0.250   9.252  1.3213  0.2989 -0.5893
  180SLPC  C21420600   2.033   0.451   9.301  0.3234 -0.1451  0.0950
  180SLPC  H14R20601   2.131   0.467   9.351  0.4422 -0.5275 -0.0111
  180SLPC  H14S20602   1.969   0.532   9.342 -0.4772 -0.8629  0.2660
  180SLPC  C21520603   2.057   0.486   9.154  0.6331  0.3096 -0.6018
  180SLPC  H15R20604   2.103   0.587   9.145  2.4786 -0.1034  2.8972
  180SLPC  H15S20605   1.959   0.476   9.104 -0.2418  2.0434  0.7256
  180SLPC  C21620606   2.143   0.376   9.077  0.3570  0.0412  0.3072
  180SLPC  H16R20607   2.110   0.272   9.095  2.3093 -0.9719 -1.8284
  180SLPC  H16S20608   2.249   0.380   9.108  0.4279 -2.1678  0.3741
  180SLPC  C21720609   2.149   0.408   8.931 -0.5515  0.1482 -0.5672
  180SLPC  H17R20610   2.187   0.512   8.932  1.4504 -0.5603  1.6212
  180SLPC  H17S20611   2.048   0.400   8.886 -1.7438  0.0494  2.0309
  180SLPC  C21820612   2.249   0.311   8.855  0.4347  0.7485 -0.3175
  180SLPC  H18R20613   2.353   0.317   8.892  0.0497 -1.9083  1.2456
  180SLPC  H18S20614   2.251   0.349   8.750  1.0182  3.6862  0.6924
  180SLPC  H18T20615   2.210   0.208   8.863 -0.7929  1.3590  1.9255
  180SLPC   C3320616   2.101   0.876  10.110  0.3790 -0.9665  0.8860
  180SLPC   H3X20617   2.048   0.970  10.138 -0.9184 -1.4872  0.2480
  180SLPC   H3Y20618   2.021   0.799  10.096  0.4608 -0.7342 -0.9827
  180SLPC   C3420619   2.159   0.903   9.967 -0.2848  0.5454  0.2848
  180SLPC   H4X20620   2.244   0.974   9.963 -0.1759  0.4966  1.3461
  180SLPC   H4Y20621   2.083   0.958   9.909  1.9271  2.4555 -0.8676
  180SLPC   C3520622   2.176   0.763   9.896  0.2522  0.4949 -0.1003
  180SLPC   H5X20623   2.097   0.697   9.937  0.2165  0.8504  0.4065
  180SLPC   H5Y20624   2.269   0.722   9.940  0.7186  0.2093 -1.3314
  180SLPC   C3620625   2.183   0.760   9.741  0.6758  0.4531 -0.4479
  180SLPC   H6X20626   2.082   0.782   9.699  0.0824 -0.1316  0.6511
  180SLPC   H6Y20627   2.203   0.655   9.710  0.0457  0.6313 -1.4821
  180SLPC   C3720628   2.293   0.843   9.681  0.2256  0.0017  0.1054
  180SLPC   H7X20629   2.381   0.819   9.744 -0.9555  0.2897  1.8791
  180SLPC   H7Y20630   2.267   0.950   9.693 -0.8387 -0.2181 -0.2153
  180SLPC   C3820631   2.313   0.824   9.526 -0.1534  0.6217  0.2477
  180SLPC   H8X20632   2.356   0.723   9.514  0.6687  1.0698 -0.6752
  180SLPC   H8Y20633   2.395   0.889   9.490  0.7038 -0.6115 -0.0379
  180SLPC   C3920634   2.190   0.845   9.438  0.3247  0.5995  0.1280
  180SLPC   H9X20635   2.167   0.953   9.450 -1.5893  0.1751  0.5687
  180SLPC   H9Y20636   2.104   0.782   9.470 -0.3533  2.5649  2.3679
  180SLPC  C31020637   2.204   0.819   9.286 -0.1670  0.2435 -0.6257
  180SLPC  H10X20638   2.184   0.711   9.275 -0.3145  0.3636 -1.5646
  180SLPC  H10Y20639   2.305   0.854   9.255 -0.4001 -1.1242 -2.9829
  180SLPC  C31120640   2.112   0.899   9.211  0.6031  1.3198  0.2317
  180SLPC  H11X20641   2.118   1.006   9.239  1.5854  1.1274  0.7856
  180SLPC  H11Y20642   2.006   0.870   9.225  0.6786  0.6091 -0.5984
  180SLPC  C31220643   2.133   0.876   9.058 -0.4228 -0.2659 -0.3996
  180SLPC  H12X20644   2.125   0.767   9.036 -0.7762 -0.0206 -1.4908
  180SLPC  H12Y20645   2.238   0.897   9.029 -0.2635  0.4014  0.6297
  180SLPC  C31320646   2.037   0.957   8.974  0.3259 -0.4875 -0.0067
  180SLPC  H13X20647   2.062   1.066   8.974 -1.1103 -0.1337  2.2533
  180SLPC  H13Y20648   1.931   0.934   8.998  1.1197  0.3772  4.7840
  180SLPC  C31420649   2.042   0.930   8.825  0.1672  0.1967  0.2915
  180SLPC  H14X20650   1.956   0.974   8.770 -1.6899 -2.6016  0.8361
  180SLPC  H14Y20651   2.018   0.822   8.824  0.8804 -0.0481  3.7147
  180SLPC  C31520652   2.189   0.943   8.782  0.7334 -0.0013 -0.4795
  180SLPC  H15X20653   2.250   0.866   8.833  1.2763  0.7519  0.0197
  180SLPC  H15Y20654   2.226   1.039   8.824  1.0137  0.5874 -2.0308
  180SLPC  C31620655   2.212   0.936   8.634  0.2199  0.2609 -0.1978
  180SLPC  H16X20656   2.322   0.945   8.624  0.3739 -0.9655  0.2833
  180SLPC  H16Y20657   2.159   1.024   8.592 -1.3055 -0.1233  0.8757
  180SLPC  C31720658   2.156   0.805   8.567  0.4362  0.2984  0.4303
  180SLPC  H17X20659   2.177   0.800   8.457  1.7516  0.7567  0.6470
  180SLPC  H17Y20660   2.049   0.821   8.588  0.2367 -0.7745  0.2142
  180SLPC  C31820661   2.206   0.664   8.618  0.1934  0.1986  0.3398
  180SLPC  H18X20662   2.191   0.652   8.728  0.2184 -1.1367  0.1965
  180SLPC  H18Y20663   2.306   0.641   8.578  0.0675  1.9448 -1.0476
  180SLPC  H18Z20664   2.132   0.591   8.579 -0.4188  0.2457  1.3860
  181SLPC     N20665   5.358   5.222  11.175  0.4385  0.2197 -0.7012
  181SLPC   C1320666   5.315   5.226  11.314  0.2605 -0.4490 -0.3906
  181SLPC  H13A20667   5.391   5.287  11.361  0.5974 -1.3040  0.1811
  181SLPC  H13B20668   5.224   5.283  11.328  0.0476 -1.1499  1.0952
  181SLPC  H13C20669   5.285   5.132  11.357 -1.3492 -0.0946 -0.6835
  181SLPC   C1420670   5.489   5.146  11.162 -0.1311 -0.3916 -0.4245
  181SLPC  H14A20671   5.515   5.141  11.058  1.6596  0.1346 -0.0046
  181SLPC  H14B20672   5.576   5.192  11.205  0.4914  0.4864 -2.5634
  181SLPC  H14C20673   5.473   5.042  11.188 -1.8306  0.3756  1.8421
  181SLPC   C1520674   5.393   5.363  11.139  0.4383 -0.2556 -0.5880
  181SLPC  H15A20675   5.307   5.420  11.173  0.9326  0.8092 -1.1096
  181SLPC  H15B20676   5.484   5.394  11.187  0.6339 -0.9629 -0.4889
  181SLPC  H15C20677   5.397   5.377  11.032 -2.3063  1.3229 -0.5446
  181SLPC   C1220678   5.238   5.153  11.098 -0.6127  0.6738 -0.4177
  181SLPC  H12A20679   5.148   5.210  11.117 -0.4942  0.5787  0.4480
  181SLPC  H12B20680   5.216   5.059  11.148 -1.2289  1.9369  1.7699
  181SLPC   C1120681   5.261   5.124  10.952  0.4009 -0.0690  0.1988
  181SLPC  H11A20682   5.286   5.222  10.904  0.0682  0.0940  0.3635
  181SLPC  H11B20683   5.165   5.084  10.913  1.4523 -2.0659 -0.4020
  181SLPC     P20684   5.346   4.875  10.977 -0.4389 -0.1607 -0.3146
  181SLPC   O1320685   5.470   4.844  11.060 -0.0830 -0.2382  0.1625
  181SLPC   O1420686   5.221   4.856  11.046 -0.1587  0.1524 -0.0152
  181SLPC   O1220687   5.359   5.024  10.922  0.5630 -0.2950 -0.2030
  181SLPC   O1120688   5.346   4.792  10.838 -0.1780 -0.0365 -0.0639
  181SLPC    C120689   5.233   4.812  10.745  0.3086  0.1182  0.4900
  181SLPC    HA20690   5.183   4.715  10.721  0.3135 -0.5446  2.9896
  181SLPC    HB20691   5.156   4.879  10.789  0.2485  1.1192 -1.1115
  181SLPC    C220692   5.277   4.883  10.611 -0.2631 -0.3628  0.0026
  181SLPC    HS20693   5.273   4.994  10.612 -1.8093 -0.4142 -0.1169
  181SLPC   O2120694   5.199   4.833  10.497  0.3207  0.0327 -0.1220
  181SLPC   C2120695   5.073   4.882  10.491  0.0596 -0.7337 -0.7646
  181SLPC   O2220696   5.023   4.967  10.561 -0.4960 -0.0956  0.4000
  181SLPC   C2220697   5.000   4.830  10.363  0.5519  0.4242 -0.5936
  181SLPC   H2R20698   5.002   4.720  10.381  1.3028  0.8138  1.8233
  181SLPC   H2S20699   4.898   4.874  10.368 -0.2476 -1.3244 -1.1597
  181SLPC    C320700   5.425   4.839  10.589  0.4515 -0.0997  0.2369
  181SLPC    HX20701   5.428   4.728  10.593  2.2276 -0.0379  1.4219
  181SLPC    HY20702   5.494   4.878  10.667  2.5295 -1.4622 -0.8905
  181SLPC   O3120703   5.471   4.871  10.458  0.1688  0.4066  0.2383
  181SLPC   C3120704   5.498   4.999  10.439 -0.3978  0.2369 -0.4477
  181SLPC   O3220705   5.484   5.086  10.522 -0.5348  0.4495 -0.2415
  181SLPC   C3220706   5.548   5.021  10.297  0.0184 -0.7308 -0.2134
  181SLPC   H2X20707   5.559   4.920  10.254 -1.4672 -1.1086  0.2597
  181SLPC   H2Y20708   5.644   5.073  10.318 -0.8404  0.4973  0.7718
  181SLPC   C2320709   5.083   4.870  10.234  0.2852  0.2592 -0.3095
  181SLPC   H3R20710   5.190   4.844  10.248  0.3601 -0.1564 -1.4954
  181SLPC   H3S20711   5.091   4.980  10.227 -2.8027  0.5040 -0.3653
  181SLPC   C2420712   5.014   4.813  10.109  0.1416 -0.1802  0.4819
  181SLPC   H4R20713   4.907   4.842  10.105  0.2906  0.2849 -0.1946
  181SLPC   H4S20714   5.017   4.702  10.115  1.3683 -0.2827 -1.4610
  181SLPC   C2520715   5.090   4.860   9.985 -0.1504 -0.3161  0.3215
  181SLPC   H5R20716   5.197   4.832   9.979 -0.0218  0.5366 -2.4199
  181SLPC   H5S20717   5.086   4.971   9.990  2.5444 -0.2002  0.6862
  181SLPC   C2620718   5.023   4.832   9.849 -0.4546 -0.1140 -0.7327
  181SLPC   H6R20719   4.915   4.845   9.869 -0.3983  0.3062 -0.7009
  181SLPC   H6S20720   5.031   4.727   9.814  0.5308 -0.1140 -0.5231
  181SLPC   C2720721   5.061   4.933   9.745  0.2934  0.1030 -0.3567
  181SLPC   H7R20722   5.171   4.920   9.731  0.8809  2.6178  1.5589
  181SLPC   H7S20723   5.038   5.034   9.785  2.0957  0.3688  0.0584
  181SLPC   C2820724   4.986   4.921   9.608 -0.2722 -0.2723 -0.0145
  181SLPC   H8R20725   4.998   5.011   9.544 -0.0779  0.0389  0.4585
  181SLPC   H8S20726   4.877   4.917   9.626 -0.5429  2.4096 -0.9145
  181SLPC   C2920727   5.048   4.802   9.537  0.2528 -0.0383  0.0430
  181SLPC   H9R20728   5.114   4.741   9.601 -0.2719  1.5605  2.1832
  181SLPC  C21020729   5.049   4.786   9.401  1.1832  0.2365 -0.1476
  181SLPC  H10R20730   5.093   4.691   9.367  2.0602 -0.5840  3.0546
  181SLPC  C21120731   4.993   4.879   9.296  0.0188  0.5125  0.0257
  181SLPC  H11R20732   4.972   4.981   9.338 -1.4600  0.7860 -1.3184
  181SLPC  H11S20733   4.886   4.851   9.283 -0.0152  1.5110 -2.0641
  181SLPC  C21220734   5.064   4.886   9.161 -0.3114  0.2749  0.1516
  181SLPC  H12R20735   5.125   4.973   9.131 -0.3695  0.0727 -0.5732
  181SLPC  C21320736   5.061   4.790   9.070 -0.0663 -0.3775 -0.0532
  181SLPC  H13R20737   5.119   4.798   8.976  1.5931  1.0752  1.0704
  181SLPC  C21420738   4.982   4.661   9.080  0.0918  0.3571 -0.0623
  181SLPC  H14R20739   4.914   4.656   8.992 -1.5849  3.6922  0.9531
  181SLPC  H14S20740   4.913   4.662   9.167  0.1791  1.8284  0.0003
  181SLPC  C21520741   5.067   4.535   9.071 -0.1571 -0.3494 -0.1335
  181SLPC  H15R20742   4.997   4.449   9.073  0.1915 -0.6545 -0.8156
  181SLPC  H15S20743   5.140   4.532   9.154  0.9927 -1.5997 -1.1781
  181SLPC  C21620744   5.143   4.522   8.938 -0.6176  0.3461  0.3870
  181SLPC  H16R20745   5.242   4.572   8.949 -0.1113 -1.4707  5.2886
  181SLPC  H16S20746   5.080   4.563   8.856 -1.6148 -3.1356 -0.6864
  181SLPC  C21720747   5.192   4.379   8.902 -0.3098  0.2654 -0.0945
  181SLPC  H17R20748   5.112   4.303   8.891 -0.2411 -0.0748  1.6108
  181SLPC  H17S20749   5.248   4.361   8.996 -1.7885 -0.2650  0.6901
  181SLPC  C21820750   5.281   4.376   8.782 -0.0126 -0.1396  0.1390
  181SLPC  H18R20751   5.218   4.398   8.694 -0.0902  0.5438  0.3624
  181SLPC  H18S20752   5.312   4.270   8.771 -0.7298 -0.2851 -0.5451
  181SLPC  H18T20753   5.370   4.442   8.787 -1.1130  1.4955 -1.2621
  181SLPC   C3320754   5.458   5.109  10.208 -0.4807 -0.3519 -1.2038
  181SLPC   H3X20755   5.468   5.217  10.232 -3.6205 -0.0857 -0.8570
  181SLPC   H3Y20756   5.358   5.080  10.246  0.5682  1.7052  3.4984
  181SLPC   C3420757   5.469   5.070  10.060 -0.3906 -0.3960 -0.0392
  181SLPC   H4X20758   5.376   5.118  10.023 -0.2621  0.0296  0.1805
  181SLPC   H4Y20759   5.459   4.961  10.043 -0.1472 -0.2238 -1.2636
  181SLPC   C3520760   5.585   5.138   9.983 -0.1400  0.1754 -0.4983
  181SLPC   H5X20761   5.681   5.086  10.002  0.5042  1.5739  0.0730
  181SLPC   H5Y20762   5.594   5.245  10.011 -1.7172 -0.0406  0.9313
  181SLPC   C3620763   5.570   5.145   9.832  0.2216  0.3482 -0.3048
  181SLPC   H6X20764   5.593   5.251   9.810  0.1001  0.2868 -0.7383
  181SLPC   H6Y20765   5.465   5.142   9.796  0.0235  2.6544  0.0237
  181SLPC   C3720766   5.648   5.042   9.756  0.2696  0.0783 -0.8089
  181SLPC   H7X20767   5.608   4.943   9.784 -0.9786  0.4414 -1.2682
  181SLPC   H7Y20768   5.759   5.053   9.759  0.4336 -0.8827 -2.7234
  181SLPC   C3820769   5.625   5.028   9.599 -0.8993  0.6132 -0.3996
  181SLPC   H8X20770   5.523   4.984   9.592 -0.5965  0.2638 -3.0126
  181SLPC   H8Y20771   5.692   4.950   9.558  1.5193  2.9792 -1.1032
  181SLPC   C3920772   5.629   5.161   9.530 -0.0622  1.0536  0.1900
  181SLPC   H9X20773   5.720   5.219   9.557 -0.8379  2.6455 -0.5039
  181SLPC   H9Y20774   5.540   5.218   9.566 -2.6846 -0.1318 -4.0121
  181SLPC  C31020775   5.634   5.135   9.381  0.0006 -0.5670 -0.0484
  181SLPC  H10X20776   5.535   5.094   9.352 -0.4591  1.0921 -0.8683
  181SLPC  H10Y20777   5.720   5.066   9.369  0.5649 -0.0351  0.8648
  181SLPC  C31120778   5.652   5.254   9.292  0.1653 -0.1866 -0.1674
  181SLPC  H11X20779   5.751   5.301   9.312  0.1789  0.0843 -0.8584
  181SLPC  H11Y20780   5.562   5.316   9.315 -1.0506 -2.9274  2.8340
  181SLPC  C31220781   5.653   5.230   9.138 -0.3709  0.0875 -0.4970
  181SLPC  H12X20782   5.549   5.208   9.104  0.7333 -2.0902 -2.5804
  181SLPC  H12Y20783   5.725   5.149   9.116 -1.8931 -1.5101  0.2413
  181SLPC  C31320784   5.688   5.356   9.052  0.0763  0.3098  0.0172
  181SLPC  H13X20785   5.773   5.416   9.093 -1.6763  1.0947  2.6395
  181SLPC  H13Y20786   5.614   5.439   9.046 -1.6684 -1.3260 -1.7593
  181SLPC  C31420787   5.698   5.313   8.904  0.3183 -0.0228 -0.4559
  181SLPC  H14X20788   5.601   5.274   8.867  0.5558 -0.4151 -0.6584
  181SLPC  H14Y20789   5.766   5.226   8.896 -1.2287 -1.2433 -0.5093
  181SLPC  C31520790   5.754   5.411   8.805 -0.6538 -0.1691 -0.8861
  181SLPC  H15X20791   5.780   5.358   8.711  1.0958  2.0481 -1.6964
  181SLPC  H15Y20792   5.856   5.445   8.835 -1.3757 -0.5175  2.1877
  181SLPC  C31620793   5.659   5.521   8.775  0.6578 -0.0523  0.4207
  181SLPC  H16X20794   5.667   5.609   8.842  3.8266  1.2413 -1.5305
  181SLPC  H16Y20795   5.553   5.492   8.783  1.2323 -2.2083  0.5012
  181SLPC  C31720796   5.685   5.585   8.634  0.1405 -0.2270 -0.5150
  181SLPC  H17X20797   5.698   5.504   8.560  0.5212 -0.1412 -0.5442
  181SLPC  H17Y20798   5.783   5.637   8.643  0.0441 -0.3111  1.2330
  181SLPC  C31820799   5.567   5.661   8.573 -0.9165  0.5927 -0.3915
  181SLPC  H18X20800   5.593   5.689   8.468 -3.2818  0.8671 -0.9369
  181SLPC  H18Y20801   5.542   5.755   8.627  0.9679 -1.1803  3.7654
  181SLPC  H18Z20802   5.467   5.612   8.578 -2.3307  3.4812  1.5713
  182SLPC     N20803   3.876   6.678  11.002  0.4930  0.1732  0.6402
  182SLPC   C1320804   3.810   6.616  11.110 -0.4799  1.2063 -0.7451
  182SLPC  H13A20805   3.750   6.682  11.171  1.1800  0.3325  1.9234
  182SLPC  H13B20806   3.742   6.540  11.076 -0.5176  0.0386  1.7866
  182SLPC  H13C20807   3.872   6.559  11.177 -2.7460 -3.0883 -2.1487
  182SLPC   C1420808   3.961   6.566  10.941 -0.2316  0.0765  0.6742
  182SLPC  H14A20809   3.896   6.484  10.914 -1.4594  1.0999  0.4723
  182SLPC  H14B20810   4.034   6.594  10.866 -0.2584  1.7296  1.2559
  182SLPC  H14C20811   4.012   6.516  11.022  0.7833  0.6961  0.4271
  182SLPC   C1520812   3.966   6.781  11.070 -0.2910  0.8504 -0.2729
  182SLPC  H15A20813   4.035   6.730  11.135 -1.4747 -0.8448 -0.3336
  182SLPC  H15B20814   4.031   6.842  11.009  0.9180 -0.8533 -0.7337
  182SLPC  H15C20815   3.914   6.855  11.130 -0.0458  1.2756 -0.5777
  182SLPC   C1220816   3.788   6.749  10.901  0.2221  0.2744 -0.1341
  182SLPC  H12A20817   3.849   6.812  10.838 -0.0215  1.3460  0.6862
  182SLPC  H12B20818   3.721   6.817  10.952  1.4225  0.8123  0.7482
  182SLPC   C1120819   3.695   6.671  10.803  0.0763 -0.4932  0.0862
  182SLPC  H11A20820   3.756   6.633  10.718  1.5674  1.7967  0.0843
  182SLPC  H11B20821   3.624   6.739  10.752 -0.7740 -0.8951  0.7066
  182SLPC     P20822   3.610   6.426  10.850  0.0786 -0.1843 -0.1514
  182SLPC   O1320823   3.735   6.356  10.881  0.2438  0.2984 -0.7793
  182SLPC   O1420824   3.489   6.379  10.916 -0.1301  0.8797 -0.6207
  182SLPC   O1220825   3.621   6.576  10.882 -0.0293  0.4658  0.0932
  182SLPC   O1120826   3.580   6.415  10.699 -0.2528  0.2516  0.4030
  182SLPC    C120827   3.456   6.440  10.643  0.0544 -0.2496  0.4171
  182SLPC    HA20828   3.393   6.350  10.656  0.6005 -0.5245  1.2057
  182SLPC    HB20829   3.409   6.529  10.692 -1.2033  0.2794 -1.7162
  182SLPC    C220830   3.468   6.486  10.495  0.1491  0.2437 -0.3523
  182SLPC    HS20831   3.364   6.504  10.460 -0.4297 -2.6447 -0.3165
  182SLPC   O2120832   3.548   6.399  10.412  0.5175 -0.4303 -0.3512
  182SLPC   C2120833   3.492   6.306  10.331  0.1046 -0.4785 -0.4803
  182SLPC   O2220834   3.373   6.292  10.310 -0.4113  0.1567 -0.0443
  182SLPC   C2220835   3.598   6.243  10.234  0.9711 -0.1318  0.6078
  182SLPC   H2R20836   3.703   6.254  10.268  0.9506  0.2100  0.5599
  182SLPC   H2S20837   3.576   6.134  10.232 -3.1662  0.6454  0.1103
  182SLPC    C320838   3.531   6.627  10.475  0.0128  0.1433  0.0024
  182SLPC    HX20839   3.640   6.612  10.491  0.3897  0.7681 -1.9098
  182SLPC    HY20840   3.477   6.693  10.546 -0.1039 -0.3187  0.3383
  182SLPC   O3120841   3.506   6.662  10.335 -0.0463  0.2865  0.4037
  182SLPC   C3120842   3.410   6.748  10.305 -0.0793 -0.5001 -0.4791
  182SLPC   O3220843   3.352   6.820  10.386  0.4169 -0.8315 -0.4512
  182SLPC   C3220844   3.374   6.731  10.159  0.0258 -0.6007  0.4882
  182SLPC   H2X20845   3.353   6.625  10.132  1.0719 -0.9955  1.1909
  182SLPC   H2Y20846   3.454   6.775  10.096 -1.2289  0.7994 -0.1612
  182SLPC   C2320847   3.564   6.295  10.088 -0.6919 -0.5492 -0.5536
  182SLPC   H3R20848   3.455   6.311  10.070 -0.5759  1.5581  0.5136
  182SLPC   H3S20849   3.590   6.217  10.013  0.4641 -1.1938  0.4926
  182SLPC   C2420850   3.637   6.429  10.063 -0.0144  0.1522  0.2952
  182SLPC   H4R20851   3.740   6.405  10.028 -0.9434 -0.7762 -1.8904
  182SLPC   H4S20852   3.633   6.498  10.149  0.7513 -1.0087  1.2854
  182SLPC   C2520853   3.584   6.509   9.943  0.3014 -0.5481  0.1530
  182SLPC   H5R20854   3.657   6.591   9.928 -0.2965 -0.2723 -1.4009
  182SLPC   H5S20855   3.489   6.557   9.974  1.3628  1.7936 -0.1396
  182SLPC   C2620856   3.557   6.437   9.803 -0.2656 -0.3090 -0.8498
  182SLPC   H6R20857   3.475   6.502   9.766 -1.1338 -1.5250 -1.1124
  182SLPC   H6S20858   3.505   6.339   9.816  0.2371 -0.3502  1.0225
  182SLPC   C2720859   3.680   6.418   9.720 -0.6500  0.2233  0.0775
  182SLPC   H7R20860   3.753   6.364   9.784  0.3700 -0.7286 -1.8357
  182SLPC   H7S20861   3.729   6.515   9.699 -0.5814  0.2371  0.3087
  182SLPC   C2820862   3.663   6.357   9.581 -0.5164 -0.8366  0.1403
  182SLPC   H8R20863   3.585   6.422   9.535  0.7719  1.0715  0.6157
  182SLPC   H8S20864   3.606   6.266   9.610 -0.5303 -0.3065  1.8611
  182SLPC   C2920865   3.786   6.323   9.499 -0.6938  0.3283 -0.8061
  182SLPC   H9R20866   3.868   6.273   9.553 -0.5032 -1.5767 -2.8101
  182SLPC  C21020867   3.808   6.357   9.375 -0.4311 -0.2353  0.9193
  182SLPC  H10R20868   3.903   6.322   9.333  0.4990  2.2809  0.7996
  182SLPC  C21120869   3.724   6.438   9.286 -0.3330 -0.1361 -0.0944
  182SLPC  H11R20870   3.682   6.523   9.343 -0.2392 -0.1747  0.0338
  182SLPC  H11S20871   3.633   6.384   9.253 -1.5636  2.0733 -0.3906
  182SLPC  C21220872   3.786   6.499   9.161  0.4535  0.0584 -0.0537
  182SLPC  H12R20873   3.805   6.605   9.182  1.4400 -0.1413  0.0953
  182SLPC  C21320874   3.807   6.449   9.036 -0.1397 -0.0893 -0.0540
  182SLPC  H13R20875   3.846   6.506   8.950  1.1521 -1.6733 -0.5627
  182SLPC  C21420876   3.778   6.304   8.987  0.1642 -0.5338 -0.6499
  182SLPC  H14R20877   3.751   6.291   8.880 -0.2030 -2.4485 -0.3416
  182SLPC  H14S20878   3.683   6.281   9.039 -0.1849  0.5320 -0.7868
  182SLPC  C21520879   3.882   6.190   9.016 -0.6612 -0.6591 -0.0111
  182SLPC  H15R20880   3.839   6.129   9.098 -1.1177 -1.0348 -0.5282
  182SLPC  H15S20881   3.971   6.251   9.046 -1.3831  1.0037 -1.1754
  182SLPC  C21620882   3.905   6.106   8.890  0.8069  0.1224  0.3953
  182SLPC  H16R20883   3.988   6.033   8.901  0.8855  0.3816  1.5829
  182SLPC  H16S20884   3.934   6.180   8.813  2.7417  0.5723  1.5151
  182SLPC  C21720885   3.787   6.021   8.857  0.4478  0.4971 -0.9484
  182SLPC  H17R20886   3.690   6.075   8.859 -0.9270 -1.8131 -2.6799
  182SLPC  H17S20887   3.773   5.938   8.929 -1.2078  1.9715  0.4701
  182SLPC  C21820888   3.797   5.971   8.715  0.1450  0.3463  0.6961
  182SLPC  H18R20889   3.771   6.042   8.634 -0.4171 -0.8725 -0.2033
  182SLPC  H18S20890   3.747   5.872   8.713  1.3275 -0.2618  0.7349
  182SLPC  H18T20891   3.904   5.942   8.701 -0.4741 -2.2243  1.0800
  182SLPC   C3320892   3.263   6.825  10.099  1.1507 -0.1672 -0.3001
  182SLPC   H3X20893   3.301   6.928  10.118 -0.5657 -0.0857  3.1193
  182SLPC   H3Y20894   3.179   6.813  10.171  1.3594  0.5203  0.0647
  182SLPC   C3420895   3.221   6.797   9.957  0.2660 -0.4216  0.2603
  182SLPC   H4X20896   3.136   6.861   9.922  0.5601  0.7557  1.6338
  182SLPC   H4Y20897   3.176   6.696   9.947 -1.2958  0.4699 -2.3667
  182SLPC   C3520898   3.329   6.807   9.848 -0.2672 -0.7193  0.4173
  182SLPC   H5X20899   3.406   6.728   9.863  2.3325  1.3529 -1.6114
  182SLPC   H5Y20900   3.372   6.909   9.860 -1.7072 -0.2270  1.5403
  182SLPC   C3620901   3.270   6.797   9.704  0.0454  0.5564  0.1301
  182SLPC   H6X20902   3.198   6.881   9.691 -0.0055  0.6018  0.6979
  182SLPC   H6Y20903   3.206   6.706   9.705  2.6529 -1.3452 -0.8920
  182SLPC   C3720904   3.371   6.795   9.594 -0.8024  0.3666  0.0011
  182SLPC   H7X20905   3.457   6.732   9.626 -0.7170  0.9540  0.9429
  182SLPC   H7Y20906   3.418   6.894   9.578 -0.1971 -0.0885 -1.1322
  182SLPC   C3820907   3.328   6.750   9.445 -0.6815 -0.7720 -0.1394
  182SLPC   H8X20908   3.230   6.792   9.415 -1.9374 -1.8283  2.3193
  182SLPC   H8Y20909   3.302   6.644   9.466 -2.1545 -0.3407  0.2536
  182SLPC   C3920910   3.439   6.765   9.337  0.2685 -0.1352 -0.6925
  182SLPC   H9X20911   3.415   6.686   9.263  0.5384  0.5344 -1.4920
  182SLPC   H9Y20912   3.534   6.746   9.392  0.2328  1.5957 -0.0025
  182SLPC  C31020913   3.443   6.906   9.276 -0.3945 -0.8969  0.3239
  182SLPC  H10X20914   3.480   6.981   9.349 -1.6968 -0.0371  0.1060
  182SLPC  H10Y20915   3.337   6.936   9.261  0.5193  1.8726 -0.8479
  182SLPC  C31120916   3.521   6.908   9.146  0.2750  0.6770 -0.5122
  182SLPC  H11X20917   3.621   6.867   9.175  0.2181  1.6426  1.1428
  182SLPC  H11Y20918   3.532   7.008   9.100  1.1929  0.0945 -1.5802
  182SLPC  C31220919   3.466   6.816   9.033 -0.8118  0.2092 -0.0434
  182SLPC  H12X20920   3.375   6.868   8.999 -0.6767 -0.5325 -1.5656
  182SLPC  H12Y20921   3.436   6.713   9.064  0.6056 -0.7008 -1.6373
  182SLPC  C31320922   3.551   6.791   8.905  0.3102  0.5628  0.4558
  182SLPC  H13X20923   3.489   6.733   8.833  1.9968  0.7549 -1.1889
  182SLPC  H13Y20924   3.629   6.718   8.937 -0.8070 -1.5102 -1.4262
  182SLPC  C31420925   3.605   6.914   8.826  0.5350  0.1154  0.2127
  182SLPC  H14X20926   3.681   6.971   8.884 -0.3585 -0.8594  2.4175
  182SLPC  H14Y20927   3.517   6.981   8.814 -0.3435 -1.2915 -1.3783
  182SLPC  C31520928   3.671   6.887   8.692 -0.2867  0.1216 -0.0749
  182SLPC  H15X20929   3.710   6.988   8.666 -0.9851  0.4700  0.2097
  182SLPC  H15Y20930   3.597   6.854   8.617  1.1004 -0.8400 -1.0523
  182SLPC  C31620931   3.789   6.789   8.701  0.1329  0.0471 -0.1768
  182SLPC  H16X20932   3.846   6.788   8.606  0.4254  2.0992 -0.0473
  182SLPC  H16Y20933   3.744   6.687   8.705  0.5012 -0.0758  1.0528
  182SLPC  C31720934   3.891   6.823   8.799 -0.0734 -0.1884  0.4572
  182SLPC  H17X20935   3.979   6.756   8.802 -0.8311 -1.3406 -1.8147
  182SLPC  H17Y20936   3.850   6.824   8.903 -1.0849  0.4201  0.0622
  182SLPC  C31820937   3.952   6.958   8.789  0.4881 -0.0162 -0.0647
  182SLPC  H18X20938   3.980   6.983   8.684  0.6685 -1.9181 -0.4840
  182SLPC  H18Y20939   4.036   6.970   8.860  1.8171 -2.9243 -1.0812
  182SLPC  H18Z20940   3.877   7.035   8.818  0.2255 -0.6174  0.8514
  183SLPC     N20941   4.969   0.931  10.984 -0.1637 -0.2405 -0.0794
  183SLPC   C1320942   5.053   1.055  10.983  0.4161  0.3966  0.2379
  183SLPC  H13A20943   5.033   1.114  11.071 -1.5265  1.1074 -0.6482
  183SLPC  H13B20944   5.154   1.019  10.988  0.4504  0.6100  1.0614
  183SLPC  H13C20945   5.038   1.122  10.899 -1.2076  0.4802  0.5775
  183SLPC   C1420946   4.823   0.969  11.007 -0.9819 -0.2130  0.0537
  183SLPC  H14A20947   4.796   1.048  10.939 -1.3371  0.1062  0.5568
  183SLPC  H14B20948   4.759   0.882  10.994  0.7237 -1.8204  2.0625
  183SLPC  H14C20949   4.796   1.001  11.106 -0.8861 -1.0371  0.3584
  183SLPC   C1520950   5.005   0.848  11.109 -0.6835  0.4165  0.3493
  183SLPC  H15A20951   4.945   0.758  11.111  0.2495 -0.2358 -0.6272
  183SLPC  H15B20952   5.108   0.816  11.110 -1.2735 -1.5511 -0.1940
  183SLPC  H15C20953   4.971   0.899  11.198 -2.2607 -0.5525  0.3228
  183SLPC   C1220954   4.989   0.867  10.844  0.1245  0.9353  0.4611
  183SLPC  H12A20955   5.093   0.836  10.838 -0.1407  0.3476 -1.4125
  183SLPC  H12B20956   4.973   0.946  10.773  1.8591  1.3359  0.4972
  183SLPC   C1120957   4.897   0.746  10.807 -0.1027 -0.1447 -0.3710
  183SLPC  H11A20958   4.913   0.734  10.697  0.4162 -0.2403 -0.2858
  183SLPC  H11B20959   4.798   0.789  10.835 -0.1827  0.1727 -1.1299
  183SLPC     P20960   4.850   0.498  10.839 -0.2590  0.0288 -0.2106
  183SLPC   O1320961   4.899   0.401  10.938 -0.2264 -0.1453  0.1754
  183SLPC   O1420962   4.705   0.517  10.828  0.5733  0.1398  0.2095
  183SLPC   O1220963   4.918   0.636  10.886 -0.1449 -0.5647 -0.0129
  183SLPC   O1120964   4.905   0.464  10.696  0.5769 -0.1052  0.3782
  183SLPC    C120965   4.834   0.501  10.578  0.1760  0.1411 -0.1823
  183SLPC    HA20966   4.727   0.473  10.588  0.4008 -0.4616  0.5629
  183SLPC    HB20967   4.838   0.611  10.563  0.8629 -0.1234 -2.0910
  183SLPC    C220968   4.895   0.431  10.451  0.5118 -0.1083 -0.1196
  183SLPC    HS20969   4.891   0.321  10.463 -1.2765  0.1047  1.5332
  183SLPC   O2120970   5.029   0.472  10.437  0.0903 -0.0379  0.0102
  183SLPC   C2120971   5.113   0.398  10.366  0.3024  0.8002 -0.3551
  183SLPC   O2220972   5.097   0.284  10.332  0.1294 -0.1762  0.3334
  183SLPC   C2220973   5.237   0.478  10.349  0.2947  0.1194 -0.7047
  183SLPC   H2R20974   5.214   0.583  10.322 -2.2021 -0.8690 -2.5043
  183SLPC   H2S20975   5.293   0.467  10.445  1.0289 -1.1332 -1.2552
  183SLPC    C320976   4.812   0.472  10.327  0.0813  0.3279  0.6824
  183SLPC    HX20977   4.806   0.583  10.329  1.6448  0.4473 -0.7054
  183SLPC    HY20978   4.704   0.448  10.323 -0.3250  2.0811  0.8820
  183SLPC   O3120979   4.869   0.425  10.198 -0.0353 -0.4005  0.1535
  183SLPC   C3120980   4.846   0.296  10.165 -0.2643  0.0201 -0.3408
  183SLPC   O3220981   4.786   0.217  10.237  0.0414  0.8439  0.3234
  183SLPC   C3220982   4.894   0.271  10.031 -0.3063 -0.2778 -0.2257
  183SLPC   H2X20983   4.873   0.164  10.016  2.6453 -0.6570 -1.9572
  183SLPC   H2Y20984   5.003   0.284  10.014  0.1327 -0.8224  1.9834
  183SLPC   C2320985   5.318   0.412  10.235 -0.0349  0.3016 -0.5670
  183SLPC   H3R20986   5.329   0.302  10.251  1.2436  0.7697  2.0696
  183SLPC   H3S20987   5.423   0.449  10.243 -0.2844  1.4433 -2.2347
  183SLPC   C2420988   5.264   0.446  10.090 -0.4127 -0.0100  0.0272
  183SLPC   H4R20989   5.262   0.557  10.085  2.1185  0.0357 -0.5350
  183SLPC   H4S20990   5.162   0.402  10.081  1.2728 -3.9872 -0.5682
  183SLPC   C2520991   5.342   0.376   9.987 -0.2090 -0.2951  0.3479
  183SLPC   H5R20992   5.344   0.267  10.007  0.9451 -0.4081 -0.3237
  183SLPC   H5S20993   5.450   0.404   9.991  0.4987 -2.9447  0.8149
  183SLPC   C2620994   5.291   0.389   9.840  0.3264  0.6415 -0.0506
  183SLPC   H6R20995   5.291   0.496   9.811 -3.2275  0.9307  0.7885
  183SLPC   H6S20996   5.186   0.352   9.831 -0.4050  1.7618  3.1572
  183SLPC   C2720997   5.374   0.312   9.735  0.1072 -0.2103 -0.3818
  183SLPC   H7R20998   5.475   0.358   9.741 -0.9341  2.0195  0.7415
  183SLPC   H7S20999   5.326   0.346   9.641  1.1809  1.5289 -0.3281
  183SLPC   C2821000   5.381   0.163   9.758 -0.4306 -0.4563  0.0578
  183SLPC   H8R21001   5.291   0.132   9.815 -0.6986  2.9737  1.6000
  183SLPC   H8S21002   5.459   0.132   9.830 -0.5099  1.0823  0.8130
  183SLPC   C2921003   5.395   0.087   9.628  0.2839 -0.0779  0.2204
  183SLPC   H9R21004   5.498   0.096   9.590 -0.1320  0.8457 -0.7161
  183SLPC  C21021005   5.306  -0.004   9.579 -0.3858 -0.2161 -0.0268
  183SLPC  H10R21006   5.327  -0.059   9.486 -2.6381 -0.0859 -0.6369
  183SLPC  C21121007   5.164  -0.024   9.636 -0.1509 -0.7521 -0.5050
  183SLPC  H11R21008   5.112   0.074   9.642 -1.3510 -1.3504 -0.8587
  183SLPC  H11S21009   5.163  -0.063   9.740  1.2215  0.5248 -0.0073
  183SLPC  C21221010   5.073  -0.117   9.556 -0.0333  0.7548 -0.6332
  183SLPC  H12R21011   5.101  -0.222   9.574  0.0604  1.0535  0.9702
  183SLPC  C21321012   4.967  -0.090   9.473 -0.0427  0.4208 -0.4624
  183SLPC  H13R21013   4.915  -0.171   9.420 -0.8648  0.9621 -0.5012
  183SLPC  C21421014   4.925   0.053   9.432 -0.1099  0.1262 -0.0936
  183SLPC  H14R21015   5.007   0.127   9.447  0.1918 -0.1327 -0.4597
  183SLPC  H14S21016   4.852   0.090   9.506  1.6870 -1.4724  2.5574
  183SLPC  C21521017   4.887   0.074   9.291 -0.2208  0.1094  0.6710
  183SLPC  H15R21018   4.967   0.039   9.223 -1.1728  0.0313 -0.4341
  183SLPC  H15S21019   4.880   0.180   9.259  1.2128 -0.5133 -1.7925
  183SLPC  C21621020   4.756   0.008   9.238 -0.4568 -0.1708 -0.0348
  183SLPC  H16R21021   4.669   0.055   9.290  0.1722  0.5719  0.3531
  183SLPC  H16S21022   4.771  -0.099   9.262 -0.8498 -0.2565 -0.1561
  183SLPC  C21721023   4.741   0.024   9.091  0.1966  0.0712 -0.2420
  183SLPC  H17R21024   4.827  -0.024   9.040  1.1586  2.4005 -0.9097
  183SLPC  H17S21025   4.740   0.131   9.062 -0.6797 -0.1348 -1.0161
  183SLPC  C21821026   4.607  -0.030   9.034 -1.0395 -0.1737 -0.6182
  183SLPC  H18R21027   4.592  -0.132   9.074 -3.5092 -0.0410 -1.1289
  183SLPC  H18S21028   4.605  -0.042   8.924 -1.3473  0.5689 -0.7024
  183SLPC  H18T21029   4.525   0.037   9.067 -0.9837 -0.5041  0.2027
  183SLPC   C3321030   4.822   0.369   9.926  0.2437 -0.0468  0.0146
  183SLPC   H3X21031   4.851   0.473   9.954 -0.3986 -0.2118  1.3506
  183SLPC   H3Y21032   4.713   0.371   9.950  0.0361  0.7208 -0.9542
  183SLPC   C3421033   4.845   0.334   9.783  0.0147  0.2451 -0.3678
  183SLPC   H4X21034   4.793   0.237   9.770 -0.6401 -0.0896  4.0048
  183SLPC   H4Y21035   4.951   0.330   9.751 -0.3742 -3.0449 -1.4357
  183SLPC   C3521036   4.770   0.435   9.696  0.1404 -0.0653 -0.7322
  183SLPC   H5X21037   4.821   0.533   9.698 -2.4621  1.3195 -0.6662
  183SLPC   H5Y21038   4.663   0.441   9.726  1.0102  0.9174  2.3857
  183SLPC   C3621039   4.759   0.389   9.550  0.9149  0.6342 -0.5075
  183SLPC   H6X21040   4.732   0.281   9.543  1.4906  0.5300 -1.1951
  183SLPC   H6Y21041   4.861   0.395   9.507  0.7052 -1.8658 -1.4634
  183SLPC   C3721042   4.667   0.480   9.470  0.1532 -0.1753  0.3073
  183SLPC   H7X21043   4.705   0.581   9.499 -1.4611  0.0979  1.5243
  183SLPC   H7Y21044   4.561   0.469   9.499 -0.9949 -0.9648 -3.8287
  183SLPC   C3821045   4.687   0.460   9.319 -0.6641  0.4744 -0.5932
  183SLPC   H8X21046   4.603   0.493   9.254  0.2240 -1.5062 -2.8254
  183SLPC   H8Y21047   4.690   0.349   9.310  0.6500  0.3146  1.3987
  183SLPC   C3921048   4.814   0.521   9.259  0.1856  0.6487  0.1340
  183SLPC   H9X21049   4.902   0.455   9.275 -0.1552  0.5814  1.7705
  183SLPC   H9Y21050   4.836   0.620   9.305 -0.1617  0.6678  0.2584
  183SLPC  C31021051   4.809   0.521   9.104  0.1567  0.0904  0.7583
  183SLPC  H10X21052   4.722   0.583   9.072  1.5740  1.3062 -0.8880
  183SLPC  H10Y21053   4.832   0.422   9.060  0.0776  0.6628 -0.6136
  183SLPC  C31121054   4.935   0.604   9.060 -0.2975  0.0458 -0.1155
  183SLPC  H11X21055   5.023   0.544   9.093  0.0794  1.4082  1.3685
  183SLPC  H11Y21056   4.936   0.706   9.104 -2.7596 -0.0698  0.2519
  183SLPC  C31221057   4.936   0.623   8.907  0.4203 -0.1756 -0.8282
  183SLPC  H12X21058   4.836   0.652   8.868 -0.7312 -1.3099  1.2339
  183SLPC  H12Y21059   4.944   0.522   8.863 -1.4653 -0.6723 -0.0772
  183SLPC  C31321060   5.049   0.714   8.870 -0.1487 -0.4857  0.5257
  183SLPC  H13X21061   5.144   0.683   8.919 -0.2079 -0.6378  0.5464
  183SLPC  H13Y21062   5.026   0.812   8.917  1.3871  0.3266 -0.3660
  183SLPC  C31421063   5.064   0.723   8.713 -0.1122 -0.2367  0.1415
  183SLPC  H14X21064   5.069   0.615   8.686 -0.8974 -0.3377  0.3852
  183SLPC  H14Y21065   5.163   0.769   8.692  0.6575 -2.2217 -0.7760
  183SLPC  C31521066   4.953   0.800   8.638 -0.1381  0.5876 -0.1206
  183SLPC  H15X21067   4.926   0.897   8.686  1.7970  0.5266  1.1479
  183SLPC  H15Y21068   4.867   0.730   8.638  0.3621 -0.0709 -2.7074
  183SLPC  C31621069   4.991   0.843   8.496 -0.7586  0.2303  0.8673
  183SLPC  H16X21070   4.904   0.849   8.428  0.4385  1.6811 -0.5817
  183SLPC  H16Y21071   5.046   0.761   8.446 -0.4229  1.3165 -0.5857
  183SLPC  C31721072   5.076   0.974   8.487  0.2513  0.8126  0.0388
  183SLPC  H17X21073   5.151   0.960   8.567 -0.6441  0.5122  0.8339
  183SLPC  H17Y21074   5.006   1.052   8.524  0.7178 -0.0362  2.7991
  183SLPC  C31821075   5.148   0.999   8.356 -0.6883  0.3414  0.0623
  183SLPC  H18X21076   5.079   1.043   8.281 -0.9291  3.3988  2.0101
  183SLPC  H18Y21077   5.195   0.911   8.307  0.4466  1.3287 -0.6403
  183SLPC  H18Z21078   5.220   1.079   8.384  1.5275 -1.1423 -1.1500
  184SLPC     N21079   6.305   5.014  10.857 -0.2504 -0.3374  0.6745
  184SLPC   C1321080   6.265   5.138  10.922 -0.7483 -0.2914 -0.2526
  184SLPC  H13A21081   6.203   5.107  11.005  0.9598 -3.9415 -0.2253
  184SLPC  H13B21082   6.351   5.175  10.975  0.2214 -1.6644 -0.8188
  184SLPC  H13C21083   6.216   5.207  10.855 -0.8674  1.4326  1.5853
  184SLPC   C1421084   6.174   4.954  10.809 -0.1510 -0.0362  0.1991
  184SLPC  H14A21085   6.189   4.862  10.755  2.1373  0.3584  0.1163
  184SLPC  H14B21086   6.106   4.936  10.892  0.0900 -1.8535  0.0178
  184SLPC  H14C21087   6.114   5.020  10.748 -2.1074 -3.8471 -2.1660
  184SLPC   C1521088   6.363   4.918  10.961 -0.1832  0.7515 -1.1430
  184SLPC  H15A21089   6.440   4.966  11.020  0.2825  1.0300 -1.9514
  184SLPC  H15B21090   6.296   4.862  11.024 -0.7325  1.0063 -1.4954
  184SLPC  H15C21091   6.407   4.837  10.906 -2.7677  0.3680 -2.7406
  184SLPC   C1221092   6.410   5.042  10.751 -0.0097 -0.4050 -0.0282
  184SLPC  H12A21093   6.502   5.071  10.799  0.7068 -1.9197 -0.4553
  184SLPC  H12B21094   6.376   5.129  10.698  1.4798 -0.2824 -0.7914
  184SLPC   C1121095   6.438   4.923  10.655 -0.5989 -0.2389  0.1039
  184SLPC  H11A21096   6.492   4.961  10.566  0.2206 -0.1934  0.6202
  184SLPC  H11B21097   6.350   4.877  10.604 -1.9674  2.7816 -0.3387
  184SLPC     P21098   6.661   4.795  10.679  0.0635  0.4679 -0.5238
  184SLPC   O1321099   6.750   4.911  10.698  0.8757  0.4485  0.4490
  184SLPC   O1421100   6.698   4.675  10.759 -0.0657  0.3485 -0.4987
  184SLPC   O1221101   6.509   4.827  10.720 -0.1606  0.4731 -0.2929
  184SLPC   O1121102   6.643   4.755  10.528 -0.4544 -0.2251 -0.1042
  184SLPC    C121103   6.557   4.649  10.495 -0.3283  0.0112  0.0903
  184SLPC    HA21104   6.583   4.556  10.550 -2.8428 -1.4681 -1.1485
  184SLPC    HB21105   6.451   4.666  10.524  0.5162 -0.6241  3.8955
  184SLPC    C221106   6.567   4.616  10.349 -0.4378 -0.3512  0.2524
  184SLPC    HS21107   6.487   4.541  10.329  0.1017 -0.8380 -0.0797
  184SLPC   O2121108   6.702   4.567  10.319 -0.0372  0.1045  0.3490
  184SLPC   C2121109   6.719   4.466  10.235  0.4601 -0.1532  0.0922
  184SLPC   O2221110   6.628   4.408  10.176 -0.2140 -0.0823  0.2642
  184SLPC   C2221111   6.867   4.429  10.232 -0.3784  0.0479  1.2682
  184SLPC   H2R21112   6.917   4.492  10.155 -1.0512 -1.6923 -0.6702
  184SLPC   H2S21113   6.916   4.445  10.330 -0.3064 -1.3451  1.4742
  184SLPC    C321114   6.533   4.744  10.264 -0.5788 -1.3478  0.2417
  184SLPC    HX21115   6.617   4.812  10.290  0.8569 -1.4378 -3.7190
  184SLPC    HY21116   6.435   4.786  10.292  0.2972  1.3182 -0.5590
  184SLPC   O3121117   6.541   4.716  10.130 -0.2159  0.3478  0.1350
  184SLPC   C3121118   6.429   4.670  10.072 -0.1581 -0.4415  0.2250
  184SLPC   O3221119   6.323   4.649  10.127 -0.5094  0.2105 -0.8932
  184SLPC   C3221120   6.448   4.652   9.919  0.4481  0.1457 -0.6563
  184SLPC   H2X21121   6.505   4.741   9.884 -2.0135  2.9347  2.0538
  184SLPC   H2Y21122   6.354   4.647   9.861  0.4733  0.3604 -0.7158
  184SLPC   C2321123   6.894   4.281  10.197  0.1535  0.4982  0.1488
  184SLPC   H3R21124   6.825   4.218  10.258  1.2992  1.8242  2.8900
  184SLPC   H3S21125   6.994   4.258  10.241  0.5997  3.1886  0.6006
  184SLPC   C2421126   6.901   4.243  10.051 -0.0779 -0.2670  0.5483
  184SLPC   H4R21127   6.804   4.275  10.009  1.1370 -0.5572 -2.5980
  184SLPC   H4S21128   6.906   4.134  10.032  2.6485 -0.6300  2.8752
  184SLPC   C2521129   7.021   4.306   9.984  0.4523  0.6375 -0.2034
  184SLPC   H5R21130   7.106   4.286  10.054 -0.6053 -0.2873  0.8444
  184SLPC   H5S21131   7.014   4.414   9.958 -0.4891  0.8535  0.9035
  184SLPC   C2621132   7.041   4.234   9.854  0.2346  0.3446  0.3384
  184SLPC   H6R21133   6.957   4.263   9.787 -1.7547 -2.8123  1.3179
  184SLPC   H6S21134   7.037   4.123   9.868 -2.2486  0.1759 -1.4947
  184SLPC   C2721135   7.174   4.268   9.783 -0.2361  0.0491 -0.6616
  184SLPC   H7R21136   7.262   4.247   9.848 -2.3749 -2.3752  1.5801
  184SLPC   H7S21137   7.180   4.376   9.759  1.2614  0.2831  0.6799
  184SLPC   C2821138   7.197   4.177   9.659  0.8113 -0.0279 -0.2136
  184SLPC   H8R21139   7.102   4.190   9.603  1.6002 -0.6138 -1.7020
  184SLPC   H8S21140   7.204   4.075   9.700 -1.1190 -0.3378 -0.6217
  184SLPC   C2921141   7.319   4.213   9.572 -0.6539  0.1498 -0.2579
  184SLPC   H9R21142   7.413   4.166   9.604  0.3510  1.1119 -1.7662
  184SLPC  C21021143   7.317   4.275   9.450  0.0867  0.0204  0.0953
  184SLPC  H10R21144   7.410   4.295   9.396  0.7330  0.4043  1.3441
  184SLPC  C21121145   7.195   4.326   9.382  0.3071  0.1037  0.4413
  184SLPC  H11R21146   7.230   4.409   9.317  1.0999 -2.2287 -2.1573
  184SLPC  H11S21147   7.120   4.362   9.455 -0.7548 -2.5700  0.7263
  184SLPC  C21221148   7.138   4.223   9.292 -0.7097 -0.3034 -0.4549
  184SLPC  H12R21149   7.105   4.139   9.356  1.1445 -1.4493 -0.9790
  184SLPC  C21321150   7.160   4.204   9.160 -0.5725 -0.4062 -0.2197
  184SLPC  H13R21151   7.110   4.119   9.112 -0.6155 -0.1780 -0.5812
  184SLPC  C21421152   7.238   4.298   9.069 -0.8497 -0.5215 -0.2509
  184SLPC  H14R21153   7.333   4.310   9.126 -1.7808 -3.3944  2.0287
  184SLPC  H14S21154   7.204   4.404   9.070 -0.4188 -0.3175 -3.0838
  184SLPC  C21521155   7.297   4.246   8.940  1.2315  0.1121  0.5334
  184SLPC  H15R21156   7.363   4.158   8.952 -0.2860 -0.8790  1.8327
  184SLPC  H15S21157   7.356   4.323   8.885 -2.0956  2.4125  0.0256
  184SLPC  C21621158   7.183   4.209   8.839 -0.3105  0.4784  0.0112
  184SLPC  H16R21159   7.113   4.295   8.849  2.3461  2.6863  0.1654
  184SLPC  H16S21160   7.129   4.117   8.872  2.4011 -0.9845  0.5329
  184SLPC  C21721161   7.234   4.185   8.705 -0.3933 -0.6404 -0.2509
  184SLPC  H17R21162   7.269   4.081   8.685 -0.5983 -0.4043 -1.8998
  184SLPC  H17S21163   7.330   4.241   8.701 -1.8682  2.2020  2.3954
  184SLPC  C21821164   7.128   4.228   8.608  0.3101  0.4068 -0.3434
  184SLPC  H18R21165   7.165   4.244   8.505  1.3726 -2.1780 -0.4028
  184SLPC  H18S21166   7.099   4.329   8.645  0.0288  0.3098 -0.2970
  184SLPC  H18T21167   7.038   4.163   8.611  0.0563  0.7215 -1.0899
  184SLPC   C3321168   6.543   4.537   9.882  0.5189  0.0461 -0.0182
  184SLPC   H3X21169   6.502   4.442   9.924 -0.5936  0.4634 -0.1424
  184SLPC   H3Y21170   6.634   4.547   9.944  1.5059  1.2278 -1.6060
  184SLPC   C3421171   6.597   4.534   9.738 -0.9762  0.4820  0.2252
  184SLPC   H4X21172   6.663   4.620   9.714  1.3945 -1.4434 -0.3962
  184SLPC   H4Y21173   6.513   4.522   9.666  1.0884 -0.3038 -2.1382
  184SLPC   C3521174   6.692   4.415   9.706 -0.1275 -0.3893  0.1925
  184SLPC   H5X21175   6.636   4.319   9.708  0.3038 -0.6222  1.7133
  184SLPC   H5Y21176   6.765   4.410   9.790  1.2568  2.5880 -0.7663
  184SLPC   C3621177   6.786   4.423   9.575 -0.5173 -0.0427  0.5082
  184SLPC   H6X21178   6.826   4.319   9.568  0.6597  0.5323 -1.8087
  184SLPC   H6Y21179   6.870   4.489   9.608  1.2542 -2.5038  1.0620
  184SLPC   C3721180   6.725   4.473   9.449 -0.4152  0.2504 -0.2755
  184SLPC   H7X21181   6.658   4.559   9.473 -1.7797  0.0951 -3.2971
  184SLPC   H7Y21182   6.662   4.398   9.398 -0.3174 -0.3943  0.5491
  184SLPC   C3821183   6.821   4.533   9.350 -0.1005  0.3653 -0.7548
  184SLPC   H8X21184   6.913   4.470   9.355 -0.3020  0.1981  1.0349
  184SLPC   H8Y21185   6.855   4.631   9.389 -0.9449  0.6713 -0.7817
  184SLPC   C3921186   6.772   4.530   9.204 -0.1346 -0.1300 -0.2047
  184SLPC   H9X21187   6.679   4.591   9.202 -0.4655 -0.5907  0.6990
  184SLPC   H9Y21188   6.734   4.427   9.185  0.5094 -0.2727 -0.7490
  184SLPC  C31021189   6.884   4.576   9.107 -0.6723  0.2253  0.0479
  184SLPC  H10X21190   6.966   4.502   9.104  0.8166  1.8542 -0.6331
  184SLPC  H10Y21191   6.933   4.672   9.137  0.4602 -0.4337  0.3585
  184SLPC  C31121192   6.832   4.595   8.967 -0.0660  0.4630 -0.2718
  184SLPC  H11X21193   6.722   4.615   8.964 -0.5716 -1.4628  2.8926
  184SLPC  H11Y21194   6.836   4.498   8.914  1.6607  0.8466 -0.8588
  184SLPC  C31221195   6.909   4.695   8.877 -0.5666  0.2265  0.2635
  184SLPC  H12X21196   7.016   4.666   8.865  0.1197  3.1888 -1.1895
  184SLPC  H12Y21197   6.908   4.787   8.938  0.3184 -0.8099  1.9132
  184SLPC  C31321198   6.833   4.714   8.745  0.2303 -0.1464 -0.1452
  184SLPC  H13X21199   6.732   4.744   8.779 -0.2683 -1.3587 -0.5272
  184SLPC  H13Y21200   6.831   4.619   8.687  0.2585  1.4968 -2.9253
  184SLPC  C31421201   6.894   4.822   8.662  0.3149  0.0157  0.4610
  184SLPC  H14X21202   7.001   4.794   8.646  0.2462 -0.5845  1.0153
  184SLPC  H14Y21203   6.896   4.913   8.725 -1.1116 -0.1473  0.7632
  184SLPC  C31521204   6.825   4.860   8.534 -0.3383 -0.0003 -0.3593
  184SLPC  H15X21205   6.735   4.923   8.549 -0.3680 -0.0267 -0.4283
  184SLPC  H15Y21206   6.793   4.767   8.482  0.7142 -0.7753  0.3331
  184SLPC  C31621207   6.908   4.942   8.442  0.0156 -0.3347 -0.2844
  184SLPC  H16X21208   7.005   4.893   8.417 -0.6669 -1.1912 -1.3108
  184SLPC  H16Y21209   6.937   5.038   8.489 -1.1759  0.7519 -1.7362
  184SLPC  C31721210   6.836   4.983   8.313  0.4372  0.3886 -0.9135
  184SLPC  H17X21211   6.758   5.059   8.334 -3.2772 -3.6295  0.5366
  184SLPC  H17Y21212   6.784   4.899   8.262  2.3078 -2.7456  2.2021
  184SLPC  C31821213   6.931   5.039   8.212  0.2265 -0.9052 -0.8048
  184SLPC  H18X21214   6.867   5.082   8.131  1.8082  0.5767 -1.3079
  184SLPC  H18Y21215   6.989   4.959   8.162 -1.5341 -1.1127 -2.5910
  184SLPC  H18Z21216   7.007   5.113   8.243  0.3044 -0.9744 -0.8338
  185SLPC     N21217   5.656   1.347   6.041  0.0264  0.1778 -0.2307
  185SLPC   C1321218   5.555   1.437   6.112  0.4022 -0.1023  0.3014
  185SLPC  H13A21219   5.499   1.489   6.036  0.6192 -0.5126 -0.1347
  185SLPC  H13B21220   5.486   1.388   6.180  0.0728  0.7739  0.6012
  185SLPC  H13C21221   5.605   1.521   6.158  1.6342 -0.7506  0.1552
  185SLPC   C1421222   5.747   1.442   5.980 -0.0989  0.1181  0.4463
  185SLPC  H14A21223   5.785   1.512   6.053  1.3556 -0.3939  0.1952
  185SLPC  H14B21224   5.830   1.389   5.934 -1.5957 -0.0212 -2.2414
  185SLPC  H14C21225   5.699   1.493   5.898 -1.2265 -2.8821 -0.8454
  185SLPC   C1521226   5.596   1.256   5.936  0.0518 -0.1428  0.2041
  185SLPC  H15A21227   5.674   1.195   5.892 -0.2788 -1.5858  1.5940
  185SLPC  H15B21228   5.523   1.188   5.977 -1.5954  0.2178 -1.9859
  185SLPC  H15C21229   5.546   1.306   5.854 -0.7732 -3.3730 -1.3726
  185SLPC   C1221230   5.739   1.267   6.144 -0.2732 -0.1232 -0.3640
  185SLPC  H12A21231   5.778   1.338   6.215 -1.4198 -0.5620  0.7034
  185SLPC  H12B21232   5.822   1.213   6.099 -0.6393 -0.8109 -0.2073
  185SLPC   C1121233   5.679   1.148   6.221 -0.3564 -0.2159 -0.0900
  185SLPC  H11A21234   5.763   1.100   6.277 -0.1386 -0.4402 -0.6058
  185SLPC  H11B21235   5.634   1.073   6.152 -0.7219  0.3538 -0.4733
  185SLPC     P21236   5.601   1.277   6.433  0.0920 -0.1474  0.0377
  185SLPC   O1321237   5.669   1.402   6.399  0.2524  0.4930  0.3016
  185SLPC   O1421238   5.474   1.281   6.508  0.3828  0.2451  0.2927
  185SLPC   O1221239   5.578   1.190   6.304  0.2782  0.1281 -0.1209
  185SLPC   O1121240   5.703   1.190   6.515  0.3462 -0.6545  0.0991
  185SLPC    C121241   5.677   1.062   6.574  0.0039  0.2869  0.4258
  185SLPC    HA21242   5.577   1.073   6.621 -0.4205  0.0507 -0.4116
  185SLPC    HB21243   5.656   0.989   6.493 -3.1418  2.0710 -0.4374
  185SLPC    C221244   5.795   1.028   6.664  0.0097 -0.1101  0.1254
  185SLPC    HS21245   5.884   1.000   6.604  0.0052 -0.7888  0.4307
  185SLPC   O2121246   5.763   0.924   6.755 -0.7843  0.7466 -0.1761
  185SLPC   C2121247   5.775   0.798   6.697  0.3617 -0.0390 -0.7137
  185SLPC   O2221248   5.811   0.773   6.580 -0.0511 -0.5284 -0.1977
  185SLPC   C2221249   5.737   0.692   6.800  0.2330 -0.8093  0.4959
  185SLPC   H2R21250   5.626   0.702   6.803  0.4420  1.5147  1.1192
  185SLPC   H2S21251   5.762   0.593   6.756  0.1057 -1.1178  1.1054
  185SLPC    C321252   5.835   1.142   6.765  0.2076  0.1750  0.2271
  185SLPC    HX21253   5.742   1.176   6.815  0.3612 -0.5468  1.0140
  185SLPC    HY21254   5.861   1.235   6.711 -0.7401  0.5514  0.4109
  185SLPC   O3121255   5.930   1.112   6.872  0.0929 -0.4751 -0.4737
  185SLPC   C3121256   6.055   1.087   6.833 -0.3115 -0.9464 -0.1795
  185SLPC   O3221257   6.100   1.123   6.723 -0.2762  0.5681 -0.7177
  185SLPC   C3221258   6.124   1.001   6.934 -0.4251 -0.3927 -0.2230
  185SLPC   H2X21259   6.229   0.980   6.903 -0.0371  1.1473 -0.0011
  185SLPC   H2Y21260   6.071   0.904   6.939 -0.9450  0.0133  3.1980
  185SLPC   C2321261   5.825   0.708   6.936  0.7333  0.4817  0.2035
  185SLPC   H3R21262   5.853   0.815   6.952  1.6987 -0.0254  2.0108
  185SLPC   H3S21263   5.915   0.646   6.916  1.4876  2.3943 -2.6305
  185SLPC   C2421264   5.743   0.686   7.066 -0.1419  0.4098 -0.1920
  185SLPC   H4R21265   5.817   0.678   7.149 -1.4879  0.5061  1.0338
  185SLPC   H4S21266   5.684   0.592   7.064  2.7612 -1.4441 -0.7377
  185SLPC   C2521267   5.637   0.797   7.091  0.1369  0.1361  0.0375
  185SLPC   H5R21268   5.563   0.799   7.008  0.0924 -2.0750 -0.0123
  185SLPC   H5S21269   5.696   0.892   7.094 -0.5491  0.5599  0.1265
  185SLPC   C2621270   5.552   0.764   7.215 -0.0401 -0.0716  0.2644
  185SLPC   H6R21271   5.503   0.666   7.195 -0.1267  0.0809 -0.2656
  185SLPC   H6S21272   5.479   0.844   7.241  0.2918  0.2959  0.0700
  185SLPC   C2721273   5.637   0.743   7.341 -0.4476 -0.3955 -0.1401
  185SLPC   H7R21274   5.726   0.808   7.345 -0.2364 -0.6880 -0.0126
  185SLPC   H7S21275   5.674   0.638   7.339 -1.5539 -0.8033  0.2890
  185SLPC   C2821276   5.561   0.749   7.476  0.0318 -0.6065  0.1718
  185SLPC   H8R21277   5.634   0.723   7.555 -0.1136 -0.6024  0.3066
  185SLPC   H8S21278   5.484   0.670   7.464 -0.9882 -0.2600  3.9794
  185SLPC   C2921279   5.497   0.886   7.519 -0.7614  0.3528  0.7813
  185SLPC   H9R21280   5.445   0.940   7.439 -1.1620  0.5591  1.1750
  185SLPC  C21021281   5.472   0.920   7.650 -0.4479 -0.4796 -0.6512
  185SLPC  H10R21282   5.421   1.016   7.665  1.3179  0.5829 -1.2835
  185SLPC  C21121283   5.512   0.840   7.782 -0.0880 -0.7646  0.3239
  185SLPC  H11R21284   5.585   0.758   7.766 -0.1150 -0.6717 -0.2626
  185SLPC  H11S21285   5.423   0.774   7.798 -0.5613 -0.6300 -1.5852
  185SLPC  C21221286   5.553   0.917   7.903  0.4101 -0.0289 -0.6110
  185SLPC  H12R21287   5.611   1.008   7.884  1.6079 -0.4829  0.7558
  185SLPC  C21321288   5.523   0.886   8.031 -0.4379 -0.0099 -0.0449
  185SLPC  H13R21289   5.577   0.941   8.110  0.9465 -0.7117 -0.4828
  185SLPC  C21421290   5.441   0.769   8.084  0.1153  0.8869  0.2919
  185SLPC  H14R21291   5.428   0.693   8.004  2.0532  0.3848  0.4140
  185SLPC  H14S21292   5.340   0.808   8.109 -1.2145 -2.2798  0.0525
  185SLPC  C21521293   5.513   0.692   8.202 -0.4567 -0.4134  1.0242
  185SLPC  H15R21294   5.534   0.767   8.281  2.1762  0.3422 -0.3313
  185SLPC  H15S21295   5.614   0.666   8.166 -0.9922 -0.0873 -0.7350
  185SLPC  C21621296   5.435   0.576   8.264 -0.4002 -0.9108 -0.2572
  185SLPC  H16R21297   5.518   0.528   8.320  1.7974  1.7059 -1.1400
  185SLPC  H16S21298   5.386   0.512   8.187 -1.1224  0.4718 -0.9768
  185SLPC  C21721299   5.318   0.615   8.352  0.6826  0.5417  0.3954
  185SLPC  H17R21300   5.219   0.622   8.302  1.4143 -0.2770 -1.1870
  185SLPC  H17S21301   5.344   0.710   8.403 -2.2499  0.3402  2.4015
  185SLPC  C21821302   5.269   0.514   8.457 -0.0735  0.2799  0.3394
  185SLPC  H18R21303   5.173   0.554   8.497 -0.3910 -2.6209  2.6846
  185SLPC  H18S21304   5.341   0.497   8.540  1.2351 -1.2608 -1.0954
  185SLPC  H18T21305   5.256   0.415   8.408  0.5470  0.0143  0.7162
  185SLPC   C3321306   6.134   1.065   7.076  0.2364 -0.1159  0.0656
  185SLPC   H3X21307   6.172   1.169   7.069 -0.2145 -0.0151 -0.9454
  185SLPC   H3Y21308   6.197   1.002   7.142 -0.9277  0.7562  2.0454
  185SLPC   C3421309   6.000   1.092   7.155 -0.1675 -0.6769 -0.1655
  185SLPC   H4X21310   5.949   0.993   7.154  0.4318 -1.0078  0.8262
  185SLPC   H4Y21311   5.948   1.173   7.101  1.2937  0.4026  0.0060
  185SLPC   C3521312   6.032   1.117   7.300 -0.2667 -0.8997  0.1165
  185SLPC   H5X21313   6.111   1.195   7.298 -0.4221 -0.7863 -2.0218
  185SLPC   H5Y21314   6.091   1.035   7.346  3.7312  1.1028 -1.2015
  185SLPC   C3621315   5.908   1.142   7.385  1.0826  0.4716  0.3582
  185SLPC   H6X21316   5.811   1.134   7.332  1.0000 -1.7429  0.7878
  185SLPC   H6Y21317   5.912   1.244   7.428  1.0852  0.2182  0.9745
  185SLPC   C3721318   5.918   1.034   7.497 -0.5016  0.3322  0.2123
  185SLPC   H7X21319   6.012   1.050   7.555 -0.0977  1.4821 -0.7291
  185SLPC   H7Y21320   5.925   0.939   7.441  0.2248  1.4304 -1.6063
  185SLPC   C3821321   5.798   1.021   7.589  0.0119 -0.0027 -0.1271
  185SLPC   H8X21322   5.805   0.925   7.644 -0.0598  0.7794  1.2671
  185SLPC   H8Y21323   5.705   1.017   7.528 -0.6143 -0.6882  0.8707
  185SLPC   C3921324   5.775   1.147   7.679  1.3816 -0.5324 -0.0427
  185SLPC   H9X21325   5.676   1.124   7.723  0.3074  0.6887 -1.7732
  185SLPC   H9Y21326   5.769   1.234   7.611 -2.7137 -1.6631 -1.2917
  185SLPC  C31021327   5.874   1.179   7.791 -0.5665 -0.6176  0.0062
  185SLPC  H10X21328   5.970   1.207   7.743  1.2075  0.5141  3.9881
  185SLPC  H10Y21329   5.893   1.087   7.851 -0.3728 -1.4222 -1.2670
  185SLPC  C31121330   5.820   1.288   7.884 -0.4203  0.4812  0.2867
  185SLPC  H11X21331   5.716   1.258   7.907  0.1034 -0.3755  1.6317
  185SLPC  H11Y21332   5.804   1.384   7.830  0.4360 -0.4685 -1.7187
  185SLPC  C31221333   5.895   1.275   8.015  0.6828 -0.2874 -0.2130
  185SLPC  H12X21334   6.005   1.277   8.000  0.4545 -1.3810 -2.1725
  185SLPC  H12Y21335   5.845   1.190   8.065 -2.6512  2.0037  0.5672
  185SLPC  C31321336   5.874   1.409   8.100  0.3899 -0.1678 -0.2029
  185SLPC  H13X21337   5.766   1.415   8.122  0.2586 -0.7782 -0.6628
  185SLPC  H13Y21338   5.898   1.506   8.051  1.7165  0.1781  1.1013
  185SLPC  C31421339   5.957   1.404   8.230 -0.5103 -0.1449 -0.1384
  185SLPC  H14X21340   6.065   1.397   8.204 -0.2051 -0.6272  1.1777
  185SLPC  H14Y21341   5.939   1.306   8.280 -1.5545  0.6156  0.9954
  185SLPC  C31521342   5.961   1.517   8.336 -0.1245  0.4427  0.0421
  185SLPC  H15X21343   5.973   1.616   8.287 -0.2804 -0.3954 -1.7572
  185SLPC  H15Y21344   6.049   1.510   8.403 -3.0057  1.6975  4.1410
  185SLPC  C31621345   5.835   1.510   8.423 -0.6344  0.0818  0.3089
  185SLPC  H16X21346   5.832   1.419   8.487  1.6103  0.6512  1.2853
  185SLPC  H16Y21347   5.748   1.513   8.353 -2.3346  0.8718  2.4194
  185SLPC  C31721348   5.835   1.629   8.516  0.3354 -0.7900  0.6392
  185SLPC  H17X21349   5.833   1.713   8.442 -0.2810 -0.7370  0.7119
  185SLPC  H17Y21350   5.929   1.633   8.575  2.2859 -0.6299 -2.3689
  185SLPC  C31821351   5.712   1.638   8.606 -0.4587 -0.4369  0.0760
  185SLPC  H18X21352   5.691   1.736   8.653  1.6201  0.4071 -0.6964
  185SLPC  H18Y21353   5.732   1.568   8.690 -1.2617 -1.3653 -0.4847
  185SLPC  H18Z21354   5.619   1.607   8.554  0.2390  0.3567 -1.6805
  186SLPC     N21355   0.309   3.133   6.042 -0.7109  0.0375 -0.6481
  186SLPC   C1321356   0.418   3.144   5.941 -0.0873 -0.1821  0.0826
  186SLPC  H13A21357   0.381   3.121   5.842  1.4051  1.1818 -0.8036
  186SLPC  H13B21358   0.450   3.247   5.936  0.4849 -0.3853 -0.5294
  186SLPC  H13C21359   0.497   3.079   5.975 -0.4199 -0.4712  0.3192
  186SLPC   C1421360   0.289   2.992   6.093  0.8215 -0.0016 -0.0523
  186SLPC  H14A21361   0.378   2.955   6.141  0.6775  0.5550  0.6552
  186SLPC  H14B21362   0.214   2.995   6.171  1.1542 -3.2803  0.4546
  186SLPC  H14C21363   0.263   2.920   6.017 -1.7347 -0.7150  1.4589
  186SLPC   C1521364   0.187   3.190   5.971  0.6521 -0.3963  0.8044
  186SLPC  H15A21365   0.144   3.133   5.889  1.4869 -1.2325  0.9386
  186SLPC  H15B21366   0.104   3.198   6.040 -0.9775 -1.0959 -1.0223
  186SLPC  H15C21367   0.209   3.289   5.934 -1.2168 -0.0725  0.5139
  186SLPC   C1221368   0.335   3.227   6.163  0.2847 -0.8166  0.3082
  186SLPC  H12A21369   0.367   3.325   6.133 -0.1455 -0.1870  1.8781
  186SLPC  H12B21370   0.422   3.181   6.207  1.2262 -0.7575 -1.4590
  186SLPC   C1121371   0.231   3.228   6.282  0.0494  0.2823 -0.2866
  186SLPC  H11A21372   0.283   3.289   6.358  0.9221 -0.7234 -0.0533
  186SLPC  H11B21373   0.207   3.127   6.321 -1.7355  1.1247  0.8462
  186SLPC     P21374   0.107   3.445   6.191 -0.1672 -0.1555 -0.2093
  186SLPC   O1321375   0.241   3.493   6.161  0.1091 -0.1280  0.0718
  186SLPC   O1421376   0.017   3.428   6.077 -0.1639  0.4715  0.0519
  186SLPC   O1221377   0.113   3.300   6.253 -0.2428  0.3577 -0.0580
  186SLPC   O1121378   0.039   3.517   6.312 -0.1065 -0.1543  0.2903
  186SLPC    C121379  -0.093   3.484   6.368 -0.0020 -0.3989 -0.0674
  186SLPC    HA21380  -0.159   3.562   6.323 -2.3256 -1.2085  1.8761
  186SLPC    HB21381  -0.130   3.383   6.341 -1.8640  0.6999 -1.8022
  186SLPC    C221382  -0.102   3.503   6.522  0.7209 -0.6601 -0.8507
  186SLPC    HS21383  -0.079   3.610   6.542 -0.0779 -0.6953  0.2843
  186SLPC   O2121384  -0.003   3.424   6.590  0.2553  0.4180  0.8039
  186SLPC   C2121385  -0.008   3.285   6.588  0.2941 -0.3200  0.1385
  186SLPC   O2221386  -0.100   3.219   6.537  0.1031 -0.0452 -0.7918
  186SLPC   C2221387   0.126   3.242   6.659  0.5417 -0.3786 -0.2975
  186SLPC   H2R21388   0.207   3.254   6.584  1.4776 -0.6415  0.6584
  186SLPC   H2S21389   0.140   3.310   6.746 -1.0805  0.8985 -1.0204
  186SLPC    C321390  -0.250   3.475   6.571  0.7036 -0.3013 -0.4724
  186SLPC    HX21391  -0.280   3.368   6.573  2.0528 -0.6900 -0.5123
  186SLPC    HY21392  -0.323   3.522   6.501  0.7488  1.2933  0.5133
  186SLPC   O3121393  -0.264   3.526   6.703 -1.0115 -0.2794 -0.1431
  186SLPC   C3121394  -0.266   3.442   6.800 -0.4288  1.0797 -0.4776
  186SLPC   O3221395  -0.270   3.321   6.794  0.4685  0.5271 -0.3281
  186SLPC   C3221396  -0.281   3.518   6.932 -0.1356  0.4020  0.4837
  186SLPC   H2X21397  -0.382   3.564   6.926  0.1210  0.9881  0.6890
  186SLPC   H2Y21398  -0.204   3.596   6.944 -1.4622  2.0225 -1.3281
  186SLPC   C2321399   0.125   3.097   6.706 -0.5054 -0.0975 -0.5693
  186SLPC   H3R21400   0.111   3.034   6.616  4.2988 -1.7813 -0.2348
  186SLPC   H3S21401   0.047   3.070   6.782 -0.7308  0.9967 -0.3929
  186SLPC   C2421402   0.265   3.060   6.766  0.1913  0.8478  0.2757
  186SLPC   H4R21403   0.346   3.099   6.701  2.2029  1.3133  2.9628
  186SLPC   H4S21404   0.287   2.951   6.768 -0.3642  0.6993 -1.2199
  186SLPC   C2521405   0.282   3.110   6.913 -0.7484 -0.2779  0.1747
  186SLPC   H5R21406   0.185   3.077   6.956 -1.3388  0.8718 -0.2510
  186SLPC   H5S21407   0.302   3.219   6.918 -0.8303 -0.3298  1.9913
  186SLPC   C2621408   0.382   3.036   7.003  0.0870 -0.2050  0.8656
  186SLPC   H6R21409   0.419   2.945   6.951  0.5244  1.2329 -1.4460
  186SLPC   H6S21410   0.331   2.999   7.094 -1.5176  0.3676  0.2163
  186SLPC   C2721411   0.505   3.120   7.058  0.2227  0.0320  0.3983
  186SLPC   H7R21412   0.468   3.215   7.102 -1.7288 -0.9887  1.0298
  186SLPC   H7S21413   0.580   3.146   6.980  0.3536 -2.4550 -0.3451
  186SLPC   C2821414   0.581   3.034   7.159  0.2259 -0.0071 -0.7909
  186SLPC   H8R21415   0.609   2.937   7.114  3.1472 -0.1629  1.1645
  186SLPC   H8S21416   0.503   3.019   7.237  1.9747  1.9251  1.4252
  186SLPC   C2921417   0.696   3.105   7.234 -0.2588  0.3063 -0.2346
  186SLPC   H9R21418   0.772   3.118   7.154 -0.5717 -1.5073 -0.8509
  186SLPC  C21021419   0.710   3.165   7.354  0.2320  0.7517  0.5101
  186SLPC  H10R21420   0.804   3.219   7.374  0.1191  2.1574 -2.4558
  186SLPC  C21121421   0.605   3.156   7.461 -0.3386 -0.5197  1.3167
  186SLPC  H11R21422   0.503   3.130   7.424 -0.3268  0.1708  0.7792
  186SLPC  H11S21423   0.589   3.257   7.505 -2.0892 -1.0510  1.9082
  186SLPC  C21221424   0.634   3.062   7.568 -0.2711  0.1335 -0.2338
  186SLPC  H12R21425   0.644   2.960   7.527  0.6699  0.8166 -1.7518
  186SLPC  C21321426   0.642   3.085   7.703 -0.4686  0.0050  0.6892
  186SLPC  H13R21427   0.678   3.006   7.771  0.3423  0.8504  1.2385
  186SLPC  C21421428   0.615   3.221   7.777  0.1183  0.8443  0.3347
  186SLPC  H14R21429   0.622   3.303   7.702  0.4092 -0.5624 -1.2144
  186SLPC  H14S21430   0.690   3.233   7.858  0.7786 -0.9815  0.0162
  186SLPC  C21521431   0.476   3.209   7.839  0.2736 -0.1952 -0.5872
  186SLPC  H15R21432   0.394   3.208   7.764 -1.2868  0.3083  1.0949
  186SLPC  H15S21433   0.467   3.304   7.895 -0.5013 -1.1604  0.9515
  186SLPC  C21621434   0.452   3.082   7.925  0.2077 -0.1877  0.0916
  186SLPC  H16R21435   0.520   3.085   8.013 -0.9326 -1.5078  1.0440
  186SLPC  H16S21436   0.458   2.987   7.867  0.8442 -0.7879  1.1343
  186SLPC  C21721437   0.305   3.082   7.972 -0.1443 -0.5336  0.5422
  186SLPC  H17R21438   0.238   3.090   7.884  0.5348 -3.9764 -0.3790
  186SLPC  H17S21439   0.305   3.170   8.039 -0.3872 -0.8341  0.9355
  186SLPC  C21821440   0.254   2.954   8.041 -0.4842  0.2601  0.2783
  186SLPC  H18R21441   0.300   2.863   7.997 -3.4646 -1.5527  0.7257
  186SLPC  H18S21442   0.144   2.946   8.025 -0.5134  0.6156  0.3021
  186SLPC  H18T21443   0.271   2.956   8.151  0.4374  1.8358  0.1166
  186SLPC   C3321444  -0.245   3.418   7.045 -0.4824  0.0429 -0.0213
  186SLPC   H3X21445  -0.141   3.381   7.035 -0.5454 -0.3166  0.6286
  186SLPC   H3Y21446  -0.319   3.336   7.048  0.6509 -1.0142 -0.6869
  186SLPC   C3421447  -0.273   3.492   7.178 -0.1255  0.4907  0.9748
  186SLPC   H4X21448  -0.375   3.536   7.176  0.3910  1.6548 -0.5895
  186SLPC   H4Y21449  -0.205   3.578   7.196 -0.1518  0.6135  0.4775
  186SLPC   C3521450  -0.251   3.391   7.295 -0.0250  0.4657  0.8071
  186SLPC   H5X21451  -0.150   3.344   7.283 -0.0890  0.6374 -0.4019
  186SLPC   H5Y21452  -0.332   3.315   7.296  0.9667 -0.6774 -1.6981
  186SLPC   C3621453  -0.239   3.460   7.430  0.5765 -0.0988 -0.5567
  186SLPC   H6X21454  -0.334   3.509   7.461  1.4769 -1.4507  4.7000
  186SLPC   H6Y21455  -0.165   3.542   7.415 -0.1317  1.3652  3.3310
  186SLPC   C3721456  -0.214   3.360   7.548  0.8062 -0.5826  0.9558
  186SLPC   H7X21457  -0.109   3.326   7.534  0.5911 -1.1467  0.6839
  186SLPC   H7Y21458  -0.278   3.271   7.530  1.3061 -0.4580 -1.6301
  186SLPC   C3821459  -0.228   3.434   7.685  0.7289  0.1131  0.2383
  186SLPC   H8X21460  -0.334   3.460   7.703  0.8468  0.5746  0.2553
  186SLPC   H8Y21461  -0.189   3.538   7.690  2.1908 -0.4310  0.4257
  186SLPC   C3921462  -0.167   3.353   7.801  0.3722  0.3332 -0.3248
  186SLPC   H9X21463  -0.059   3.330   7.787  0.9883  2.2079  1.0845
  186SLPC   H9Y21464  -0.224   3.259   7.817 -1.2294  0.8906 -2.5601
  186SLPC  C31021465  -0.192   3.423   7.933 -0.1326 -0.8897 -0.2667
  186SLPC  H10X21466  -0.300   3.448   7.937  0.6074  2.2666  0.8532
  186SLPC  H10Y21467  -0.141   3.522   7.937  0.4211 -1.2035  0.5570
  186SLPC  C31121468  -0.157   3.346   8.063  0.2993 -0.3203  0.0577
  186SLPC  H11X21469  -0.194   3.243   8.046 -0.1260 -0.1863  0.1466
  186SLPC  H11Y21470  -0.208   3.403   8.144 -2.0250 -0.6544 -1.1214
  186SLPC  C31221471  -0.003   3.335   8.082  0.1264 -0.3209 -0.2911
  186SLPC  H12X21472   0.038   3.437   8.066 -0.7019 -0.0316 -0.6390
  186SLPC  H12Y21473   0.036   3.270   8.002 -1.0123 -0.4456 -0.7603
  186SLPC  C31321474   0.024   3.287   8.225 -0.6355  0.9019  0.0055
  186SLPC  H13X21475  -0.038   3.347   8.296  0.3236  0.7463  0.9725
  186SLPC  H13Y21476   0.131   3.310   8.243 -0.6197  0.6500  0.2314
  186SLPC  C31421477   0.004   3.135   8.233 -0.4056  0.3430 -0.0920
  186SLPC  H14X21478   0.080   3.105   8.159 -1.2550 -0.3714 -0.6899
  186SLPC  H14Y21479  -0.083   3.101   8.173  1.3930 -1.3829 -1.7699
  186SLPC  C31521480   0.031   3.070   8.369 -0.1152  0.4289 -0.6154
  186SLPC  H15X21481  -0.040   3.104   8.448  1.2942 -0.4164  1.0466
  186SLPC  H15Y21482   0.130   3.107   8.402  0.5492  0.2142 -2.3015
  186SLPC  C31621483   0.030   2.916   8.350 -0.0932  0.0985  0.1356
  186SLPC  H16X21484   0.114   2.889   8.282 -0.7724 -1.1915 -0.2153
  186SLPC  H16Y21485  -0.062   2.900   8.289 -0.6608  2.5759  0.2827
  186SLPC  C31721486   0.019   2.841   8.474  0.4968 -0.6729  0.4985
  186SLPC  H17X21487  -0.080   2.854   8.523  0.4162  0.2312  0.1149
  186SLPC  H17Y21488   0.102   2.875   8.539  0.1174 -0.6062  0.9472
  186SLPC  C31821489   0.055   2.694   8.439 -0.3794  0.2628 -0.8286
  186SLPC  H18X21490   0.063   2.633   8.531  0.8748  0.2742 -0.9302
  186SLPC  H18Y21491   0.152   2.701   8.386  0.2458 -0.8456  0.1588
  186SLPC  H18Z21492  -0.026   2.647   8.379 -1.6873 -1.8535  2.4104
  187SLPC     N21493   6.796   0.498   6.275  0.6843  0.1213 -0.3872
  187SLPC   C1321494   6.718   0.587   6.362 -0.4351  0.4969  0.8646
  187SLPC  H13A21495   6.611   0.570   6.355 -0.5134  1.5938 -1.1847
  187SLPC  H13B21496   6.749   0.574   6.464  1.1527  1.6164  0.5379
  187SLPC  H13C21497   6.744   0.690   6.341  0.3046  0.0514 -0.4439
  187SLPC   C1421498   6.934   0.554   6.268 -0.7452  0.4644 -0.5425
  187SLPC  H14A21499   6.999   0.495   6.205 -2.1064 -1.3486 -0.3149
  187SLPC  H14B21500   6.922   0.652   6.225 -2.2574  0.5755  0.0860
  187SLPC  H14C21501   6.969   0.558   6.370 -1.1258  0.1545 -0.3977
  187SLPC   C1521502   6.732   0.500   6.134  0.3549  0.3804 -0.0117
  187SLPC  H15A21503   6.687   0.597   6.116  2.8726  1.6311  0.2171
  187SLPC  H15B21504   6.810   0.482   6.061  0.1612  0.4497 -0.2377
  187SLPC  H15C21505   6.652   0.428   6.128  0.9423 -0.1717 -1.6591
  187SLPC   C1221506   6.797   0.358   6.340 -0.0146  0.3620  0.0179
  187SLPC  H12A21507   6.855   0.297   6.273  0.6302 -2.1699  2.7909
  187SLPC  H12B21508   6.698   0.321   6.314  1.6588 -1.3040 -4.5692
  187SLPC   C1121509   6.826   0.332   6.493 -0.1943  0.5351  0.7081
  187SLPC  H11A21510   6.792   0.229   6.519  2.0978 -0.1939  0.8955
  187SLPC  H11B21511   6.756   0.395   6.552  0.5042  1.4082  0.6002
  187SLPC     P21512   7.070   0.246   6.505 -0.0609 -0.1077  0.0623
  187SLPC   O1321513   7.026   0.145   6.400 -0.3240 -0.6749 -0.5452
  187SLPC   O1421514   7.205   0.310   6.490 -0.4252  0.1776 -0.6610
  187SLPC   O1221515   6.961   0.361   6.522  0.0911 -0.3556 -0.6533
  187SLPC   O1121516   7.055   0.182   6.651 -0.0536 -0.1551  0.0146
  187SLPC    C121517   7.155   0.098   6.700  0.1284 -0.3886  0.3079
  187SLPC    HA21518   7.197   0.037   6.617 -0.1816  0.1779 -0.2697
  187SLPC    HB21519   7.235   0.159   6.747 -0.0012 -0.2514  0.3492
  187SLPC    C221520   7.102  -0.009   6.806  0.2249 -1.8639 -0.3848
  187SLPC    HS21521   7.018  -0.062   6.755 -1.0492 -0.6628  0.4313
  187SLPC   O2121522   7.079   0.060   6.932 -0.0215 -0.2302 -0.1680
  187SLPC   C2121523   6.965   0.037   6.986  0.3264  0.1500  0.6563
  187SLPC   O2221524   6.882  -0.049   6.953 -0.1070 -0.1666  0.4425
  187SLPC   C2221525   6.947   0.098   7.124 -0.2890 -0.6274 -0.3435
  187SLPC   H2R21526   7.007   0.192   7.126  0.5865 -1.1407 -1.7950
  187SLPC   H2S21527   6.843   0.132   7.145 -0.7862 -3.6051  2.2574
  187SLPC    C321528   7.208  -0.112   6.820  0.0404 -0.0107  0.9805
  187SLPC    HX21529   7.310  -0.068   6.819  0.3128 -0.6316  0.7245
  187SLPC    HY21530   7.206  -0.180   6.731 -1.7840 -1.7325  2.2869
  187SLPC   O3121531   7.186  -0.184   6.946 -0.5268  0.1103 -0.0298
  187SLPC   C3121532   7.115  -0.290   6.933  0.0680  0.6047 -0.8045
  187SLPC   O3221533   7.048  -0.324   6.836  0.5192  0.3202 -0.1030
  187SLPC   C3221534   7.120  -0.377   7.058 -0.3112 -0.2162  0.1975
  187SLPC   H2X21535   7.064  -0.326   7.139  0.5885  1.9251 -0.4951
  187SLPC   H2Y21536   7.223  -0.387   7.099 -0.0408  0.6789 -0.2596
  187SLPC   C2321537   6.980   0.006   7.248 -0.5130  0.3633 -0.4973
  187SLPC   H3R21538   6.913  -0.082   7.242 -0.4040  0.3648 -2.2470
  187SLPC   H3S21539   6.962   0.057   7.345  1.4719 -0.7560  0.4933
  187SLPC   C2421540   7.131  -0.032   7.259 -0.2708  0.0870  0.6665
  187SLPC   H4R21541   7.195   0.043   7.209 -1.4397 -0.3855 -1.6262
  187SLPC   H4S21542   7.136  -0.126   7.200 -3.2431  1.4680 -1.9312
  187SLPC   C2521543   7.160  -0.055   7.405 -0.2630  0.0101 -0.7258
  187SLPC   H5R21544   7.174   0.042   7.458 -1.2520  0.2575 -0.9058
  187SLPC   H5S21545   7.263  -0.097   7.400 -0.2013  0.3731 -3.0884
  187SLPC   C2621546   7.065  -0.154   7.487 -0.5413 -0.0880 -0.5832
  187SLPC   H6R21547   7.019  -0.230   7.420 -0.4657 -0.2733 -0.4236
  187SLPC   H6S21548   6.989  -0.080   7.522  1.5162  1.7849  0.0280
  187SLPC   C2721549   7.132  -0.212   7.611 -0.1039 -0.0122 -0.3824
  187SLPC   H7R21550   7.224  -0.255   7.566 -0.5386 -0.4037 -0.9066
  187SLPC   H7S21551   7.075  -0.292   7.664  0.4619 -0.0140  0.2201
  187SLPC   C2821552   7.159  -0.111   7.729 -0.2724 -0.6080  0.1609
  187SLPC   H8R21553   7.060  -0.078   7.767 -1.5155 -1.2283 -2.4601
  187SLPC   H8S21554   7.197  -0.012   7.694  0.0833 -0.5555  0.6892
  187SLPC   C2921555   7.263  -0.156   7.827 -0.5660  0.0738  0.0775
  187SLPC   H9R21556   7.364  -0.169   7.785 -0.9885  1.1992 -1.3229
  187SLPC  C21021557   7.254  -0.166   7.962  0.4553  0.3506 -0.3666
  187SLPC  H10R21558   7.338  -0.217   8.011  0.5993  0.7016 -0.2473
  187SLPC  C21121559   7.133  -0.146   8.044  0.1835 -0.0677  0.0225
  187SLPC  H11R21560   7.056  -0.092   7.985 -0.2214 -1.1105 -0.4127
  187SLPC  H11S21561   7.153  -0.093   8.140  1.3230  0.1541 -0.3365
  187SLPC  C21221562   7.074  -0.279   8.081 -0.3759  0.3313  0.1895
  187SLPC  H12R21563   7.078  -0.360   8.008  0.9666  0.3621  0.2141
  187SLPC  C21321564   6.999  -0.306   8.182 -0.6894 -0.1910 -0.8604
  187SLPC  H13R21565   6.957  -0.407   8.198  0.4119 -0.6733 -0.9507
  187SLPC  C21421566   6.960  -0.206   8.286  0.3733  0.1125 -0.6272
  187SLPC  H14R21567   6.933  -0.111   8.233 -2.6142 -0.0158  0.5987
  187SLPC  H14S21568   7.043  -0.184   8.356  0.4613 -0.4021 -0.5685
  187SLPC  C21521569   6.848  -0.276   8.374 -0.3905 -0.1493  0.5847
  187SLPC  H15R21570   6.882  -0.373   8.416  0.1962 -0.7492 -1.2370
  187SLPC  H15S21571   6.755  -0.292   8.316 -0.0243  0.3145 -0.1287
  187SLPC  C21621572   6.832  -0.193   8.500 -0.2857  0.4058 -0.5332
  187SLPC  H16R21573   6.794  -0.092   8.476 -0.5389  0.4362 -0.0070
  187SLPC  H16S21574   6.931  -0.166   8.542 -0.0719 -0.2594 -0.5939
  187SLPC  C21721575   6.755  -0.257   8.607 -0.2900  0.0442  0.2021
  187SLPC  H17R21576   6.781  -0.365   8.610 -0.9881 -0.1031  1.1290
  187SLPC  H17S21577   6.650  -0.238   8.575  0.8034 -0.1477 -3.8136
  187SLPC  C21821578   6.779  -0.203   8.741 -0.2298  0.7932 -0.3575
  187SLPC  H18R21579   6.888  -0.212   8.759 -0.3454 -1.1331 -0.4890
  187SLPC  H18S21580   6.745  -0.277   8.817  2.4852  0.9765  1.1098
  187SLPC  H18T21581   6.739  -0.101   8.757 -1.9522  0.0419  0.2200
  187SLPC   C3321582   7.066  -0.513   7.040  0.5560  0.0301 -0.0672
  187SLPC   H3X21583   7.116  -0.555   6.950 -1.9020  0.6761 -1.7830
  187SLPC   H3Y21584   6.963  -0.537   7.006  0.4075  0.1637  0.2897
  187SLPC   C3421585   7.083  -0.612   7.160 -0.2781  0.0215  1.1408
  187SLPC   H4X21586   7.185  -0.600   7.201 -0.6755 -0.9204  2.4829
  187SLPC   H4Y21587   7.073  -0.717   7.126  0.7570 -0.4449  2.2323
  187SLPC   C3521588   6.982  -0.601   7.270  0.0796  0.1911  0.1188
  187SLPC   H5X21589   6.880  -0.615   7.229 -0.2140  1.4101  0.4265
  187SLPC   H5Y21590   6.990  -0.498   7.310 -1.2047  0.4751 -0.3391
  187SLPC   C3621591   7.015  -0.703   7.380  0.4879  0.0969 -0.3971
  187SLPC   H6X21592   7.113  -0.672   7.424 -0.2754 -0.1950  1.5225
  187SLPC   H6Y21593   7.036  -0.799   7.328 -2.1547 -0.1232 -1.1297
  187SLPC   C3721594   6.899  -0.707   7.477 -0.1762  0.6251 -0.0796
  187SLPC   H7X21595   6.810  -0.652   7.437  1.9914  2.5859 -2.3742
  187SLPC   H7Y21596   6.861  -0.810   7.489  0.4834  0.8017  4.0193
  187SLPC   C3821597   6.937  -0.655   7.615 -0.4628 -0.6915  0.0739
  187SLPC   H8X21598   6.844  -0.661   7.675  0.7780  1.6677  2.2792
  187SLPC   H8Y21599   6.961  -0.547   7.610  1.1758 -0.9930  1.1531
  187SLPC   C3921600   7.059  -0.725   7.682  0.2881 -0.3750 -0.1914
  187SLPC   H9X21601   7.150  -0.700   7.623 -0.0959  0.1862 -0.5491
  187SLPC   H9Y21602   7.049  -0.835   7.673  1.7747 -0.4126 -1.6459
  187SLPC  C31021603   7.088  -0.688   7.835  0.5674 -0.0826  0.7983
  187SLPC  H10X21604   7.101  -0.578   7.843 -1.4989  0.1484  1.5112
  187SLPC  H10Y21605   7.184  -0.734   7.865 -0.3061 -1.8886  0.9113
  187SLPC  C31121606   6.980  -0.716   7.931  0.2761  0.8287 -0.2743
  187SLPC  H11X21607   6.963  -0.826   7.926 -0.9874  1.0366 -0.7984
  187SLPC  H11Y21608   6.890  -0.663   7.893 -0.7701  0.6631  1.8933
  187SLPC  C31221609   7.002  -0.681   8.078 -0.5448  0.2482  0.2326
  187SLPC  H12X21610   7.024  -0.574   8.098  1.5742 -0.2391  0.6298
  187SLPC  H12Y21611   7.090  -0.738   8.114 -0.8690 -0.9238 -0.7707
  187SLPC  C31321612   6.877  -0.722   8.148  0.8440  0.1171 -0.6257
  187SLPC  H13X21613   6.841  -0.823   8.119 -0.7863  0.2486  0.8542
  187SLPC  H13Y21614   6.791  -0.660   8.117 -0.9280 -2.4762 -1.0613
  187SLPC  C31421615   6.889  -0.729   8.305  0.2915 -0.5769 -0.2233
  187SLPC  H14X21616   6.942  -0.638   8.342  1.1815 -1.1986  0.0549
  187SLPC  H14Y21617   6.947  -0.818   8.336  3.1579  0.0306 -3.5356
  187SLPC  C31521618   6.749  -0.725   8.369 -0.5300  0.0410 -0.6389
  187SLPC  H15X21619   6.691  -0.817   8.347 -0.0682 -0.0857 -1.3430
  187SLPC  H15Y21620   6.696  -0.640   8.321 -1.8085 -0.4405 -0.0972
  187SLPC  C31621621   6.747  -0.707   8.522  0.1925  0.0025 -0.1749
  187SLPC  H16X21622   6.800  -0.613   8.550 -0.3001 -0.2400  1.6333
  187SLPC  H16Y21623   6.812  -0.785   8.568 -0.9537  0.8433  2.9982
  187SLPC  C31721624   6.609  -0.718   8.576 -0.3508  0.2190 -0.0105
  187SLPC  H17X21625   6.580  -0.824   8.566 -0.0920 -0.0668  2.0624
  187SLPC  H17Y21626   6.543  -0.650   8.518 -0.3536 -0.4883 -0.8346
  187SLPC  C31821627   6.599  -0.674   8.723 -0.3852 -0.2345  0.4975
  187SLPC  H18X21628   6.669  -0.729   8.790 -1.3935  1.1119  2.7082
  187SLPC  H18Y21629   6.491  -0.671   8.748 -1.2468 -1.8257 -2.6724
  187SLPC  H18Z21630   6.631  -0.568   8.721 -0.0299 -0.3539 -0.3363
  188SLPC     N21631   1.564   1.123   6.171 -0.1387 -0.3801 -0.0133
  188SLPC   C1321632   1.679   1.219   6.189  1.0451 -0.0858  0.1223
  188SLPC  H13A21633   1.678   1.287   6.105  1.6273  0.2587  0.3925
  188SLPC  H13B21634   1.667   1.257   6.290 -2.4153  0.8704 -0.5724
  188SLPC  H13C21635   1.771   1.164   6.191  1.9765  1.3750 -1.5898
  188SLPC   C1421636   1.590   1.030   6.062  0.9452  0.4878 -0.0184
  188SLPC  H14A21637   1.693   0.998   6.065  0.4180 -1.1724  4.8394
  188SLPC  H14B21638   1.532   0.939   6.068  0.5252  0.6864 -1.0673
  188SLPC  H14C21639   1.562   1.077   5.969 -0.0411  1.7616  0.9031
  188SLPC   C1521640   1.435   1.185   6.129  0.0263 -0.0616  0.4506
  188SLPC  H15A21641   1.443   1.230   6.031  1.1248  0.5487  0.8102
  188SLPC  H15B21642   1.363   1.104   6.127  0.0254 -0.1457  2.4945
  188SLPC  H15C21643   1.404   1.261   6.200  2.6716  1.4011  0.0939
  188SLPC   C1221644   1.547   1.049   6.301 -0.1784 -0.2774  0.0463
  188SLPC  H12A21645   1.640   1.017   6.344 -1.3557 -1.3546  1.8942
  188SLPC  H12B21646   1.493   0.958   6.277  0.0603 -0.6339  0.8400
  188SLPC   C1121647   1.465   1.114   6.415  0.0466 -0.6333 -0.8650
  188SLPC  H11A21648   1.449   1.039   6.496  2.6126  0.9600  1.1967
  188SLPC  H11B21649   1.360   1.133   6.384 -0.1450 -1.7146 -0.9113
  188SLPC     P21650   1.638   1.224   6.581 -0.1965  0.3807  0.5225
  188SLPC   O1321651   1.704   1.092   6.576  0.0621 -0.0585 -0.5400
  188SLPC   O1421652   1.734   1.342   6.577  0.1597  0.8955  0.0986
  188SLPC   O1221653   1.531   1.233   6.465 -0.1217 -0.5222 -0.4170
  188SLPC   O1121654   1.544   1.240   6.714 -0.7259 -0.6941  0.3174
  188SLPC    C121655   1.412   1.286   6.692 -0.0453 -0.5197  0.6067
  188SLPC    HA21656   1.378   1.337   6.599  1.9214 -2.5091 -1.2488
  188SLPC    HB21657   1.345   1.203   6.722 -0.4972 -0.9800 -1.5846
  188SLPC    C221658   1.374   1.400   6.794 -0.0198 -0.3051 -0.0959
  188SLPC    HS21659   1.445   1.485   6.778  0.3771 -0.9652 -1.9547
  188SLPC   O2121660   1.390   1.344   6.923  0.2494 -0.1166  0.0537
  188SLPC   C2121661   1.493   1.381   6.994 -0.1044 -0.4795 -0.0141
  188SLPC   O2221662   1.572   1.468   6.962 -0.3794 -0.1413 -0.7082
  188SLPC   C2221663   1.498   1.306   7.131  0.0784 -0.3348 -0.5150
  188SLPC   H2R21664   1.441   1.211   7.120 -1.3021  0.4581 -0.2343
  188SLPC   H2S21665   1.604   1.284   7.155  0.3834 -0.8577 -2.2811
  188SLPC    C321666   1.239   1.469   6.772  0.4097  0.0768 -0.0645
  188SLPC    HX21667   1.156   1.395   6.762  1.7981 -1.3180 -1.6170
  188SLPC    HY21668   1.244   1.519   6.672 -1.1777  2.1396  0.8563
  188SLPC   O3121669   1.210   1.570   6.864 -0.5080  0.1818 -0.6979
  188SLPC   C3121670   1.124   1.544   6.966  0.0363 -0.5851 -0.7878
  188SLPC   O3221671   1.079   1.438   6.999 -0.3818 -0.1718 -0.3741
  188SLPC   C3221672   1.088   1.680   7.022  0.4436 -0.3360 -0.1874
  188SLPC   H2X21673   1.027   1.716   6.936  0.6109  1.8425  0.5845
  188SLPC   H2Y21674   1.182   1.738   7.026  0.3482 -0.3363  3.1062
  188SLPC   C2321675   1.453   1.406   7.239  0.0623 -0.0380 -0.1494
  188SLPC   H3R21676   1.353   1.451   7.220 -0.3845 -1.3481 -0.9261
  188SLPC   H3S21677   1.525   1.491   7.244  3.7325 -3.0226 -0.5937
  188SLPC   C2421678   1.454   1.326   7.375 -0.5485  0.1187  0.8294
  188SLPC   H4R21679   1.558   1.293   7.395 -1.2090 -2.3747  0.3618
  188SLPC   H4S21680   1.374   1.249   7.368  0.7531 -1.1873  0.0500
  188SLPC   C2521681   1.421   1.418   7.490 -0.0248  0.1294  0.0264
  188SLPC   H5R21682   1.325   1.470   7.471  0.6048  1.3310  0.0775
  188SLPC   H5S21683   1.505   1.490   7.500 -1.5499  1.9488  0.0047
  188SLPC   C2621684   1.406   1.346   7.628 -1.0962  0.1857  0.1009
  188SLPC   H6R21685   1.498   1.286   7.643 -1.6033 -0.4335  0.7892
  188SLPC   H6S21686   1.327   1.267   7.619 -0.6920 -0.4939  2.2905
  188SLPC   C2721687   1.373   1.444   7.743  0.2074  0.7417 -0.4932
  188SLPC   H7R21688   1.282   1.495   7.705 -0.0479  1.0508  0.5170
  188SLPC   H7S21689   1.463   1.509   7.751 -0.7971  2.1947 -0.7954
  188SLPC   C2821690   1.342   1.370   7.879 -0.2890 -0.5250 -0.1517
  188SLPC   H8R21691   1.433   1.320   7.919 -0.0407 -0.3732 -0.5298
  188SLPC   H8S21692   1.262   1.294   7.870 -0.0935 -0.6232 -1.0802
  188SLPC   C2921693   1.271   1.463   7.973  0.4598  0.2044 -0.0181
  188SLPC   H9R21694   1.195   1.527   7.925 -0.7656 -2.2938 -1.4766
  188SLPC  C21021695   1.305   1.495   8.097 -0.5869 -0.5871  1.0255
  188SLPC  H10R21696   1.236   1.563   8.148 -0.5470 -0.6720  1.1966
  188SLPC  C21121697   1.418   1.433   8.183  0.7495  0.2996  0.3913
  188SLPC  H11R21698   1.478   1.357   8.129 -1.0629 -2.2428  1.8255
  188SLPC  H11S21699   1.367   1.380   8.266  1.6118 -2.2553 -0.6709
  188SLPC  C21221700   1.513   1.535   8.243  0.6328  0.4606 -0.4573
  188SLPC  H12R21701   1.519   1.623   8.178  0.8949 -1.0929 -2.5849
  188SLPC  C21321702   1.584   1.517   8.357 -0.4457 -0.2126 -0.0908
  188SLPC  H13R21703   1.662   1.585   8.394 -0.3008 -0.5255  0.1804
  188SLPC  C21421704   1.580   1.394   8.447 -0.1990 -0.4140 -0.1086
  188SLPC  H14R21705   1.587   1.296   8.397  0.0037 -1.1269  1.2810
  188SLPC  H14S21706   1.484   1.393   8.504 -0.1409 -1.5307 -0.0303
  188SLPC  C21521707   1.698   1.395   8.545 -0.7792 -0.0077  0.4541
  188SLPC  H15R21708   1.699   1.487   8.608  2.4687  0.7857 -0.6087
  188SLPC  H15S21709   1.797   1.379   8.498 -0.7002 -0.4445  0.7716
  188SLPC  C21621710   1.686   1.275   8.635  0.0174  0.3096 -0.4493
  188SLPC  H16R21711   1.691   1.179   8.579  0.2035 -0.4379  0.8231
  188SLPC  H16S21712   1.579   1.284   8.663  0.2746  1.6363  0.1271
  188SLPC  C21721713   1.772   1.264   8.751  0.4597  0.0703  0.2143
  188SLPC  H17R21714   1.762   1.158   8.782 -0.4571 -0.7722 -2.7406
  188SLPC  H17S21715   1.745   1.336   8.831 -1.1961  0.5604 -0.7471
  188SLPC  C21821716   1.927   1.269   8.735 -0.2876 -0.1342 -0.6086
  188SLPC  H18R21717   1.962   1.358   8.679  1.4300  0.1976  0.9424
  188SLPC  H18S21718   1.968   1.185   8.675 -0.8239 -0.4706 -0.5103
  188SLPC  H18T21719   1.973   1.261   8.835 -1.7067 -0.3940  0.0411
  188SLPC   C3321720   1.009   1.675   7.156 -0.9672 -0.8875 -0.4144
  188SLPC   H3X21721   0.941   1.588   7.163 -2.9306  0.6828  0.9364
  188SLPC   H3Y21722   0.947   1.767   7.145  2.0311  1.3797  0.8427
  188SLPC   C3421723   1.101   1.694   7.278  0.6260 -0.8768 -0.3982
  188SLPC   H4X21724   1.117   1.803   7.296  0.5289 -0.4291 -2.7982
  188SLPC   H4Y21725   1.203   1.658   7.256  0.6638 -0.5845 -0.7113
  188SLPC   C3521726   1.045   1.640   7.410  0.4489 -0.1747 -0.1366
  188SLPC   H5X21727   1.067   1.532   7.423 -1.0029 -0.5125 -0.4653
  188SLPC   H5Y21728   0.935   1.645   7.395  0.3422  1.8520  1.0380
  188SLPC   C3621729   1.096   1.720   7.530  0.5714 -0.5256 -0.6995
  188SLPC   H6X21730   1.073   1.828   7.522 -1.2294 -0.7729  0.8127
  188SLPC   H6Y21731   1.206   1.706   7.529  0.5951 -0.4086 -0.1857
  188SLPC   C3721732   1.041   1.667   7.666  0.4510  1.3770 -0.6259
  188SLPC   H7X21733   1.079   1.568   7.697 -2.4802  0.4231  0.1239
  188SLPC   H7Y21734   0.932   1.656   7.646  1.0415 -2.4344 -2.2029
  188SLPC   C3821735   1.062   1.765   7.782  0.1014  0.2773  0.3312
  188SLPC   H8X21736   1.043   1.869   7.747 -3.2696 -0.3261  0.2304
  188SLPC   H8Y21737   1.169   1.754   7.811  0.1572 -0.7559 -0.2452
  188SLPC   C3921738   0.972   1.714   7.902 -0.5053 -0.2367  0.3807
  188SLPC   H9X21739   1.015   1.628   7.958 -1.3543 -1.7767 -1.2648
  188SLPC   H9Y21740   0.876   1.684   7.854 -1.4637  0.8165  1.6204
  188SLPC  C31021741   0.952   1.813   8.015 -0.2786 -0.7081  0.4026
  188SLPC  H10X21742   0.926   1.915   7.979 -1.1889 -1.3385 -0.7305
  188SLPC  H10Y21743   1.048   1.815   8.072  0.6279 -1.5837 -1.0620
  188SLPC  C31121744   0.834   1.780   8.108 -0.4275 -0.2154  0.2624
  188SLPC  H11X21745   0.842   1.670   8.122 -2.1317 -0.0269  3.0652
  188SLPC  H11Y21746   0.738   1.796   8.056  0.6056  0.2417 -1.5517
  188SLPC  C31221747   0.847   1.848   8.244  0.2016 -0.7569 -0.6097
  188SLPC  H12X21748   0.812   1.953   8.242  1.9882 -0.1076  0.4746
  188SLPC  H12Y21749   0.952   1.843   8.280 -0.3381 -0.2994  1.0912
  188SLPC  C31321750   0.763   1.768   8.341  0.1232  0.5205  0.1379
  188SLPC  H13X21751   0.819   1.681   8.381 -0.6456 -0.3993 -0.7556
  188SLPC  H13Y21752   0.670   1.741   8.286  2.4789 -2.2714 -2.6781
  188SLPC  C31421753   0.720   1.857   8.462 -0.3729  0.1183  0.6496
  188SLPC  H14X21754   0.651   1.804   8.530 -0.4290 -0.4005  0.1922
  188SLPC  H14Y21755   0.667   1.946   8.422 -0.1307  0.7737  1.7588
  188SLPC  C31521756   0.842   1.919   8.548 -0.1676  0.1418  0.3044
  188SLPC  H15X21757   0.926   1.955   8.484 -0.5225 -2.1021 -1.4706
  188SLPC  H15Y21758   0.878   1.833   8.608 -0.7686 -0.0253  0.4225
  188SLPC  C31621759   0.814   2.033   8.639  0.3549  0.1961 -0.1038
  188SLPC  H16X21760   0.718   2.028   8.696  0.3066 -0.1085 -0.2141
  188SLPC  H16Y21761   0.789   2.117   8.571  3.0118  1.4143  0.3381
  188SLPC  C31721762   0.929   2.071   8.723  0.2321 -0.2224  0.1126
  188SLPC  H17X21763   1.016   2.104   8.663  1.5363 -0.8306  1.6449
  188SLPC  H17Y21764   0.962   1.982   8.782  1.4418 -0.3018 -0.6739
  188SLPC  C31821765   0.893   2.191   8.812 -0.2085 -0.1216 -0.9063
  188SLPC  H18X21766   0.809   2.165   8.881  1.2986 -0.3404  0.8893
  188SLPC  H18Y21767   0.867   2.289   8.766 -1.7318 -0.9948 -1.9401
  188SLPC  H18Z21768   0.980   2.206   8.879 -0.4680 -2.8122  0.0984
  189SLPC     N21769   3.916   4.074   6.392  0.0546  0.0745  0.2193
  189SLPC   C1321770   3.810   4.183   6.363 -0.0859 -0.0602 -0.1001
  189SLPC  H13A21771   3.751   4.164   6.275 -2.2347 -3.2760  1.9034
  189SLPC  H13B21772   3.734   4.175   6.439 -0.6799  0.4661 -0.6377
  189SLPC  H13C21773   3.860   4.278   6.357  1.2892 -0.6752  1.0971
  189SLPC   C1421774   4.020   4.124   6.491  0.3775 -0.8606 -0.5674
  189SLPC  H14A21775   4.050   4.220   6.453 -0.5485  0.0694  0.9823
  189SLPC  H14B21776   3.979   4.136   6.591 -1.1697 -0.5378 -1.2302
  189SLPC  H14C21777   4.109   4.064   6.498  1.3824  0.7096  0.5571
  189SLPC   C1521778   3.992   4.060   6.262  0.1119 -0.4295  0.6301
  189SLPC  H15A21779   4.094   4.024   6.267  0.1855 -0.8002 -2.4682
  189SLPC  H15B21780   3.939   3.993   6.197 -2.0866  1.5611  0.3070
  189SLPC  H15C21781   4.006   4.153   6.208 -0.7124  0.1593  1.4093
  189SLPC   C1221782   3.856   3.938   6.424  0.2973 -0.0413 -0.6267
  189SLPC  H12A21783   3.928   3.862   6.450 -0.9378 -1.1105 -0.2690
  189SLPC  H12B21784   3.800   3.897   6.341  2.5665 -1.5751 -1.4380
  189SLPC   C1121785   3.742   3.939   6.534  0.0103 -0.3249 -0.3422
  189SLPC  H11A21786   3.761   4.024   6.603 -0.8504  0.5238 -1.1379
  189SLPC  H11B21787   3.754   3.847   6.596  0.6119 -0.0909 -0.1033
  189SLPC     P21788   3.542   3.820   6.421  0.2930  0.1566 -0.2012
  189SLPC   O1321789   3.426   3.861   6.342  0.4661  0.4846  0.3935
  189SLPC   O1421790   3.648   3.745   6.347  0.6681  0.4054  0.3190
  189SLPC   O1221791   3.614   3.952   6.476  0.8013 -0.3205 -0.6622
  189SLPC   O1121792   3.502   3.743   6.555  0.2794 -0.1563 -0.2190
  189SLPC    C121793   3.376   3.771   6.622  0.2184  0.4376  0.2826
  189SLPC    HA21794   3.293   3.801   6.555  1.1133  0.6350 -0.7409
  189SLPC    HB21795   3.341   3.675   6.667 -0.8411  0.3178 -0.7836
  189SLPC    C221796   3.383   3.860   6.757  0.0621 -0.0719 -0.7421
  189SLPC    HS21797   3.436   3.956   6.739  1.2690 -0.6737 -0.5152
  189SLPC   O2121798   3.468   3.792   6.859  0.5312  0.1882 -0.3514
  189SLPC   C2121799   3.546   3.861   6.938 -0.0689 -0.7498 -0.0797
  189SLPC   O2221800   3.571   3.979   6.930  0.1266 -0.7928  0.1017
  189SLPC   C2221801   3.611   3.766   7.036 -0.5077  0.8857  0.0064
  189SLPC   H2R21802   3.560   3.668   7.028  0.7025  0.1535  1.1214
  189SLPC   H2S21803   3.715   3.754   6.998 -1.1684 -0.8345 -1.3087
  189SLPC    C321804   3.244   3.893   6.822  0.7568 -0.3527 -0.5428
  189SLPC    HX21805   3.206   3.789   6.830  0.3829 -0.0758  1.5517
  189SLPC    HY21806   3.180   3.958   6.759  0.8114 -2.1979 -2.5828
  189SLPC   O3121807   3.254   3.936   6.955 -0.2079 -0.3672  0.1916
  189SLPC   C3121808   3.255   4.060   6.984  0.5379  0.0674  0.4502
  189SLPC   O3221809   3.241   4.155   6.909  0.4743  0.4779  0.8269
  189SLPC   C3221810   3.276   4.062   7.138 -0.7998 -0.1597 -0.2292
  189SLPC   H2X21811   3.256   4.166   7.170 -0.9217 -0.1500 -0.3394
  189SLPC   H2Y21812   3.372   4.017   7.170 -0.9548 -1.7965 -1.9910
  189SLPC   C2321813   3.632   3.831   7.176 -0.0596 -0.2526  0.3523
  189SLPC   H3R21814   3.546   3.891   7.213  1.0457  2.0352 -0.6804
  189SLPC   H3S21815   3.718   3.901   7.182 -0.1332  0.0826 -1.8910
  189SLPC   C2421816   3.662   3.720   7.279 -0.1681  0.0744 -0.1044
  189SLPC   H4R21817   3.770   3.702   7.300 -0.8041 -0.8161  2.5392
  189SLPC   H4S21818   3.605   3.629   7.254 -0.2125  0.0714  0.0097
  189SLPC   C2521819   3.593   3.769   7.412 -0.3582  0.8045 -0.1127
  189SLPC   H5R21820   3.484   3.783   7.392 -0.1209 -0.1806 -2.2384
  189SLPC   H5S21821   3.627   3.872   7.435  1.0652  0.3886 -0.3458
  189SLPC   C2621822   3.610   3.670   7.530 -0.0031  0.1871 -0.2627
  189SLPC   H6R21823   3.721   3.662   7.533 -0.1090 -0.8128  1.1049
  189SLPC   H6S21824   3.554   3.575   7.527  1.0377 -0.4498  0.1324
  189SLPC   C2721825   3.544   3.726   7.655 -0.0691  0.9115 -0.6238
  189SLPC   H7R21826   3.440   3.755   7.626 -0.4065  1.3114  0.9154
  189SLPC   H7S21827   3.591   3.821   7.689  1.1529 -0.4744  1.6903
  189SLPC   C2821828   3.545   3.615   7.771  0.2371 -0.3263 -0.1523
  189SLPC   H8R21829   3.651   3.602   7.800  0.8447  0.2104 -2.0717
  189SLPC   H8S21830   3.499   3.521   7.734 -2.0475  0.6378  0.0996
  189SLPC   C2921831   3.455   3.664   7.885 -0.1936  0.6898  0.1379
  189SLPC   H9R21832   3.485   3.759   7.933  0.8837  0.4357 -0.0237
  189SLPC  C21021833   3.336   3.617   7.927  0.1877 -0.2879 -0.3469
  189SLPC  H10R21834   3.286   3.672   8.008 -1.0836  0.5917 -1.6915
  189SLPC  C21121835   3.251   3.505   7.868 -0.1579  0.2092  0.0096
  189SLPC  H11R21836   3.241   3.421   7.940  0.8055 -0.1820 -0.3031
  189SLPC  H11S21837   3.310   3.462   7.785  2.1622  3.6904 -0.2583
  189SLPC  C21221838   3.114   3.550   7.822  0.0998  0.0040 -0.3648
  189SLPC  H12R21839   3.032   3.527   7.892  1.2381  1.0238  1.3215
  189SLPC  C21321840   3.075   3.603   7.703 -0.4012  0.0267 -0.0563
  189SLPC  H13R21841   2.986   3.667   7.703 -1.3769 -1.2998 -1.0005
  189SLPC  C21421842   3.173   3.638   7.596  0.3363 -0.2691 -0.7854
  189SLPC  H14R21843   3.275   3.606   7.627 -0.2041 -2.7359 -1.3955
  189SLPC  H14S21844   3.172   3.746   7.572 -0.2495  0.1831  1.1601
  189SLPC  C21521845   3.144   3.558   7.466  0.5491 -0.3422  0.2215
  189SLPC  H15R21846   3.049   3.591   7.418  0.8471 -1.9209 -1.4841
  189SLPC  H15S21847   3.137   3.452   7.497 -0.5560 -0.8960 -1.8228
  189SLPC  C21621848   3.246   3.584   7.356  0.1988 -0.0651  0.5840
  189SLPC  H16R21849   3.349   3.548   7.374  0.4162  0.8715  1.2428
  189SLPC  H16S21850   3.252   3.695   7.348 -2.3031  0.0540 -0.3077
  189SLPC  C21721851   3.200   3.520   7.231  0.1359  0.8805 -0.9472
  189SLPC  H17R21852   3.093   3.545   7.213 -0.3066  0.1012  0.4732
  189SLPC  H17S21853   3.221   3.411   7.235 -0.1666  0.8783  2.8296
  189SLPC  C21821854   3.278   3.588   7.117 -0.2358 -0.2312 -0.2265
  189SLPC  H18R21855   3.254   3.523   7.030 -4.1001 -0.3669  0.8446
  189SLPC  H18S21856   3.387   3.584   7.140 -0.4821  1.8408  1.4262
  189SLPC  H18T21857   3.254   3.695   7.106  1.8948  0.2035 -0.9557
  189SLPC   C3321858   3.182   3.974   7.212  0.8570  0.1056 -0.4525
  189SLPC   H3X21859   3.172   3.878   7.157  0.0282  0.0781 -0.2646
  189SLPC   H3Y21860   3.080   4.015   7.193  0.3859 -0.0971  1.5805
  189SLPC   C3421861   3.210   3.969   7.363 -0.3710 -0.6071 -0.3461
  189SLPC   H4X21862   3.308   3.921   7.380 -0.5795 -1.2871 -1.0680
  189SLPC   H4Y21863   3.136   3.910   7.421  0.8346 -1.7534  0.0488
  189SLPC   C3521864   3.213   4.104   7.432  0.0982 -0.4127 -0.3157
  189SLPC   H5X21865   3.110   4.146   7.424 -0.2851 -1.2616  0.1461
  189SLPC   H5Y21866   3.285   4.166   7.374  0.7728 -1.0818 -0.1999
  189SLPC   C3621867   3.264   4.101   7.577  0.4304  0.6519 -0.5614
  189SLPC   H6X21868   3.269   4.207   7.612  1.7230 -0.0008  1.3873
  189SLPC   H6Y21869   3.365   4.056   7.589 -0.6097 -1.0015  2.7236
  189SLPC   C3721870   3.171   4.023   7.676 -0.0295  0.0794  0.0879
  189SLPC   H7X21871   3.176   3.916   7.648 -0.4071 -0.6370  2.6176
  189SLPC   H7Y21872   3.068   4.064   7.667  0.6334  1.6732 -0.4634
  189SLPC   C3821873   3.213   4.050   7.820 -0.2737 -0.2709  0.5863
  189SLPC   H8X21874   3.200   4.155   7.855 -0.0081 -0.1090  0.2083
  189SLPC   H8Y21875   3.321   4.026   7.820 -0.1099  0.3901 -0.6861
  189SLPC   C3921876   3.156   3.957   7.928 -0.6342 -0.5241  0.2730
  189SLPC   H9X21877   3.174   3.849   7.906  1.1074 -0.2309  0.1589
  189SLPC   H9Y21878   3.046   3.969   7.917 -1.3677 -4.3193  2.4859
  189SLPC  C31021879   3.211   3.997   8.068  0.4521  0.2251  0.1288
  189SLPC  H10X21880   3.203   4.108   8.069 -1.6673  0.0884  0.8231
  189SLPC  H10Y21881   3.317   3.966   8.079  0.1939  0.0652  2.3917
  189SLPC  C31121882   3.127   3.951   8.185  0.6830 -0.3323 -0.0979
  189SLPC  H11X21883   3.152   3.845   8.209 -0.9627 -0.4329  1.3395
  189SLPC  H11Y21884   3.018   3.954   8.163  0.8002  0.1320 -0.6062
  189SLPC  C31221885   3.142   4.015   8.321 -0.8140 -0.2304 -0.0131
  189SLPC  H12X21886   3.125   4.124   8.311  0.5094  0.1147  1.2371
  189SLPC  H12Y21887   3.248   4.012   8.356 -1.0458  2.7440  1.0650
  189SLPC  C31321888   3.053   3.949   8.434 -0.1430 -0.0568 -0.3159
  189SLPC  H13X21889   2.986   3.878   8.380 -1.6918 -1.7167  3.6203
  189SLPC  H13Y21890   3.005   4.042   8.471 -1.7365 -1.6674  1.7308
  189SLPC  C31421891   3.132   3.896   8.550  0.1817  0.6975 -0.3841
  189SLPC  H14X21892   3.216   3.834   8.512  0.7433  1.2169 -0.0054
  189SLPC  H14Y21893   3.081   3.828   8.620  2.8683 -1.6540 -0.6322
  189SLPC  C31521894   3.186   4.016   8.628  0.1511  1.0520 -0.5540
  189SLPC  H15X21895   3.121   4.105   8.639 -2.5249 -0.8562 -0.6701
  189SLPC  H15Y21896   3.282   4.047   8.582  1.6337  0.2286  1.8611
  189SLPC  C31621897   3.234   3.979   8.766 -0.1779 -0.2543  0.0303
  189SLPC  H16X21898   3.314   4.048   8.802  0.7832 -0.8831 -0.8647
  189SLPC  H16Y21899   3.275   3.875   8.770 -1.0609 -0.6274 -0.4719
  189SLPC  C31721900   3.108   3.968   8.864 -0.2057 -0.0200  0.2130
  189SLPC  H17X21901   3.039   3.881   8.856 -0.8780  0.6111 -1.0297
  189SLPC  H17Y21902   3.038   4.047   8.830 -2.2663 -1.1274  1.7371
  189SLPC  C31821903   3.146   3.981   9.013 -0.5699  0.1910 -0.6988
  189SLPC  H18X21904   3.066   3.945   9.081  1.1744  1.2596  2.0350
  189SLPC  H18Y21905   3.147   4.090   9.030  3.0983  0.2252 -0.7621
  189SLPC  H18Z21906   3.240   3.929   9.041 -0.9127  0.2155  0.5228
  190SLPC     N21907   4.214   3.072   6.377 -0.3152 -0.8971 -0.2918
  190SLPC   C1321908   4.185   2.974   6.262 -0.7847 -0.0096  0.6201
  190SLPC  H13A21909   4.265   2.908   6.232 -1.3650 -1.7983  2.8879
  190SLPC  H13B21910   4.094   2.925   6.294 -0.3914  0.3779  2.3933
  190SLPC  H13C21911   4.165   3.031   6.173  0.1638  0.6664  0.8355
  190SLPC   C1421912   4.310   3.169   6.340 -0.0443 -0.1918 -0.5102
  190SLPC  H14A21913   4.276   3.237   6.262  1.0700  1.7626  0.6665
  190SLPC  H14B21914   4.341   3.221   6.430  0.1900  0.4985 -0.9848
  190SLPC  H14C21915   4.402   3.132   6.299 -0.1308 -2.0742  0.9584
  190SLPC   C1521916   4.268   2.993   6.488  0.3278 -0.1558 -0.3316
  190SLPC  H15A21917   4.354   2.937   6.455  1.6091  1.6218 -0.0518
  190SLPC  H15B21918   4.297   3.061   6.566  1.0651  2.4352 -2.7542
  190SLPC  H15C21919   4.206   2.916   6.530  1.0240 -1.1419 -1.0838
  190SLPC   C1221920   4.092   3.159   6.415 -0.0097  0.6329  0.2352
  190SLPC  H12A21921   4.052   3.192   6.320 -0.2965 -2.5064 -0.8028
  190SLPC  H12B21922   4.122   3.242   6.478 -0.5767  0.6949  0.4259
  190SLPC   C1121923   3.972   3.089   6.479 -0.2538  0.2263  1.3364
  190SLPC  H11A21924   3.892   3.166   6.480  0.6021  1.1381  0.6551
  190SLPC  H11B21925   3.994   3.070   6.586  2.9304 -0.2083  0.6718
  190SLPC     P21926   3.782   2.943   6.375 -0.0247 -0.7226  0.6477
  190SLPC   O1321927   3.731   3.053   6.291 -0.1099  0.1558 -0.5685
  190SLPC   O1421928   3.755   2.807   6.314  0.0015  0.4537 -0.2800
  190SLPC   O1221929   3.934   2.972   6.410 -0.7711 -0.1826  0.1475
  190SLPC   O1121930   3.710   2.944   6.519  0.3139 -0.6749  0.4240
  190SLPC    C121931   3.682   3.064   6.590  0.1026  0.1917 -0.6075
  190SLPC    HA21932   3.761   3.058   6.668 -0.7463 -3.5581  0.0451
  190SLPC    HB21933   3.701   3.162   6.541  0.3197  0.2920 -0.3232
  190SLPC    C221934   3.533   3.064   6.651  1.0646  0.0056  0.3896
  190SLPC    HS21935   3.511   3.153   6.713  1.3456 -1.1630  2.2112
  190SLPC   O2121936   3.500   2.950   6.721 -0.7020  0.0033  0.0883
  190SLPC   C2121937   3.562   2.936   6.831 -0.3879 -0.4343  0.6303
  190SLPC   O2221938   3.641   3.021   6.878  0.1320 -0.3829  0.0924
  190SLPC   C2221939   3.525   2.799   6.896 -0.3025  0.4879 -0.0839
  190SLPC   H2R21940   3.416   2.779   6.882  0.0081 -0.7671 -0.6844
  190SLPC   H2S21941   3.590   2.719   6.857 -1.8939 -0.9296  0.1147
  190SLPC    C321942   3.433   3.068   6.535 -0.3585  0.1458  0.4296
  190SLPC    HX21943   3.480   3.001   6.460  0.6360 -0.8340  1.8932
  190SLPC    HY21944   3.430   3.172   6.495  2.3359  0.1942  0.2805
  190SLPC   O3121945   3.299   3.038   6.578  0.6934  0.1077  0.2514
  190SLPC   C3121946   3.256   2.914   6.555  0.4948 -0.2375 -0.7905
  190SLPC   O3221947   3.314   2.825   6.497 -0.5985  0.9808 -0.0772
  190SLPC   C3221948   3.125   2.903   6.616  0.1770 -0.1426 -0.1214
  190SLPC   H2X21949   3.066   2.997   6.621  1.5713  0.6767  1.4943
  190SLPC   H2Y21950   3.141   2.880   6.724 -1.2452  0.5840  0.2559
  190SLPC   C2321951   3.558   2.796   7.045  0.4734 -0.1746  0.4545
  190SLPC   H3R21952   3.514   2.888   7.087  1.4664 -0.0786  1.2930
  190SLPC   H3S21953   3.667   2.809   7.056  0.9971 -0.7437 -3.3223
  190SLPC   C2421954   3.500   2.673   7.115 -0.2381 -0.4446  0.1749
  190SLPC   H4R21955   3.535   2.578   7.068  0.6727 -0.6317  1.2076
  190SLPC   H4S21956   3.390   2.664   7.112 -0.2544  0.0677 -1.1092
  190SLPC   C2521957   3.547   2.657   7.256  1.2131  0.7174 -0.7533
  190SLPC   H5R21958   3.531   2.754   7.309  0.7093  0.3782 -0.2821
  190SLPC   H5S21959   3.655   2.631   7.268  1.1025  1.2937  1.8920
  190SLPC   C2621960   3.463   2.556   7.343  0.3690  0.0899  0.1702
  190SLPC   H6R21961   3.472   2.452   7.306  0.5152  0.6771 -1.5136
  190SLPC   H6S21962   3.356   2.584   7.340  0.3779  0.1616  0.4894
  190SLPC   C2721963   3.492   2.551   7.499 -0.0146 -0.5668  0.1171
  190SLPC   H7R21964   3.487   2.656   7.536  1.2693 -0.2348 -0.6459
  190SLPC   H7S21965   3.596   2.513   7.511  0.2971  0.6522  1.4451
  190SLPC   C2821966   3.408   2.451   7.579 -0.2792 -0.2362 -1.3978
  190SLPC   H8R21967   3.384   2.362   7.516 -0.5931  0.5614 -2.4228
  190SLPC   H8S21968   3.311   2.499   7.598  1.1035  1.4873  1.5503
  190SLPC   C2921969   3.463   2.413   7.714  0.8957 -0.8439 -0.1789
  190SLPC   H9R21970   3.506   2.312   7.723  0.6726 -0.8929  0.3297
  190SLPC  C21021971   3.460   2.485   7.827 -0.3219  0.2633 -1.0912
  190SLPC  H10R21972   3.497   2.442   7.921 -4.0146  1.7651  1.1727
  190SLPC  C21121973   3.395   2.630   7.841  0.6838 -0.4735  0.5835
  190SLPC  H11R21974   3.292   2.617   7.882  0.5751 -1.7731 -0.0893
  190SLPC  H11S21975   3.377   2.673   7.740  2.0582  0.5885  0.7824
  190SLPC  C21221976   3.477   2.719   7.933  0.7030 -0.1545 -0.5187
  190SLPC  H12R21977   3.580   2.733   7.898  0.3170  1.0715 -1.1981
  190SLPC  C21321978   3.449   2.772   8.054  0.1857 -0.4117 -0.3043
  190SLPC  H13R21979   3.523   2.831   8.110 -0.4274  1.2707 -1.2414
  190SLPC  C21421980   3.320   2.763   8.130  0.8311  0.1851 -0.1877
  190SLPC  H14R21981   3.229   2.768   8.066  2.5225  1.1566 -2.5773
  190SLPC  H14S21982   3.313   2.847   8.202  2.7052  0.5456 -0.3990
  190SLPC  C21521983   3.316   2.620   8.189  0.4896 -0.1601 -0.4286
  190SLPC  H15R21984   3.298   2.542   8.112 -1.4678 -0.3391  0.1540
  190SLPC  H15S21985   3.227   2.606   8.254 -1.8438 -0.2125 -3.5140
  190SLPC  C21621986   3.431   2.588   8.285  0.1504 -0.0135  0.7629
  190SLPC  H16R21987   3.437   2.670   8.360 -1.1066 -0.1299  1.0090
  190SLPC  H16S21988   3.532   2.584   8.239  0.5204  0.7243  1.4940
  190SLPC  C21721989   3.413   2.461   8.364  0.7262 -0.0047  0.7405
  190SLPC  H17R21990   3.394   2.382   8.289  1.7271 -0.6892  1.1905
  190SLPC  H17S21991   3.319   2.468   8.423  1.9421 -3.9345  3.4439
  190SLPC  C21821992   3.521   2.429   8.465  0.2764 -0.6389 -0.2135
  190SLPC  H18R21993   3.539   2.322   8.484  0.0728 -0.6578 -0.1352
  190SLPC  H18S21994   3.492   2.486   8.555  0.0536  0.2348 -0.8281
  190SLPC  H18T21995   3.619   2.473   8.436  0.2173  1.4580  2.6245
  190SLPC   C3321996   3.039   2.787   6.551  0.2129  0.3852 -0.4140
  190SLPC   H3X21997   3.049   2.786   6.440  0.8393 -1.9731 -0.3643
  190SLPC   H3Y21998   2.934   2.804   6.582  0.6094 -1.6010  2.1578
  190SLPC   C3421999   3.074   2.646   6.601 -0.4860 -0.1159  0.7416
  190SLPC   H4X22000   3.180   2.619   6.581 -0.2967  1.4061 -0.4201
  190SLPC   H4Y22001   3.008   2.570   6.553  0.7454  1.1419 -3.0717
  190SLPC   C3522002   3.061   2.641   6.757 -0.0995  0.0819 -0.5362
  190SLPC   H5X22003   3.151   2.694   6.796  1.3870 -1.4002 -1.8596
  190SLPC   H5Y22004   3.065   2.532   6.775 -1.8022  0.0463 -0.3405
  190SLPC   C3622005   2.934   2.698   6.825 -0.7970  0.0680  0.0917
  190SLPC   H6X22006   2.850   2.650   6.771  0.7171 -1.4256 -0.9915
  190SLPC   H6Y22007   2.930   2.809   6.821 -1.2494  0.0092 -1.1209
  190SLPC   C3722008   2.930   2.676   6.983 -0.1004  0.4235  0.3317
  190SLPC   H7X22009   3.032   2.678   7.028 -0.8510 -0.4942  2.0872
  190SLPC   H7Y22010   2.910   2.570   7.009  1.9427  0.2567  1.3444
  190SLPC   C3822011   2.844   2.782   7.054  0.5899 -0.3539 -0.0037
  190SLPC   H8X22012   2.738   2.778   7.022  0.5669 -1.2490  0.1808
  190SLPC   H8Y22013   2.881   2.886   7.040  1.1544 -0.6539 -0.7462
  190SLPC   C3922014   2.828   2.773   7.210  0.0302 -0.0619  0.1596
  190SLPC   H9X22015   2.917   2.816   7.260  0.2347  2.1925 -2.0506
  190SLPC   H9Y22016   2.819   2.664   7.230  2.4853 -0.1633  0.8947
  190SLPC  C31022017   2.704   2.841   7.263  0.4840 -1.0725  0.1468
  190SLPC  H10X22018   2.630   2.758   7.267 -1.6738  0.8158  1.1018
  190SLPC  H10Y22019   2.658   2.904   7.183  0.9335 -2.9567 -1.6465
  190SLPC  C31122020   2.719   2.910   7.399 -0.6094 -0.3921  0.0578
  190SLPC  H11X22021   2.799   2.988   7.398 -0.8970 -0.0947  0.0450
  190SLPC  H11Y22022   2.751   2.828   7.466  0.2533 -0.6021 -0.5975
  190SLPC  C31222023   2.582   2.970   7.451 -0.3147 -0.0477  0.3694
  190SLPC  H12X22024   2.497   2.908   7.416 -0.8538  0.7035  0.3229
  190SLPC  H12Y22025   2.587   3.076   7.417  1.3829 -0.6727 -1.3873
  190SLPC  C31322026   2.579   2.983   7.601  0.3015 -0.8038  0.0574
  190SLPC  H13X22027   2.660   3.053   7.630 -1.8667  1.2741  1.2753
  190SLPC  H13Y22028   2.597   2.883   7.645  1.9924 -0.4516  0.1655
  190SLPC  C31422029   2.440   3.029   7.655  0.0132  0.6377 -0.4445
  190SLPC  H14X22030   2.360   2.953   7.641 -1.2249  1.3322  2.5321
  190SLPC  H14Y22031   2.402   3.114   7.595  1.7719  2.1981  0.6256
  190SLPC  C31522032   2.435   3.046   7.807 -0.5474 -0.2457 -0.5296
  190SLPC  H15X22033   2.528   3.102   7.828 -0.6597  0.0309 -0.7720
  190SLPC  H15Y22034   2.433   2.951   7.865 -1.5375 -0.0189 -0.1840
  190SLPC  C31622035   2.325   3.133   7.857 -0.2782  0.0972 -0.2127
  190SLPC  H16X22036   2.228   3.085   7.832  0.1675 -0.8220 -0.1988
  190SLPC  H16Y22037   2.330   3.229   7.800  0.0665  0.7269  0.8636
  190SLPC  C31722038   2.328   3.159   8.003  0.5218  0.0293  0.0117
  190SLPC  H17X22039   2.421   3.219   8.013  0.7293 -0.2716 -0.1123
  190SLPC  H17Y22040   2.340   3.064   8.059  0.7371  0.3777  0.5659
  190SLPC  C31822041   2.201   3.231   8.057 -0.1030  0.2440  0.3279
  190SLPC  H18X22042   2.207   3.246   8.166  3.0970  5.5298 -0.3821
  190SLPC  H18Y22043   2.098   3.192   8.040 -1.3265  3.5637 -0.3304
  190SLPC  H18Z22044   2.210   3.337   8.025  2.8874  0.0222  0.2527
  191SLPC     N22045   3.050   5.476   5.599  0.6274 -0.2255  0.2983
  191SLPC   C1322046   3.040   5.375   5.492  0.8343  0.0640 -0.2793
  191SLPC  H13A22047   2.939   5.340   5.474  0.3466  1.6116 -0.6696
  191SLPC  H13B22048   3.076   5.413   5.398 -1.7597 -2.0462 -2.1784
  191SLPC  H13C22049   3.089   5.280   5.507  1.9087  0.4601 -1.2256
  191SLPC   C1422050   2.986   5.606   5.545  0.1772  0.5643 -0.2741
  191SLPC  H14A22051   2.879   5.589   5.536  0.6559 -1.1350 -3.2981
  191SLPC  H14B22052   3.003   5.687   5.615 -1.3138  0.4993  0.1983
  191SLPC  H14C22053   3.019   5.648   5.452 -0.5856  2.1384  0.1552
  191SLPC   C1522054   3.194   5.497   5.635 -0.1313 -0.2734 -0.8595
  191SLPC  H15A22055   3.194   5.550   5.729 -0.5253  1.5018 -1.8355
  191SLPC  H15B22056   3.239   5.401   5.653 -1.3698 -0.4068  1.7484
  191SLPC  H15C22057   3.244   5.553   5.558 -0.2727 -0.2155 -0.9102
  191SLPC   C1222058   2.975   5.431   5.722  0.2691 -0.2705 -0.4349
  191SLPC  H12A22059   3.021   5.339   5.754 -0.3744 -1.2429 -2.2033
  191SLPC  H12B22060   2.877   5.396   5.691  1.6081 -3.3733 -1.3654
  191SLPC   C1122061   2.964   5.531   5.844  0.9229  0.2469  0.2506
  191SLPC  H11A22062   2.896   5.495   5.924 -0.8976 -0.9477 -1.7776
  191SLPC  H11B22063   2.906   5.617   5.805 -1.1613 -0.5216  1.5893
  191SLPC     P22064   3.156   5.475   6.003  0.1150 -0.0701  0.2254
  191SLPC   O1322065   3.205   5.350   5.931  0.2942 -0.2041  0.3098
  191SLPC   O1422066   3.265   5.551   6.071  0.2876  0.0289  0.3118
  191SLPC   O1222067   3.092   5.561   5.895  0.4481 -0.2109 -0.3911
  191SLPC   O1122068   3.043   5.436   6.100 -0.2521  0.1070 -1.2268
  191SLPC    C122069   3.024   5.298   6.140 -0.1149  0.0473  0.6996
  191SLPC    HA22070   2.923   5.289   6.185 -0.3372  0.5287  0.3024
  191SLPC    HB22071   3.028   5.229   6.054  2.3790  1.6187 -0.4941
  191SLPC    C222072   3.106   5.256   6.262  0.7428  1.0544 -0.3567
  191SLPC    HS22073   3.044   5.172   6.301  0.8178  0.1025 -2.2317
  191SLPC   O2122074   3.124   5.364   6.349 -0.3591  0.3494 -0.6025
  191SLPC   C2122075   3.021   5.393   6.419 -0.2951 -0.2495 -0.3211
  191SLPC   O2222076   2.920   5.333   6.430  0.2876  0.1410 -1.0342
  191SLPC   C2222077   3.047   5.531   6.493  0.1551 -0.6597  0.1626
  191SLPC   H2R22078   3.151   5.564   6.473  0.5006 -1.8941 -0.1421
  191SLPC   H2S22079   2.976   5.595   6.435 -0.0984 -0.6496  0.4843
  191SLPC    C322080   3.242   5.193   6.231  0.7434  0.5373  0.3559
  191SLPC    HX22081   3.310   5.260   6.173 -0.5004  1.5393  0.0419
  191SLPC    HY22082   3.226   5.110   6.159  0.0776 -0.4209  1.5989
  191SLPC   O3122083   3.293   5.123   6.341 -0.1373 -0.3228 -0.1362
  191SLPC   C3122084   3.412   5.166   6.387  0.9323  0.2895 -0.2059
  191SLPC   O3222085   3.482   5.255   6.344 -0.5252  0.3973  0.4345
  191SLPC   C3222086   3.437   5.087   6.514  0.7969 -0.2994  0.2634
  191SLPC   H2X22087   3.456   4.981   6.491  0.1955 -0.4443  0.4204
  191SLPC   H2Y22088   3.342   5.100   6.571  0.1506 -0.8840 -0.6788
  191SLPC   C2322089   3.014   5.517   6.641 -0.0219 -0.2119 -0.3306
  191SLPC   H3R22090   2.914   5.474   6.663  0.8455 -2.0740  0.0247
  191SLPC   H3S22091   3.016   5.616   6.691 -2.5854  0.2700 -1.0924
  191SLPC   C2422092   3.109   5.424   6.714  0.7545 -0.4858  0.5485
  191SLPC   H4R22093   3.213   5.447   6.683  0.5580  1.7020  1.3788
  191SLPC   H4S22094   3.080   5.321   6.684 -0.4333  0.3207 -1.1488
  191SLPC   C2522095   3.103   5.457   6.863 -0.3569 -0.5561  0.7560
  191SLPC   H5R22096   3.013   5.410   6.909 -1.0416 -1.2507 -1.2376
  191SLPC   H5S22097   3.071   5.563   6.863 -0.1624 -0.4955  0.8440
  191SLPC   C2622098   3.224   5.425   6.951  0.2380 -0.6612 -0.9274
  191SLPC   H6R22099   3.245   5.320   6.979 -0.1814 -0.3219  0.7596
  191SLPC   H6S22100   3.203   5.485   7.043  0.1068 -0.1692 -1.2751
  191SLPC   C2722101   3.354   5.491   6.898 -0.8900  0.1863  0.3850
  191SLPC   H7R22102   3.321   5.581   6.842  2.8915  0.9968 -0.6969
  191SLPC   H7S22103   3.406   5.419   6.831 -1.0721  1.2794 -0.9511
  191SLPC   C2822104   3.453   5.526   7.012 -0.8105 -0.4022 -0.7328
  191SLPC   H8R22105   3.542   5.566   6.959 -0.9740  1.1638  0.1328
  191SLPC   H8S22106   3.491   5.430   7.053  0.5690  0.8257  0.9629
  191SLPC   C2922107   3.407   5.631   7.110  0.2490  0.1943 -0.9260
  191SLPC   H9R22108   3.402   5.735   7.073 -0.1212  0.7129  0.5635
  191SLPC  C21022109   3.363   5.609   7.236  0.1942  0.3699  0.0976
  191SLPC  H10R22110   3.336   5.690   7.305 -0.9158 -0.1899  0.3262
  191SLPC  C21122111   3.355   5.471   7.290 -0.3213  0.2006 -0.1148
  191SLPC  H11R22112   3.362   5.384   7.221  0.3051 -0.5671  0.8966
  191SLPC  H11S22113   3.246   5.472   7.314  0.0298  0.6765  1.5262
  191SLPC  C21222114   3.435   5.449   7.413  0.0744 -0.3339  0.5779
  191SLPC  H12R22115   3.538   5.486   7.402  0.3340 -1.4571 -0.8872
  191SLPC  C21322116   3.401   5.377   7.518 -0.2940 -1.0013  0.1651
  191SLPC  H13R22117   3.486   5.376   7.588 -0.3541  0.5316  0.2862
  191SLPC  C21422118   3.267   5.304   7.553 -0.3979 -0.4233 -0.3666
  191SLPC  H14R22119   3.271   5.215   7.619  1.2097 -0.0340  0.0763
  191SLPC  H14S22120   3.216   5.269   7.460  2.5240  0.5819 -2.3878
  191SLPC  C21522121   3.169   5.413   7.620 -0.9115 -0.0376  0.2742
  191SLPC  H15R22122   3.084   5.363   7.670 -0.0361 -1.4202  0.3983
  191SLPC  H15S22123   3.134   5.470   7.531  0.9838 -0.3034 -0.6649
  191SLPC  C21622124   3.234   5.508   7.728 -0.2702 -0.2583 -0.5357
  191SLPC  H16R22125   3.294   5.584   7.674  0.4073  0.9281  1.8532
  191SLPC  H16S22126   3.305   5.436   7.776 -1.0135 -0.1953  0.6709
  191SLPC  C21722127   3.141   5.552   7.836  0.1088  0.0080 -0.3706
  191SLPC  H17R22128   3.091   5.459   7.872 -0.8566  0.4485 -0.5535
  191SLPC  H17S22129   3.067   5.623   7.793  1.4647  1.2920 -0.6157
  191SLPC  C21822130   3.211   5.612   7.953 -0.2524 -0.3201  0.5594
  191SLPC  H18R22131   3.278   5.534   7.996  2.8310  1.7504 -0.3752
  191SLPC  H18S22132   3.139   5.640   8.033 -0.0798  0.4853  0.4285
  191SLPC  H18T22133   3.267   5.704   7.927 -3.6906  1.8735  0.6520
  191SLPC   C3322134   3.555   5.144   6.584  0.4345 -0.2138 -0.1790
  191SLPC   H3X22135   3.543   5.249   6.617  0.8001  0.4519 -2.1125
  191SLPC   H3Y22136   3.638   5.146   6.511  0.2507  0.9700 -0.3570
  191SLPC   C3422137   3.598   5.071   6.713 -0.6050 -0.0435  0.2825
  191SLPC   H4X22138   3.701   5.103   6.738  0.4762 -1.1644 -2.5158
  191SLPC   H4Y22139   3.596   4.960   6.705 -0.6207 -0.0781  0.7464
  191SLPC   C3522140   3.518   5.114   6.832  0.0787 -0.5586  0.0436
  191SLPC   H5X22141   3.409   5.107   6.816  0.2917 -0.7811 -1.3625
  191SLPC   H5Y22142   3.542   5.217   6.864 -1.2783  0.2855 -1.6088
  191SLPC   C3622143   3.548   5.030   6.954 -0.9399 -0.1521 -0.1102
  191SLPC   H6X22144   3.658   5.041   6.969 -0.9253  0.2190 -0.4756
  191SLPC   H6Y22145   3.524   4.928   6.919  0.0710 -0.3659 -0.2143
  191SLPC   C3722146   3.470   5.071   7.085  1.1148 -0.2029 -0.4947
  191SLPC   H7X22147   3.367   5.032   7.074  1.0495 -1.3694  3.6131
  191SLPC   H7Y22148   3.467   5.182   7.094 -2.1897 -0.2412 -0.4695
  191SLPC   C3822149   3.520   5.015   7.213  0.1612 -0.1178  0.6043
  191SLPC   H8X22150   3.610   5.076   7.235 -0.2654  0.5059  0.6100
  191SLPC   H8Y22151   3.545   4.907   7.206  1.1416  0.1723 -0.4852
  191SLPC   C3922152   3.434   5.035   7.337 -0.1898  0.2916 -0.7002
  191SLPC   H9X22153   3.331   5.020   7.299  0.5307 -0.0043 -2.5917
  191SLPC   H9Y22154   3.434   5.140   7.375  1.5281 -0.5169  1.6384
  191SLPC  C31022155   3.463   4.927   7.445 -0.1880  0.8372 -0.0802
  191SLPC  H10X22156   3.572   4.911   7.460 -0.2057  0.1738 -0.6557
  191SLPC  H10Y22157   3.426   4.829   7.410  1.1234  0.3738 -0.2165
  191SLPC  C31122158   3.412   4.958   7.582 -0.1549 -1.0465 -0.4180
  191SLPC  H11X22159   3.303   4.983   7.581 -0.6995 -3.1185  1.8065
  191SLPC  H11Y22160   3.467   5.044   7.625 -1.5662  0.6559 -1.9407
  191SLPC  C31222161   3.430   4.849   7.687 -0.2644 -0.2805  0.1655
  191SLPC  H12X22162   3.517   4.789   7.652 -0.2388 -0.1435 -0.0024
  191SLPC  H12Y22163   3.347   4.776   7.676 -0.4167  0.1068 -1.2660
  191SLPC  C31322164   3.444   4.889   7.835  0.4104 -0.6554 -0.1767
  191SLPC  H13X22165   3.369   4.963   7.871  0.6267  0.1192 -1.2645
  191SLPC  H13Y22166   3.537   4.948   7.849 -1.0168  2.0118 -1.5031
  191SLPC  C31422167   3.437   4.774   7.929  0.0179  0.2681  0.1000
  191SLPC  H14X22168   3.525   4.707   7.917 -1.0854 -1.1529 -0.2302
  191SLPC  H14Y22169   3.338   4.725   7.926  0.6236 -0.9671 -0.2559
  191SLPC  C31522170   3.465   4.807   8.081 -0.3173  0.2792  0.6041
  191SLPC  H15X22171   3.562   4.858   8.093 -0.2845 -0.0765  1.8934
  191SLPC  H15Y22172   3.454   4.712   8.137 -1.9617  1.3740  2.2022
  191SLPC  C31622173   3.362   4.901   8.141 -0.5166 -0.4288  0.3267
  191SLPC  H16X22174   3.261   4.866   8.113 -1.6485  0.9499  2.5310
  191SLPC  H16Y22175   3.373   5.009   8.115  1.0271 -0.7162 -0.2696
  191SLPC  C31722176   3.367   4.897   8.291  0.0598 -0.4714  0.1102
  191SLPC  H17X22177   3.313   4.809   8.332  2.3213 -1.0925  1.9030
  191SLPC  H17Y22178   3.321   4.986   8.338  0.7426 -0.0201 -0.0783
  191SLPC  C31822179   3.505   4.890   8.352 -0.4996 -0.3549  0.3666
  191SLPC  H18X22180   3.492   4.901   8.462 -0.4217  2.0172  0.1606
  191SLPC  H18Y22181   3.569   4.970   8.310  1.1287 -1.8810 -0.0970
  191SLPC  H18Z22182   3.563   4.796   8.340  3.0786  1.7604  0.5167
  192SLPC     N22183   3.797   6.045   6.119  0.2070 -0.4387 -0.0574
  192SLPC   C1322184   3.803   6.129   5.995 -0.0779  0.8173 -0.7822
  192SLPC  H13A22185   3.721   6.117   5.926 -1.8722  0.8740  1.2725
  192SLPC  H13B22186   3.816   6.232   6.025  3.1246 -0.3110  2.0828
  192SLPC  H13C22187   3.892   6.107   5.938 -0.0250 -0.7126 -0.1415
  192SLPC   C1422188   3.790   5.895   6.084  0.2631 -0.3938 -0.7834
  192SLPC  H14A22189   3.808   5.831   6.169  0.1105 -0.6770 -0.9639
  192SLPC  H14B22190   3.688   5.878   6.053 -0.8996  0.9850  2.0855
  192SLPC  H14C22191   3.860   5.862   6.009  1.1036 -0.0861 -0.1445
  192SLPC   C1522192   3.666   6.070   6.192  0.6720  0.6743  0.1794
  192SLPC  H15A22193   3.665   6.175   6.217 -0.9931  0.6215  0.4281
  192SLPC  H15B22194   3.579   6.048   6.132  0.6995 -0.2762  0.4810
  192SLPC  H15C22195   3.666   6.010   6.282 -1.6505  1.6411  0.8742
  192SLPC   C1222196   3.920   6.073   6.205  0.6937  0.1812 -0.6951
  192SLPC  H12A22197   3.914   6.175   6.241 -2.1515  0.0702 -0.7046
  192SLPC  H12B22198   4.002   6.072   6.135 -0.5097  2.1444 -2.1563
  192SLPC   C1122199   3.946   5.981   6.330 -0.0690 -0.1341  0.5923
  192SLPC  H11A22200   4.030   6.026   6.386  1.2271 -2.2585  0.3893
  192SLPC  H11B22201   3.989   5.887   6.291 -1.3857  0.4040 -2.3202
  192SLPC     P22202   3.868   5.890   6.554  0.3792  0.4482 -0.2134
  192SLPC   O1322203   3.936   5.757   6.528 -0.0519 -0.3423 -0.2167
  192SLPC   O1422204   3.942   5.985   6.631 -0.3499 -0.0278  0.9451
  192SLPC   O1222205   3.832   5.954   6.412 -0.2056  0.0603  0.4694
  192SLPC   O1122206   3.723   5.860   6.617  0.1719  0.1578  0.8458
  192SLPC    C122207   3.665   5.732   6.615 -0.4427  0.1676 -0.2935
  192SLPC    HA22208   3.557   5.758   6.608 -0.3209  1.0128  0.6849
  192SLPC    HB22209   3.692   5.670   6.528 -0.0901  0.8056 -0.6413
  192SLPC    C222210   3.690   5.646   6.746 -0.1030  0.2710 -0.9306
  192SLPC    HS22211   3.598   5.662   6.808  1.0035  0.3050  0.7328
  192SLPC   O2122212   3.804   5.700   6.813  0.2144  0.1389 -0.3639
  192SLPC   C2122213   3.786   5.779   6.914  0.7920 -0.1036 -0.0495
  192SLPC   O2222214   3.688   5.827   6.958  0.9934 -0.1953 -0.0187
  192SLPC   C2222215   3.928   5.804   6.971 -0.2046  0.5972  0.3039
  192SLPC   H2R22216   3.967   5.707   7.010 -0.3410  0.1228 -0.7376
  192SLPC   H2S22217   4.000   5.833   6.893  1.4412 -1.3258  1.0583
  192SLPC    C322218   3.693   5.491   6.727  0.2322 -0.6054  0.0759
  192SLPC    HX22219   3.766   5.461   6.648 -0.5206 -0.1503 -0.7948
  192SLPC    HY22220   3.597   5.467   6.677 -0.3810  0.0630  0.9266
  192SLPC   O3122221   3.705   5.416   6.845  0.1545  0.0663  0.3051
  192SLPC   C3122222   3.826   5.399   6.891 -0.4028 -0.3291 -0.4249
  192SLPC   O3222223   3.931   5.435   6.844 -0.1408  0.8701  0.1292
  192SLPC   C3222224   3.812   5.312   7.016  0.3934  0.2332  0.0897
  192SLPC   H2X22225   3.857   5.218   6.978 -0.0947  0.3423 -0.7739
  192SLPC   H2Y22226   3.707   5.283   7.036  0.9808  0.2530  3.6206
  192SLPC   C2322227   3.935   5.901   7.093  0.1977  0.5903  0.3150
  192SLPC   H3R22228   3.883   6.000   7.091 -0.3435  0.3425  1.6181
  192SLPC   H3S22229   4.041   5.934   7.101 -0.3812  2.2593  1.6276
  192SLPC   C2422230   3.911   5.821   7.223  0.2363 -0.0170 -0.4808
  192SLPC   H4R22231   3.967   5.725   7.218  2.7928  1.3442  1.2622
  192SLPC   H4S22232   3.804   5.792   7.215  0.0543  0.2987  0.8361
  192SLPC   C2522233   3.942   5.907   7.354 -0.5108  0.7614 -0.3151
  192SLPC   H5R22234   3.910   5.844   7.440  1.1022  2.2520  1.4186
  192SLPC   H5S22235   3.874   5.995   7.361 -1.2660  0.0890  1.4075
  192SLPC   C2622236   4.081   5.947   7.374 -0.0466  0.0230 -0.3812
  192SLPC   H6R22237   4.120   6.008   7.290 -0.6027  1.8740  0.6895
  192SLPC   H6S22238   4.148   5.858   7.369  0.3945  0.3728 -0.8121
  192SLPC   C2722239   4.104   6.029   7.509  0.7474 -0.2350 -0.4757
  192SLPC   H7R22240   4.063   6.132   7.510 -2.6019 -1.4910 -1.1196
  192SLPC   H7S22241   4.215   6.032   7.507  0.7347  1.7836  0.3323
  192SLPC   C2822242   4.057   5.957   7.644 -0.8342  0.7704  0.2271
  192SLPC   H8R22243   3.946   5.959   7.654 -1.0001  0.4160 -1.4078
  192SLPC   H8S22244   4.082   6.023   7.729 -0.5215 -0.1569  0.8648
  192SLPC   C2922245   4.123   5.829   7.682  0.0375  0.2117 -0.1848
  192SLPC   H9R22246   4.232   5.838   7.680  0.0602  0.1368  0.6321
  192SLPC  C21022247   4.064   5.709   7.705  0.1569  0.2882 -0.0668
  192SLPC  H10R22248   4.136   5.630   7.731  1.4109  1.0588 -1.1426
  192SLPC  C21122249   3.918   5.675   7.708  0.0530  0.3412  0.3122
  192SLPC  H11R22250   3.905   5.573   7.751 -0.2688  0.3384  0.2063
  192SLPC  H11S22251   3.887   5.666   7.602 -0.6953 -0.3853  0.5907
  192SLPC  C21222252   3.823   5.748   7.796  0.9292  0.3766  0.1015
  192SLPC  H12R22253   3.873   5.813   7.869  1.7736 -0.8122  0.6009
  192SLPC  C21322254   3.687   5.763   7.780  0.3073  0.2659 -0.8106
  192SLPC  H13R22255   3.636   5.839   7.842 -0.2364  0.5028 -1.5482
  192SLPC  C21422256   3.591   5.697   7.679 -0.7113  0.6894  0.2266
  192SLPC  H14R22257   3.536   5.616   7.731 -0.0170  0.7920  1.1430
  192SLPC  H14S22258   3.640   5.643   7.595 -1.1165  0.1294  0.3480
  192SLPC  C21522259   3.498   5.795   7.614 -0.7940  0.3621  0.2956
  192SLPC  H15R22260   3.451   5.857   7.694  0.0398 -1.5868  2.3376
  192SLPC  H15S22261   3.419   5.743   7.556  0.4024 -0.7735 -0.3221
  192SLPC  C21622262   3.581   5.899   7.519 -0.1651  0.2858  0.2176
  192SLPC  H16R22263   3.522   5.914   7.426 -0.5440 -0.4500  0.3374
  192SLPC  H16S22264   3.678   5.853   7.491 -0.3019  0.1353 -0.0128
  192SLPC  C21722265   3.600   6.046   7.574  0.8093  0.1167  0.4386
  192SLPC  H17R22266   3.670   6.043   7.661  0.5873  1.2823  0.6626
  192SLPC  H17S22267   3.651   6.102   7.492  0.1481  1.4048  0.9006
  192SLPC  C21822268   3.472   6.110   7.633 -0.7904 -0.6016 -0.6113
  192SLPC  H18R22269   3.460   6.074   7.737 -1.0793 -0.8421 -0.7254
  192SLPC  H18S22270   3.381   6.081   7.576 -0.9431 -1.9355  0.2768
  192SLPC  H18T22271   3.490   6.219   7.637  0.5395 -0.8917  1.9794
  192SLPC   C3322272   3.891   5.365   7.144 -0.6276 -0.3732 -0.3066
  192SLPC   H3X22273   3.960   5.447   7.115  0.4465 -1.1113  0.1517
  192SLPC   H3Y22274   3.952   5.280   7.179  1.0120  0.4678 -1.0449
  192SLPC   C3422275   3.798   5.418   7.247  0.2169  0.3212 -0.8009
  192SLPC   H4X22276   3.713   5.347   7.252  0.1559  0.4240 -0.3392
  192SLPC   H4Y22277   3.761   5.519   7.218  0.2302 -0.0856 -2.2396
  192SLPC   C3522278   3.856   5.444   7.390  0.4637  0.4339  0.7009
  192SLPC   H5X22279   3.773   5.477   7.456  0.4999 -0.3337  1.1377
  192SLPC   H5Y22280   3.923   5.529   7.364  0.0409  1.2537  2.2391
  192SLPC   C3622281   3.941   5.337   7.453 -1.0959 -0.4276 -0.8858
  192SLPC   H6X22282   3.978   5.376   7.550 -0.2623  0.6941 -1.6393
  192SLPC   H6Y22283   4.036   5.326   7.396 -0.2254  2.6119 -0.1094
  192SLPC   C3722284   3.868   5.202   7.478 -0.3907 -0.3304 -0.1361
  192SLPC   H7X22285   3.946   5.134   7.518 -0.2704  0.5335  1.0930
  192SLPC   H7Y22286   3.851   5.161   7.376 -1.2603 -0.5901  0.1085
  192SLPC   C3822287   3.740   5.219   7.564  0.7625  0.3034  0.2535
  192SLPC   H8X22288   3.682   5.128   7.542 -1.8123  1.5240  1.7838
  192SLPC   H8Y22289   3.682   5.303   7.519  1.3310  1.1996  1.1480
  192SLPC   C3922290   3.781   5.242   7.711  0.3318  0.2862  0.4347
  192SLPC   H9X22291   3.839   5.337   7.716 -0.5259  1.0420 -2.7381
  192SLPC   H9Y22292   3.844   5.158   7.746 -1.1700 -0.7060  0.7899
  192SLPC  C31022293   3.654   5.264   7.799 -0.5420 -0.7732 -0.3394
  192SLPC  H10X22294   3.586   5.179   7.780  0.5897 -1.6787 -0.3728
  192SLPC  H10Y22295   3.604   5.362   7.780 -1.1815 -0.6429  1.8158
  192SLPC  C31122296   3.689   5.265   7.949 -0.7970  0.0236  0.4046
  192SLPC  H11X22297   3.738   5.359   7.980  1.0423 -0.1478 -1.9016
  192SLPC  H11Y22298   3.757   5.182   7.979 -2.9881 -1.2897  1.9558
  192SLPC  C31222299   3.566   5.250   8.035  0.8808  0.3384 -0.5956
  192SLPC  H12X22300   3.591   5.200   8.131 -1.4901  2.1566  1.0294
  192SLPC  H12Y22301   3.494   5.184   7.983  2.4460 -0.8680 -1.2966
  192SLPC  C31322302   3.486   5.376   8.069 -0.4066  0.0656  0.0202
  192SLPC  H13X22303   3.455   5.419   7.971  0.4620  0.3518 -0.1378
  192SLPC  H13Y22304   3.568   5.445   8.099  0.3752 -0.1448 -1.5645
  192SLPC  C31422305   3.398   5.385   8.190  0.3682  0.3748  0.3332
  192SLPC  H14X22306   3.313   5.313   8.195  2.0942 -2.0603 -3.2381
  192SLPC  H14Y22307   3.359   5.489   8.193  0.3631  0.3444  2.0732
  192SLPC  C31522308   3.455   5.350   8.330  0.1393 -0.3097  0.0175
  192SLPC  H15X22309   3.545   5.414   8.346  1.0602 -1.3420 -1.0242
  192SLPC  H15Y22310   3.488   5.245   8.321 -1.3008 -0.5856 -2.2004
  192SLPC  C31622311   3.359   5.365   8.448 -0.5934  0.2837  0.4783
  192SLPC  H16X22312   3.278   5.430   8.411  0.1756  0.6329 -0.6112
  192SLPC  H16Y22313   3.404   5.422   8.532 -0.5375 -1.6140  1.7846
  192SLPC  C31722314   3.304   5.232   8.498 -0.1603 -0.5964  0.3385
  192SLPC  H17X22315   3.386   5.164   8.529  0.9157 -0.5909 -2.3804
  192SLPC  H17Y22316   3.251   5.172   8.421 -1.2263 -1.4433  1.6944
  192SLPC  C31822317   3.213   5.244   8.628  0.0042  0.1643  0.4361
  192SLPC  H18X22318   3.128   5.309   8.598 -0.7427 -1.0289 -0.0531
  192SLPC  H18Y22319   3.274   5.300   8.702 -1.5602  1.3186  0.8892
  192SLPC  H18Z22320   3.180   5.150   8.676  1.5407  1.1136  3.5054
  193SOD    SOD22321   2.206   3.846   0.118 -0.3304  0.0505 -0.3133
  194SOD    SOD22322   1.729   2.702  16.617  0.1474  0.2423 -0.2701
  195SOD    SOD22323   0.719   3.612  14.920 -0.2870 -0.0558  0.3557
  196SOD    SOD22324   0.846   4.062   5.521  0.6473 -0.2159 -0.0926
  197SOD    SOD22325   3.313   5.857  10.690 -0.0438  0.4870 -0.2585
  198SOD    SOD22326   2.484   3.524  15.751  0.3483 -0.0684 -0.6028
  199SOD    SOD22327   0.672   4.603   2.121  0.0214 -0.0020  0.0119
  200SOD    SOD22328   0.824   4.814   0.414  0.3116 -0.3887  0.2573
  201SOD    SOD22329   0.155   2.459  15.545 -0.1499  0.3977  0.5970
  202SOD    SOD22330   5.842   4.062   0.771 -0.2715  0.5744  0.3391
  203SOD    SOD22331   5.996   1.466   5.195 -0.2311  0.0241  0.2905
  204SOD    SOD22332   2.114   1.316  11.685 -0.2297 -0.3683 -0.4060
  205SOD    SOD22333   6.088   5.524   3.694  0.5279  0.0647  0.1390
  206SOD    SOD22334   4.709   0.441   2.940  0.1935  0.0336  0.2916
  207SOD    SOD22335   5.948   3.426   3.991  0.1585  0.4962 -0.4697
  208SOD    SOD22336   5.712   5.622  13.396  0.7050 -0.3880  0.5486
  209SOD    SOD22337   1.015   1.139  14.871 -0.1809  0.0176 -0.0961
  210SOD    SOD22338   5.000   6.685   5.806 -0.2287  0.0194 -0.3589
  211SOD    SOD22339   5.109   0.820  13.710  0.0916 -0.3596  0.0018
  212SOD    SOD22340   0.325   1.968  11.414 -0.0711  0.0562  0.5144
  213SOD    SOD22341   4.447   0.920  10.863 -0.2588  0.2821  0.1463
  214SOD    SOD22342   6.669   5.110   1.826 -0.0875  0.4064 -0.2033
  215SOD    SOD22343   5.651   3.426   0.556  0.0278 -0.2459  0.6276
  216SOD    SOD22344   5.753   3.343  10.751  0.2665 -0.0765  0.0283
  217SOD    SOD22345   1.471   0.640   6.113 -0.5048 -0.3183 -0.3139
  218SOD    SOD22346   3.358   4.293   6.533 -0.5825 -0.2002  0.2614
  219SOD    SOD22347   5.930   4.084  16.641 -0.2430  0.5932  0.6122
  220SOD    SOD22348   3.610   5.761  15.530  0.5529  0.4003 -0.3060
  221SOD    SOD22349   4.590   2.469  13.799  0.1705  0.1105 -0.1680
  222SOD    SOD22350   4.437   0.099  12.881  0.3550  0.3700 -0.4225
  223SOD    SOD22351   2.722   0.489   5.370  0.0323  0.0009  0.3428
  224SOD    SOD22352   4.599   3.154   3.417  0.0826  0.0767 -0.4929
  225SOD    SOD22353   0.390   2.346   5.466 -0.2284  0.0361  0.1751
  226SOD    SOD22354   0.114   4.082   1.109 -0.0764 -0.3789 -0.1138
  227SOD    SOD22355   1.934   6.541  16.134  0.1326 -0.4679 -0.1386
  228SOD    SOD22356   5.998   0.375   6.356 -0.5828 -0.3317  0.0631
  229SOD    SOD22357   4.202   1.978   4.986 -0.1573 -0.3875  0.2393
  230SOD    SOD22358   2.202   1.213  13.936 -0.2865 -0.0621  0.1283
  231SOD    SOD22359   2.935   3.884  10.737  0.6979  0.8623 -0.5387
  232SOD    SOD22360   2.522   5.262   6.195  0.7266 -0.3955  0.0690
  233SOD    SOD22361   1.327   6.395   3.534 -0.3783  0.3414 -0.1166
  234SOD    SOD22362   0.609   5.690  14.596 -0.2266 -0.3749  0.1514
  235SOD    SOD22363   3.452   0.102   6.510 -0.1128 -0.2320  0.0635
  236SOD    SOD22364   3.392   4.530   0.436 -0.3431 -0.1403 -0.0475
  237SOD    SOD22365   4.857   2.391  14.740  0.1078 -0.0846  0.4759
  238SOD    SOD22366   3.745   0.793  15.165 -0.3473 -0.2662  0.3983
  239SOD    SOD22367   6.581   4.331  11.700  0.1113  0.1853 -0.9708
  240SOD    SOD22368   0.228   5.447   3.034  0.1437  0.4756  0.0037
  241SOD    SOD22369   1.474   0.614  15.183  0.6128 -0.0006  0.0913
  242SOD    SOD22370   1.031   2.506  11.959 -0.2450 -0.1573  0.2993
  243SOD    SOD22371   4.405   4.998   5.487 -0.0922 -0.2832 -0.1909
  244SOD    SOD22372   1.770   1.699   3.316  0.1789  0.2208 -0.1479
  245SOD    SOD22373   5.236   0.380  11.131 -0.2569 -0.1521  0.4942
  246SOD    SOD22374   3.285   3.470   4.723 -0.4289 -0.1956  0.0383
  247SOD    SOD22375   4.139   5.278   4.490 -0.2431  0.3148  0.8938
  248SOD    SOD22376   4.329   4.399  12.842 -0.2522  0.3460  0.3122
  249SOD    SOD22377   5.164   4.912  11.842  0.6236 -0.3081 -0.2924
  250SOD    SOD22378   4.415   4.230   5.520  0.1845  0.2912 -0.3737
  251SOD    SOD22379   1.559   5.001   4.453  0.4506 -0.2390  0.9007
  252SOD    SOD22380   5.269   2.925  11.023 -0.0969  0.2368 -0.7744
  253SOD    SOD22381   3.754   2.592   6.216  0.1272 -0.2666 -0.0047
  254SOD    SOD22382   5.494   5.882   5.931 -0.0492  0.3926  0.1027
  255SOD    SOD22383   2.113   2.955  11.023 -0.0475 -0.3288 -0.0159
  256SOD    SOD22384   2.357   4.532  11.576 -0.2074 -0.1340  0.8232
  257SOD    SOD22385   4.641   3.060  16.968 -0.1446  0.0014 -0.6741
  258SOD    SOD22386   4.305   0.850  13.871  0.4225  0.2758  0.0345
  259SOD    SOD22387   6.076   0.286  15.481  0.0826  0.1481 -0.0692
  260SOD    SOD22388   1.491   2.234  11.713 -0.0312  0.0290  0.2521
  261SOD    SOD22389   0.898   5.567  10.590  0.3775 -0.4552 -0.1465
  262SOD    SOD22390   5.690   5.333  14.199  0.4678 -0.3091  0.1365
  263SOD    SOD22391   2.889   4.018   3.697  0.0285  0.1416  0.3065
  264SOD    SOD22392   5.171   3.388   2.116  0.4446 -0.2476 -0.2436
  265SOD    SOD22393   2.109   1.090   0.842  0.3504 -0.7972 -0.2267
  266CLA    CLA22394   1.357   6.305   3.794  0.1624 -0.1285 -0.1875
  267CLA    CLA22395   0.559   3.598   5.353  0.2220 -0.3185 -0.5297
  268CLA    CLA22396   4.790   1.539  12.987 -0.2184  0.6914 -0.1382
  269CLA    CLA22397   1.716   2.452  14.202 -0.0276 -0.1676  0.3211
  270CLA    CLA22398   1.038   1.678  14.363  0.2891  0.0588  0.2139
  271CLA    CLA22399   1.437   6.587  12.523 -0.0974  0.0507 -0.0759
  272CLA    CLA22400   2.784   0.930   0.048 -0.4131 -0.1613  0.2890
  273CLA    CLA22401   5.214   1.862  14.859 -0.3083  0.1580 -0.1614
  274CLA    CLA22402   5.946   0.259   5.908  0.1490  0.1369 -0.1432
  275CLA    CLA22403   6.190   5.329  13.961  0.0241  0.4029 -0.0663
  276CLA    CLA22404   1.415   3.399  15.219  0.6387  0.2571 -0.0936
  277CLA    CLA22405   6.153   1.895   1.779  0.1643  0.1533 -0.3649
  278CLA    CLA22406   5.120   3.699   2.985  0.1530 -0.1522 -0.0658
  279CLA    CLA22407   4.651   0.708  12.785  0.1549 -0.3735 -0.3177
  280CLA    CLA22408   4.848   4.576   0.466 -0.0808 -0.1200 -0.2984
  281CLA    CLA22409   2.228   3.507   5.097  0.1705  0.0119 -0.3300
  282CLA    CLA22410   6.707   6.407   0.870  0.6097 -0.2443  0.0274
  283CLA    CLA22411   6.296   4.221   5.273 -0.3075 -0.0495 -0.0463
  284CLA    CLA22412   0.685   4.516  15.992 -0.2768 -0.2877 -0.6113
  285CLA    CLA22413   1.834   1.432   0.685 -0.1211  0.1479 -0.2803
  286CLA    CLA22414   3.405   6.319  13.362  0.0012  0.1453  0.0073
  287CLA    CLA22415   4.214   0.953   1.275  0.2022  0.4930 -0.1796
  288CLA    CLA22416   4.300   3.248  16.561 -0.0952  0.2532  0.2705
  289CLA    CLA22417   4.095   4.379   1.476 -0.2619 -0.0973  0.4527
  290CLA    CLA22418   0.998   4.958   4.766 -0.1215 -0.1175  0.2845
  291CLA    CLA22419   0.639   3.784   2.440  0.2391  0.3138  0.1284
  292CLA    CLA22420   3.171   6.191  15.925 -0.1531 -0.2672 -0.2731
  293CLA    CLA22421   3.766   2.249   1.286  0.0453  0.0832 -0.2267
  294CLA    CLA22422   3.398   4.030   0.352 -0.4640 -0.1638 -0.1504
  295CLA    CLA22423   0.494   6.469  14.965 -0.0472 -0.0223 -0.0212
  296CLA    CLA22424   6.110   3.717  14.991  0.1352 -0.2110  0.1714
  297CLA    CLA22425   4.076   5.002  14.322  0.1274  0.3740 -0.1938
  298CLA    CLA22426   1.509   3.841   0.167 -0.6326 -0.0490 -0.1075
  299CLA    CLA22427   2.666   1.103  15.626  0.1169 -0.2800 -0.1858
  300CLA    CLA22428   4.105   0.968  15.729  0.0302 -0.0452  0.1384
  301CLA    CLA22429   6.669   5.768   3.069 -0.0480  0.0587 -0.0957
  302CLA    CLA22430   3.272   3.252   3.817 -0.2246 -0.1997  0.1463
  303CLA    CLA22431   5.438   3.245   5.414 -0.1845  0.2879 -0.1223
  304CLA    CLA22432   2.066   1.736   2.819  0.0154 -0.1354  0.0369
  305CLA    CLA22433   1.232   6.233   4.791  0.2633  0.1869 -0.0157
  306CLA    CLA22434   2.446   4.586  12.887  0.1084  0.3354  0.3850
  307CLA    CLA22435   5.402   4.269   2.663 -0.3911 -0.1738 -0.0712
  308CLA    CLA22436   0.095   3.631   2.297 -0.3005 -0.1352 -0.0140
  309CLA    CLA22437   5.887   2.880   0.870  0.1018 -0.0359  0.3499
  310CLA    CLA22438   4.824   4.684   3.552  0.2046 -0.3514  0.0689
  311CLA    CLA22439   2.392   1.564   4.724 -0.0953  0.0002  0.1197
  312CLA    CLA22440   5.616   3.763  16.818  0.1407 -0.0571  0.0968
  313CLA    CLA22441   4.631   6.534  12.641 -0.0519 -0.3542  0.0365
  314CLA    CLA22442   4.955   0.720  14.683  0.0899  0.1209  0.0703
  315CLA    CLA22443   4.687   2.703  12.215 -0.1283 -0.1768  0.4982
  316CLA    CLA22444   6.815   4.491  12.312 -0.4720 -0.0124 -0.1832
  317CLA    CLA22445   1.637   5.925  13.504 -0.0757 -0.2612 -0.3680
  318CLA    CLA22446   1.735   5.500  12.003  0.0272  0.4433 -0.0265
  319TIP3   OH222447   1.368   2.028   2.039  0.9586 -0.3880 -0.1774
  319TIP3    H122448   1.364   2.069   1.952  0.5264  0.7069  0.3399
  319TIP3    H222449   1.294   1.968   2.040 -1.2252  2.1944  0.6740
  320TIP3   OH222450   5.325   0.470  10.760  0.5808  0.4675  0.5300
  320TIP3    H122451   5.415   0.450  10.733  0.7741 -0.5147  1.8694
  320TIP3    H222452   5.312   0.419  10.839 -1.0149  0.9711  0.6007
  321TIP3   OH222453   3.255   0.705  16.803 -0.3724  0.6633 -0.0921
  321TIP3    H122454   3.176   0.736  16.846 -0.1867 -1.6387  1.9909
  321TIP3    H222455   3.224   0.667  16.720 -1.2156  1.3453 -0.0929
  322TIP3   OH222456   1.998   3.764  15.156 -1.3010  0.6565  0.0526
  322TIP3    H122457   2.006   3.744  15.062 -0.2584 -0.1983  0.3118
  322TIP3    H222458   1.914   3.726  15.181 -1.1000 -0.0422 -0.3090
  323TIP3   OH222459   5.916   0.892  11.920 -0.4062  0.3644 -0.0006
  323TIP3    H122460   5.999   0.845  11.916  0.7407  2.3809 -0.5784
  323TIP3    H222461   5.904   0.911  12.013 -0.2912 -0.0462  0.0994
  324TIP3   OH222462   2.594   3.555   2.058  0.5168 -0.4678 -0.2038
  324TIP3    H122463   2.502   3.535   2.072  0.0185  3.2893  2.4008
  324TIP3    H222464   2.640   3.501   2.122 -0.0059 -0.9973 -0.2694
  325TIP3   OH222465   4.189   0.377  14.848 -0.0793  0.1149  0.2788
  325TIP3    H122466   4.146   0.292  14.839 -1.5173  0.6636  1.5923
  325TIP3    H222467   4.278   0.356  14.876 -0.3880 -0.9743  0.4793
  326TIP3   OH222468   1.809   5.171  14.108 -0.5003  0.2903 -0.3693
  326TIP3    H122469   1.840   5.091  14.067 -0.6230  1.0003 -1.8635
  326TIP3    H222470   1.797   5.148  14.200 -1.3753 -1.6338 -0.9552
  327TIP3   OH222471   2.923   1.449   2.559 -0.5594  0.0756 -0.5901
  327TIP3    H122472   2.981   1.448   2.636  0.8556  1.7254 -1.6079
  327TIP3    H222473   2.880   1.363   2.561  2.1027 -1.3044  0.0523
  328TIP3   OH222474   4.931   2.024  10.644  0.2582 -0.4266 -0.1288
  328TIP3    H122475   4.925   2.118  10.627  1.8297 -0.2741  0.0409
  328TIP3    H222476   4.843   1.990  10.628 -0.2419  1.0276 -0.4834
  329TIP3   OH222477   2.726   1.830  13.968  0.1672  0.2009  0.2291
  329TIP3    H122478   2.817   1.848  13.946 -0.3252  1.1047 -1.1437
  329TIP3    H222479   2.678   1.906  13.934 -1.3401 -1.2192 -0.8796
  330TIP3   OH222480   0.473   6.258  14.708 -0.3403  0.3726 -0.0869
  330TIP3    H122481   0.532   6.188  14.737 -2.1017 -0.4848  1.5736
  330TIP3    H222482   0.439   6.296  14.789 -1.1614  1.6546 -1.0038
  331TIP3   OH222483   2.701   3.435  13.612  0.7818 -0.3898  0.2594
  331TIP3    H122484   2.733   3.391  13.534  1.4060  0.3809  0.0763
  331TIP3    H222485   2.616   3.394  13.629  0.9449 -1.0312 -0.4222
  332TIP3   OH222486   5.894   4.005   1.462 -0.1011 -0.2136 -0.3664
  332TIP3    H122487   5.923   4.094   1.484 -1.3367 -0.2719  1.6563
  332TIP3    H222488   5.871   4.010   1.369  0.6118  1.3665 -0.4825
  333TIP3   OH222489   6.003   3.123  16.414  0.0287  0.0046  0.5718
  333TIP3    H122490   5.950   3.115  16.493 -1.4716 -0.4709 -0.4353
  333TIP3    H222491   5.943   3.096  16.343  1.0717  1.2251 -0.8020
  334TIP3   OH222492   2.122   5.359  15.436 -0.4272 -0.1695 -0.0403
  334TIP3    H122493   2.108   5.265  15.448  0.6874 -0.6799 -2.3259
  334TIP3    H222494   2.070   5.381  15.358 -0.2341  0.9841  0.1530
  335TIP3   OH222495   5.519   3.764   5.844  0.0484 -0.0390 -0.4403
  335TIP3    H122496   5.477   3.846   5.868 -0.6085 -0.7374  0.8759
  335TIP3    H222497   5.568   3.784   5.765 -0.4369  1.5137 -0.3625
  336TIP3   OH222498   5.303   5.188  16.125 -0.2065  0.5606  0.4261
  336TIP3    H122499   5.319   5.159  16.036  1.7970 -0.6028  1.1472
  336TIP3    H222500   5.217   5.152  16.146  0.0628 -0.6000 -0.4389
  337TIP3   OH222501   6.222   0.998   3.909 -0.1711  0.6336  0.1253
  337TIP3    H122502   6.263   0.914   3.885  0.1939  0.9628 -0.4140
  337TIP3    H222503   6.282   1.037   3.972  0.9469  1.6412 -1.5250
  338TIP3   OH222504   2.504   5.043  10.951  0.2614 -0.1347 -0.1061
  338TIP3    H122505   2.576   5.068  10.893  1.2331 -1.1769  0.6287
  338TIP3    H222506   2.436   5.108  10.935  1.8295  1.5577  0.0747
  339TIP3   OH222507   2.238   3.175  15.128  0.5797  0.1884 -0.6044
  339TIP3    H122508   2.251   3.109  15.059 -1.0897 -0.0254 -0.7230
  339TIP3    H222509   2.326   3.190  15.163  0.9427 -2.4134 -0.3018
  340TIP3   OH222510   3.048   3.091  13.290 -0.0549  0.1655 -0.3506
  340TIP3    H122511   3.088   3.074  13.206  1.9407  0.7427  0.4586
  340TIP3    H222512   2.977   3.027  13.297  1.0429 -1.1985 -1.5803
  341TIP3   OH222513   0.907   5.639  13.313  0.5642  0.1205  0.3007
  341TIP3    H122514   0.904   5.549  13.283  0.9222  0.0226  0.5486
  341TIP3    H222515   0.967   5.683  13.252 -0.0880  0.3329 -0.1836
  342TIP3   OH222516   2.162   0.423  11.968 -0.6717 -0.4237 -0.1446
  342TIP3    H122517   2.158   0.414  12.063 -1.2317  0.1774 -0.1086
  342TIP3    H222518   2.106   0.498  11.948  3.5843  2.8550 -0.4183
  343TIP3   OH222519   5.373   2.484  14.420 -0.1631  0.2975 -0.2991
  343TIP3    H122520   5.404   2.574  14.404  1.6492 -0.5918 -1.9653
  343TIP3    H222521   5.448   2.429  14.396 -2.0118 -1.7728 -1.4338
  344TIP3   OH222522   1.909   6.409  15.689  0.2740 -0.1755  0.2655
  344TIP3    H122523   1.920   6.467  15.764  1.8730 -0.5890  0.3731
  344TIP3    H222524   1.996   6.373  15.674  0.0058  0.0423 -1.9117
  345TIP3   OH222525   2.696   0.389   2.761 -0.2067  0.5332  0.1723
  345TIP3    H122526   2.755   0.395   2.837 -1.2822 -0.4369  1.0925
  345TIP3    H222527   2.686   0.295   2.746 -1.8459  0.6850  0.2723
  346TIP3   OH222528   4.158   1.123  14.463 -0.0063  0.0117 -0.3078
  346TIP3    H122529   4.064   1.106  14.457  0.1410 -0.7047 -0.6175
  346TIP3    H222530   4.164   1.218  14.474 -0.7808  0.0169  0.1287
  347TIP3   OH222531   5.307   3.221  12.416  0.3536  0.0291 -0.1897
  347TIP3    H122532   5.268   3.280  12.351  0.7125  0.3380 -0.1205
  347TIP3    H222533   5.397   3.209  12.387  0.6774  0.6151  0.5695
  348TIP3   OH222534   2.690   4.589   4.968 -0.1029  0.6503 -0.3498
  348TIP3    H122535   2.631   4.647   5.015 -1.3937 -0.5032 -0.5332
  348TIP3    H222536   2.663   4.596   4.877 -0.8663 -0.9476 -0.2493
  349TIP3   OH222537   2.445   5.630   6.378  0.5224  0.0667  0.5485
  349TIP3    H122538   2.393   5.710   6.364  1.9753  0.4950 -2.8269
  349TIP3    H222539   2.536   5.659   6.373  1.0741 -1.8375 -1.1224
  350TIP3   OH222540   4.833   0.332   6.433  0.2261  0.2582  0.2678
  350TIP3    H122541   4.915   0.303   6.394  0.1085  1.9215 -1.2817
  350TIP3    H222542   4.765   0.299   6.374  0.0019  2.1950 -0.5790
  351TIP3   OH222543   2.477   1.608   0.716  0.1070 -0.0830 -0.4007
  351TIP3    H122544   2.420   1.624   0.641  0.3731 -2.2745 -1.1146
  351TIP3    H222545   2.565   1.631   0.684 -0.1707  2.1504  0.3252
  352TIP3   OH222546   0.515   3.477   1.836  0.1837 -0.7579  0.3946
  352TIP3    H122547   0.502   3.463   1.930  3.0134  1.6634  1.2120
  352TIP3    H222548   0.591   3.423   1.814  0.1412 -0.5372 -0.3068
  353TIP3   OH222549   5.890   3.940   1.195 -0.0035 -0.1289  0.0039
  353TIP3    H122550   5.833   3.867   1.216  0.2121 -0.1573  0.5176
  353TIP3    H222551   5.850   3.982   1.119 -1.4102  0.6289  1.1543
  354TIP3   OH222552   2.541   0.707   0.037 -0.0913  0.3182 -0.4705
  354TIP3    H122553   2.598   0.774   0.075 -1.8601  0.3552  2.2314
  354TIP3    H222554   2.591   0.626   0.044  0.0177  0.5007  1.0632
  355TIP3   OH222555   2.068   1.398   0.350 -0.5252 -0.2914  0.8749
  355TIP3    H122556   2.155   1.396   0.311 -1.4724  0.4507 -1.3246
  355TIP3    H222557   2.047   1.306   0.367  1.1248 -0.4127  2.5233
  356TIP3   OH222558   2.065   5.893  12.941  0.0054  0.5097 -0.9157
  356TIP3    H122559   2.154   5.859  12.953 -0.3780  0.0827  0.9064
  356TIP3    H222560   2.043   5.870  12.851  1.6422  0.3869 -1.3101
  357TIP3   OH222561   3.955   2.010  16.630 -0.0761 -0.3626 -0.2311
  357TIP3    H122562   3.959   2.028  16.724  0.1759  0.3132 -0.3734
  357TIP3    H222563   3.875   2.052  16.601  0.2488  0.0954 -0.4660
  358TIP3   OH222564   4.334   1.092  10.719  0.4970  0.3760 -0.5038
  358TIP3    H122565   4.251   1.069  10.761  1.1674 -0.7441  0.2602
  358TIP3    H222566   4.321   1.181  10.687 -1.1410  0.0607 -0.7675
  359TIP3   OH222567   1.381   3.677  11.793  0.4994  0.2798  0.2271
  359TIP3    H122568   1.453   3.664  11.730  0.3877  3.1937 -0.5778
  359TIP3    H222569   1.306   3.633  11.753  1.4112 -1.2683  0.2157
  360TIP3   OH222570   2.080   0.883   2.951  0.9071  0.0940  0.3092
  360TIP3    H122571   2.082   0.804   2.898 -0.9156 -0.8802  1.6621
  360TIP3    H222572   2.157   0.933   2.923  2.4831 -2.4757 -0.0362
  361TIP3   OH222573   2.721   4.793   2.583 -0.1742 -0.1252 -0.0074
  361TIP3    H122574   2.669   4.751   2.651 -0.0203 -1.6948 -0.8457
  361TIP3    H222575   2.768   4.722   2.540 -1.1673  0.6710 -2.5461
  362TIP3   OH222576   2.923   0.989   3.669  0.1677 -0.0733 -0.2158
  362TIP3    H122577   3.002   0.957   3.714 -0.3265 -0.2587  0.5225
  362TIP3    H222578   2.950   1.071   3.629  0.7711 -0.1933 -0.0593
  363TIP3   OH222579   0.836   3.508  13.217  0.8765 -0.8847 -0.0703
  363TIP3    H122580   0.831   3.426  13.267  2.4356 -1.5024 -0.8736
  363TIP3    H222581   0.930   3.524  13.208  0.6298 -0.6581 -2.5748
  364TIP3   OH222582   4.765   4.934   3.778  0.3864  0.1787 -0.0929
  364TIP3    H122583   4.850   4.961   3.815 -0.2616  2.5531 -0.2560
  364TIP3    H222584   4.779   4.844   3.749  2.2543 -0.1691  1.7709
  365TIP3   OH222585   1.118   5.860  14.673 -0.0452  0.2580 -0.2217
  365TIP3    H122586   1.037   5.814  14.694 -0.3186  0.4106 -0.9261
  365TIP3    H222587   1.178   5.791  14.645  0.4772 -0.0068  1.4772
  366TIP3   OH222588   3.493   4.987  11.410  0.1979 -0.0955 -0.1473
  366TIP3    H122589   3.495   5.038  11.329  0.7060 -1.4102 -0.9894
  366TIP3    H222590   3.585   4.977  11.434  0.4848 -4.2541 -2.4044
  367TIP3   OH222591   1.165   3.465  15.912  0.5811  0.2804 -0.4594
  367TIP3    H122592   1.253   3.483  15.879  0.6271 -1.1814 -1.1432
  367TIP3    H222593   1.143   3.543  15.964  1.3942  1.6098 -2.0681
  368TIP3   OH222594   1.848   3.566  10.421  0.2691 -0.2374 -0.0777
  368TIP3    H122595   1.926   3.610  10.385  0.2042 -0.1612 -0.1272
  368TIP3    H222596   1.784   3.637  10.431  0.6792 -0.0409  1.2999
  369TIP3   OH222597   2.376   0.725   2.366 -0.1346 -0.1021 -0.3173
  369TIP3    H122598   2.313   0.673   2.416 -0.0008  0.7256  0.7148
  369TIP3    H222599   2.429   0.769   2.432  0.2804  0.7184 -1.1894
  370TIP3   OH222600   6.793   2.979  11.769 -0.6713  1.1570 -0.6173
  370TIP3    H122601   6.728   3.044  11.744 -0.8869  0.9951 -0.4768
  370TIP3    H222602   6.798   2.985  11.865 -1.3384  0.3463 -0.5336
  371TIP3   OH222603   0.791   3.793  15.068  0.4943  0.0014  0.0300
  371TIP3    H122604   0.858   3.851  15.031 -0.2085 -0.8885 -2.7610
  371TIP3    H222605   0.741   3.848  15.127  2.0119  1.3564  0.0723
  372TIP3   OH222606   3.752   1.479   1.370 -0.2136 -0.4257  0.1369
  372TIP3    H122607   3.766   1.574   1.362 -0.9754 -0.4515 -1.7176
  372TIP3    H222608   3.663   1.471   1.405 -0.7829 -0.4575 -1.2732
  373TIP3   OH222609   5.757   5.910   6.305 -0.2147  0.7493  0.4317
  373TIP3    H122610   5.666   5.928   6.329 -0.9447 -1.1432 -0.8309
  373TIP3    H222611   5.771   5.819   6.331  0.9062  0.6180 -0.6132
  374TIP3   OH222612   6.151   2.103   4.343  0.0039 -0.2633  0.0309
  374TIP3    H122613   6.123   2.022   4.301  1.6369 -0.9053  0.1402
  374TIP3    H222614   6.173   2.077   4.433 -1.5374  0.7163  0.7092
  375TIP3   OH222615   1.555   6.705   5.538 -0.8565 -0.1666 -0.0964
  375TIP3    H122616   1.613   6.644   5.584 -1.4305 -1.3756 -0.9461
  375TIP3    H222617   1.593   6.713   5.450 -1.9743 -0.9705 -0.6609
  376TIP3   OH222618   1.865   4.929  16.899  0.1202 -0.0020 -0.9003
  376TIP3    H122619   1.776   4.900  16.918  0.0108 -0.1219 -1.5973
  376TIP3    H222620   1.873   5.014  16.943 -0.2496 -0.1067 -0.6271
  377TIP3   OH222621   2.098   5.114   2.776 -0.3371 -0.6193 -0.5008
  377TIP3    H122622   2.165   5.178   2.799 -1.1837  0.3879 -0.7732
  377TIP3    H222623   2.101   5.109   2.680 -0.4263 -0.8171 -0.4941
  378TIP3   OH222624   1.235   2.378  12.614  0.1972 -0.0885  0.2664
  378TIP3    H122625   1.147   2.371  12.650  0.4452 -1.1733  0.6511
  378TIP3    H222626   1.277   2.447  12.666 -0.3404  0.2771  0.2235
  379TIP3   OH222627   2.949   5.469  11.050  0.0075  0.1081 -0.2864
  379TIP3    H122628   2.971   5.490  10.960 -0.9323  0.1539 -0.5086
  379TIP3    H222629   3.001   5.391  11.070  0.7154  0.4853 -0.6487
  380TIP3   OH222630   0.577   1.569  12.763 -0.0991 -0.2324  0.4208
  380TIP3    H122631   0.525   1.494  12.792  2.0600 -2.5384 -1.5004
  380TIP3    H222632   0.603   1.547  12.674  0.8241  2.7081 -0.0883
  381TIP3   OH222633   2.697   0.951  15.956 -0.7637  0.0339 -0.3401
  381TIP3    H122634   2.728   0.997  16.033  1.7295 -1.0293 -0.6623
  381TIP3    H222635   2.665   1.019  15.898 -0.3775  1.0403  0.6193
  382TIP3   OH222636   2.137   5.403  13.251 -0.5696 -0.0253 -0.2354
  382TIP3    H122637   2.111   5.357  13.172 -0.4509  2.9500 -2.0756
  382TIP3    H222638   2.231   5.420  13.239  0.3883 -2.9381  2.3570
  383TIP3   OH222639   0.344   3.220   2.601  0.8433 -0.3001 -0.4805
  383TIP3    H122640   0.302   3.235   2.686 -0.0234  0.0140 -0.9500
  383TIP3    H222641   0.384   3.304   2.579  3.3775 -1.1295  0.8436
  384TIP3   OH222642   6.593   4.656  13.962  0.7471 -0.2385 -0.0666
  384TIP3    H122643   6.556   4.725  14.017 -0.0396 -1.0809  0.4786
  384TIP3    H222644   6.540   4.658  13.882  1.3332  0.4073 -0.4486
  385TIP3   OH222645   5.435   1.463   1.730  0.3090 -0.4952  0.7653
  385TIP3    H122646   5.484   1.388   1.695 -1.3874 -0.8069 -1.0577
  385TIP3    H222647   5.441   1.530   1.661 -1.8028 -0.5552  0.4870
  386TIP3   OH222648   6.335   0.291   2.737 -0.2991 -0.0087 -0.0810
  386TIP3    H122649   6.386   0.251   2.808 -1.4750  0.6733  1.1861
  386TIP3    H222650   6.332   0.224   2.669  1.4752 -0.4006  0.2020
  387TIP3   OH222651   2.186   3.292   1.910  0.6504  0.1492  0.1937
  387TIP3    H122652   2.130   3.221   1.877 -0.6015  0.9246  0.5914
  387TIP3    H222653   2.201   3.348   1.833  0.4751  0.1862  0.1843
  388TIP3   OH222654   0.049   0.291  11.419  0.4670 -0.6752  0.3679
  388TIP3    H122655   0.143   0.302  11.409 -0.1156  2.7562 -2.5634
  388TIP3    H222656   0.023   0.235  11.346  0.0883 -0.7307  0.5419
  389TIP3   OH222657   1.943   4.321   6.436  0.0289 -0.1722  0.2055
  389TIP3    H122658   2.038   4.324   6.450  0.3150  1.9541 -1.7531
  389TIP3    H222659   1.921   4.410   6.409 -2.3137 -0.9675 -0.6086
  390TIP3   OH222660   6.330   0.427   0.796  0.1890 -0.2802 -0.1247
  390TIP3    H122661   6.302   0.510   0.758  0.8901 -0.7157 -1.6390
  390TIP3    H222662   6.251   0.394   0.840 -0.3048  0.8147 -0.1559
  391TIP3   OH222663   4.724   2.973  15.264 -0.6555 -0.0656  0.6881
  391TIP3    H122664   4.763   2.928  15.339  1.3856  1.7290  0.7310
  391TIP3    H222665   4.705   3.061  15.296 -2.0844 -0.0283 -0.2061
  392TIP3   OH222666   5.159   6.505   0.030 -0.6963  0.0642 -0.4052
  392TIP3    H122667   5.139   6.463  -0.054  0.6184  1.2611 -1.3410
  392TIP3    H222668   5.228   6.451   0.068  0.4163  0.8652 -1.2319
  393TIP3   OH222669   2.937   5.226  15.784  0.3184  0.0108 -0.2241
  393TIP3    H122670   3.009   5.165  15.769  1.1034  0.8914 -0.0469
  393TIP3    H222671   2.979   5.310  15.802 -0.7144  0.2903  1.0234
  394TIP3   OH222672   6.466   6.677  17.026 -0.6717 -0.1867  0.1331
  394TIP3    H122673   6.414   6.612  16.978  2.0728 -2.6627  0.3942
  394TIP3    H222674   6.428   6.677  17.114  0.1957 -2.5101  0.5337
  395TIP3   OH222675   4.160   1.900   2.895  0.1428  0.3503  0.7861
  395TIP3    H122676   4.150   1.807   2.876 -0.4832  0.5354  0.1569
  395TIP3    H222677   4.227   1.905   2.963  2.0089 -0.3822 -0.9495
  396TIP3   OH222678   0.493   1.652  15.508 -0.4345 -0.1312  0.4848
  396TIP3    H122679   0.500   1.688  15.597  1.5480 -0.5192  0.5102
  396TIP3    H222680   0.569   1.595  15.499 -0.5758 -0.0381 -1.5086
  397TIP3   OH222681   2.623   0.679  11.089  0.1172  0.1780  0.5253
  397TIP3    H122682   2.658   0.607  11.142  1.1916  1.7806  2.0545
  397TIP3    H222683   2.579   0.636  11.015 -1.1796 -2.1132  2.5601
  398TIP3   OH222684   6.528   5.181   4.352  0.2224  0.0433  0.3172
  398TIP3    H122685   6.466   5.210   4.419 -0.0116 -1.0062  0.5670
  398TIP3    H222686   6.589   5.124   4.399  0.9764  0.5218 -0.0633
  399TIP3   OH222687   0.450   6.535  16.463  0.0589  0.1122 -0.1106
  399TIP3    H122688   0.445   6.628  16.441 -0.1298 -0.1818 -1.3908
  399TIP3    H222689   0.511   6.499  16.399  1.8798 -0.2482  1.7934
  400TIP3   OH222690   2.331   2.381   2.514  0.1221 -0.2764 -0.7215
  400TIP3    H122691   2.418   2.369   2.475  0.1993 -1.7156 -0.1350
  400TIP3    H222692   2.348   2.422   2.599  0.4695 -3.0533  0.5969
  401TIP3   OH222693   5.599   3.937   4.274  0.3620 -0.0032  0.2565
  401TIP3    H122694   5.547   4.009   4.310 -0.2951 -0.2885 -0.1166
  401TIP3    H222695   5.688   3.953   4.306  0.5929  1.9698 -1.2547
  402TIP3   OH222696   2.488   0.942  13.258  0.2873  0.0972  0.0608
  402TIP3    H122697   2.521   0.890  13.331  1.7177  1.1582  0.1776
  402TIP3    H222698   2.566   0.970  13.210 -0.5951  0.0936 -1.4132
  403TIP3   OH222699   2.558   3.605   4.987 -0.3228 -0.3846 -0.4031
  403TIP3    H122700   2.499   3.607   4.911 -2.5615 -0.0088  1.2784
  403TIP3    H222701   2.643   3.582   4.950 -1.2923  0.0195 -3.0637
  404TIP3   OH222702   6.777   6.566  16.680  0.7016 -0.2629 -1.2139
  404TIP3    H122703   6.773   6.629  16.608 -0.7368 -0.4143 -1.2758
  404TIP3    H222704   6.816   6.615  16.753 -0.3946  0.7097 -1.2617
  405TIP3   OH222705   0.421   3.278   0.260 -0.3471 -0.4430  0.0179
  405TIP3    H122706   0.450   3.191   0.284 -1.1824 -1.3905 -2.2822
  405TIP3    H222707   0.326   3.276   0.270 -0.5214 -0.2840 -1.5320
  406TIP3   OH222708   2.918   6.364  15.407  0.5217  0.1670  0.0627
  406TIP3    H122709   2.936   6.298  15.475  1.8158 -1.6445 -1.9369
  406TIP3    H222710   2.904   6.445  15.455  0.8169 -1.1842  2.5251
  407TIP3   OH222711   5.170   0.830  16.156 -0.2217 -0.5500 -0.8240
  407TIP3    H122712   5.183   0.765  16.225  0.5663 -1.6172 -1.9650
  407TIP3    H222713   5.082   0.812  16.123  0.2008 -1.3840 -1.4972
  408TIP3   OH222714   2.863   5.050  13.259  0.1465 -0.5231 -0.4904
  408TIP3    H122715   2.803   4.979  13.279 -0.4665 -0.0739 -0.7156
  408TIP3    H222716   2.897   5.078  13.345  1.6194 -2.1300 -0.5288
  409TIP3   OH222717   2.052   5.863   2.272 -0.5264 -0.0155  0.3350
  409TIP3    H122718   2.084   5.868   2.182 -4.6059 -1.6886 -1.3193
  409TIP3    H222719   2.100   5.790   2.310 -1.2560 -1.5380 -1.5901
  410TIP3   OH222720   0.859   4.157  13.859  0.3653 -0.2314 -0.2884
  410TIP3    H122721   0.952   4.178  13.849  0.3453  0.9158  1.5332
  410TIP3    H222722   0.846   4.152  13.954 -1.3986 -0.5525 -0.5288
  411TIP3   OH222723   0.555   3.772   4.089 -0.0810  0.1776 -0.4005
  411TIP3    H122724   0.597   3.741   4.170 -1.6615  0.9215  0.7414
  411TIP3    H222725   0.623   3.821   4.044  1.4084 -1.8911 -0.4939
  412TIP3   OH222726   5.389   2.788  11.178 -0.1669  0.2277  0.1137
  412TIP3    H122727   5.473   2.803  11.135  0.6035 -0.0223  1.4956
  412TIP3    H222728   5.382   2.859  11.242 -1.0707  0.3167 -0.0695
  413TIP3   OH222729   1.848   6.257   3.389  0.0547 -0.1980 -0.1635
  413TIP3    H122730   1.819   6.169   3.365  0.8390 -0.5447  0.1395
  413TIP3    H222731   1.932   6.243   3.433 -0.5504  0.5649  1.2772
  414TIP3   OH222732   5.297   6.680  17.054 -0.3892 -0.0758  0.0267
  414TIP3    H122733   5.237   6.641  16.990 -2.7715 -2.3264  3.4423
  414TIP3    H222734   5.239   6.718  17.120  1.9791 -0.0541  2.1350
  415TIP3   OH222735   4.637   6.526   5.377  0.1772 -0.4393  0.0053
  415TIP3    H122736   4.618   6.456   5.316  2.7939 -1.2813  0.1048
  415TIP3    H222737   4.696   6.584   5.330  0.2605  0.2067  0.8906
  416TIP3   OH222738   5.045   0.918  11.509 -0.0460  0.7554  0.0283
  416TIP3    H122739   5.080   1.007  11.504  0.5449  0.4096 -3.1364
  416TIP3    H222740   5.122   0.863  11.523 -0.1607  0.5822 -0.0175
  417TIP3   OH222741   4.006   4.654   1.380 -0.0191  0.3638 -0.7035
  417TIP3    H122742   4.018   4.713   1.454 -0.0361  0.6970 -0.9626
  417TIP3    H222743   4.024   4.567   1.415  2.7464  0.7919 -0.9741
  418TIP3   OH222744   4.088   5.913   1.093  0.1160 -0.3364 -0.4605
  418TIP3    H122745   4.135   5.881   1.170 -0.5166 -0.2544 -0.0345
  418TIP3    H222746   4.142   5.985   1.060 -1.0305  1.5531  1.6091
  419TIP3   OH222747   5.442   4.959   0.313  0.2971 -0.5925 -0.3407
  419TIP3    H122748   5.449   5.054   0.326  2.1294 -0.8883  1.0905
  419TIP3    H222749   5.357   4.947   0.271  0.5622  1.8012 -1.7274
  420TIP3   OH222750   3.248   2.685   5.060 -0.3086 -0.1136 -0.1693
  420TIP3    H122751   3.307   2.720   4.994 -0.6191 -0.2081 -0.5000
  420TIP3    H222752   3.258   2.590   5.054 -2.8920 -0.3080 -2.5047
  421TIP3   OH222753   2.593   4.411  13.090 -0.3209 -0.7067 -0.3991
  421TIP3    H122754   2.535   4.440  13.020 -1.9565 -3.9252 -0.4549
  421TIP3    H222755   2.553   4.448  13.170 -0.3174  0.2045 -0.8129
  422TIP3   OH222756   0.010   3.722   1.892 -0.6114  0.1806  0.7903
  422TIP3    H122757   0.092   3.674   1.905 -0.7344 -0.0301  0.7779
  422TIP3    H222758   0.038   3.813   1.880 -0.4854  0.3385  2.2442
  423TIP3   OH222759   2.498   3.973  11.913 -0.4961  0.1533  0.3920
  423TIP3    H122760   2.416   3.927  11.933 -1.4710  1.3435 -0.7596
  423TIP3    H222761   2.471   4.063  11.893  1.0078  0.3607 -0.8259
  424TIP3   OH222762   3.131   2.015  14.322 -0.6414 -0.2046  0.3114
  424TIP3    H122763   3.176   2.011  14.406  0.9774 -0.0526 -0.5414
  424TIP3    H222764   3.127   2.109  14.302 -2.1820 -0.1359  0.8054
  425TIP3   OH222765   1.568   2.788  15.069 -0.3358 -0.0583 -0.4632
  425TIP3    H122766   1.561   2.789  15.165 -0.3911  2.1518 -0.4528
  425TIP3    H222767   1.632   2.857  15.049 -0.4552 -0.3799 -2.0286
  426TIP3   OH222768   3.618   1.219  11.706  0.5810 -0.1232 -0.3333
  426TIP3    H122769   3.609   1.190  11.797 -1.6677  1.3969 -0.0050
  426TIP3    H222770   3.560   1.162  11.656 -0.0001  0.5418 -0.4345
  427TIP3   OH222771   2.797   2.847   6.017  0.5594 -0.1262 -0.0973
  427TIP3    H122772   2.786   2.919   6.080  2.9189 -0.4478  0.7196
  427TIP3    H222773   2.743   2.776   6.052 -0.8369  0.8314 -0.2698
  428TIP3   OH222774   3.983   0.486   3.748  0.1120 -0.0632 -0.2155
  428TIP3    H122775   4.002   0.574   3.779 -1.3824  0.3944 -0.5528
  428TIP3    H222776   4.049   0.469   3.681 -1.6933  2.2001 -2.6880
  429TIP3   OH222777   3.961   3.409   6.538 -0.6640  0.1346 -0.5507
  429TIP3    H122778   4.044   3.380   6.576 -0.1179  2.8306  0.4155
  429TIP3    H222779   3.901   3.415   6.612 -0.8664  1.0646 -0.7779
  430TIP3   OH222780   0.408   6.054   2.857 -0.1440 -0.3310  0.0203
  430TIP3    H122781   0.373   6.063   2.769 -1.2603 -0.8925  0.4000
  430TIP3    H222782   0.350   5.992   2.900 -0.1117  0.5656  1.4139
  431TIP3   OH222783   6.052   4.142   6.312  0.3786 -0.4223 -0.2884
  431TIP3    H122784   6.090   4.060   6.279  0.2626 -0.9326  0.8213
  431TIP3    H222785   6.103   4.161   6.391 -0.7748 -0.3865  0.4595
  432TIP3   OH222786   0.254   3.442   2.839 -0.2309 -0.3098  0.1079
  432TIP3    H122787   0.234   3.471   2.927 -1.5909 -0.3870 -0.1665
  432TIP3    H222788   0.238   3.518   2.783 -0.0732 -0.4670 -0.1567
  433TIP3   OH222789   6.615   0.704  13.475 -0.4717  0.4574 -0.1370
  433TIP3    H122790   6.616   0.613  13.446 -1.5198 -0.0638  1.3805
  433TIP3    H222791   6.685   0.709  13.540  1.4791  1.4706 -2.2578
  434TIP3   OH222792   0.314   2.796   5.664  0.3819 -0.2140  0.3162
  434TIP3    H122793   0.337   2.746   5.585 -0.6064 -0.4603  0.1855
  434TIP3    H222794   0.337   2.886   5.642  0.7726 -0.3846  0.0059
  435TIP3   OH222795   0.422   1.771   2.487 -0.5002  0.2819 -0.5947
  435TIP3    H122796   0.499   1.821   2.461 -1.3316  1.9668  0.1054
  435TIP3    H222797   0.350   1.834   2.484 -1.7302 -1.0992 -0.5721
  436TIP3   OH222798   3.175   5.691  13.135 -0.0261  0.1240 -0.1139
  436TIP3    H122799   3.100   5.750  13.145  0.8503  1.0852  0.9514
  436TIP3    H222800   3.236   5.739  13.079  0.5153  0.0687  0.4243
  437TIP3   OH222801   6.457   4.285  15.452  0.3496 -0.2149  0.4758
  437TIP3    H122802   6.417   4.313  15.369  0.6947  1.2543  0.7880
  437TIP3    H222803   6.384   4.278  15.513  0.4093  1.5205  0.7904
  438TIP3   OH222804   3.802   6.540  16.421 -0.2334  0.4725  0.6406
  438TIP3    H122805   3.718   6.505  16.450 -0.2383 -0.9107 -0.9452
  438TIP3    H222806   3.867   6.498  16.478 -0.6182  1.6998  1.9989
  439TIP3   OH222807   6.449   1.386   5.066 -0.3490  0.2655  0.0474
  439TIP3    H122808   6.431   1.294   5.049 -0.4460  0.2414  0.2832
  439TIP3    H222809   6.448   1.394   5.161  0.1004  0.4215  0.0417
  440TIP3   OH222810   0.435   3.056   4.184 -0.0708  0.0716 -0.1932
  440TIP3    H122811   0.498   3.008   4.237  0.3770  1.1141  0.2171
  440TIP3    H222812   0.481   3.134   4.154 -1.3146  1.1144  0.5521
  441TIP3   OH222813   2.744   4.675   0.818  0.1801 -0.5383 -0.0679
  441TIP3    H122814   2.666   4.619   0.817  0.9530 -1.6494  0.6891
  441TIP3    H222815   2.792   4.648   0.897  2.2653 -1.1700 -1.5168
  442TIP3   OH222816   0.828   6.417  12.393 -0.8524 -0.4011  0.1999
  442TIP3    H122817   0.766   6.484  12.362 -0.0922 -0.6832 -2.0239
  442TIP3    H222818   0.773   6.349  12.432 -1.7637  0.5701  0.6254
  443TIP3   OH222819   2.064   4.898   3.740  0.1817 -0.1538 -0.1130
  443TIP3    H122820   2.055   4.835   3.668  0.8653  1.3305 -1.5355
  443TIP3    H222821   1.993   4.961   3.726 -0.5390 -0.6261  1.3355
  444TIP3   OH222822   5.080   0.804  13.461  0.6045  0.1242 -0.0330
  444TIP3    H122823   5.030   0.871  13.415  1.3396  1.0454  0.4797
  444TIP3    H222824   5.124   0.754  13.392 -0.2180 -0.0532 -0.4324
  445TIP3   OH222825   4.420   1.660  11.575 -0.0382 -0.0462 -0.3258
  445TIP3    H122826   4.350   1.612  11.619 -0.3791  1.1138  0.4265
  445TIP3    H222827   4.374   1.729  11.527  0.6555  1.3997  1.0499
  446TIP3   OH222828   5.560   2.736  13.293  0.4737 -0.3446 -0.0068
  446TIP3    H122829   5.638   2.757  13.242 -1.3177 -0.7402 -3.0663
  446TIP3    H222830   5.499   2.807  13.274  0.2169  0.2038  2.7149
  447TIP3   OH222831   6.278   2.177  15.280  0.0959 -0.1097  0.5260
  447TIP3    H122832   6.295   2.270  15.264  2.7594 -0.0461  3.2986
  447TIP3    H222833   6.233   2.176  15.365 -1.3809 -1.2848 -0.2487
  448TIP3   OH222834   4.291   3.005   3.173  0.1108 -0.2690  0.0352
  448TIP3    H122835   4.238   3.083   3.192 -1.6374 -0.9213 -1.9364
  448TIP3    H222836   4.381   3.037   3.176 -0.4897  1.4071  1.1725
  449TIP3   OH222837   4.903   5.905  14.093 -0.5502 -0.5154 -0.7167
  449TIP3    H122838   4.934   5.831  14.145  1.3395  1.5341  1.2171
  449TIP3    H222839   4.844   5.953  14.152 -2.4296 -0.9023 -2.2305
  450TIP3   OH222840   1.594   2.241   5.475 -0.0926  0.3224 -0.1727
  450TIP3    H122841   1.563   2.266   5.562 -0.6399 -1.1543  0.0718
  450TIP3    H222842   1.688   2.226   5.486 -0.0090  0.9254 -0.0285
  451TIP3   OH222843   3.442   1.034   3.679 -0.4867  0.0363  0.3773
  451TIP3    H122844   3.376   1.067   3.617  0.4684  1.1106 -0.0826
  451TIP3    H222845   3.487   0.965   3.631  0.4050  1.0214 -0.2282
  452TIP3   OH222846   4.600   6.579   2.151  0.1537 -0.0999  0.2843
  452TIP3    H122847   4.637   6.620   2.229 -0.9689  0.6514  0.4431
  452TIP3    H222848   4.517   6.626   2.137  0.6290  0.1719 -1.7072
  453TIP3   OH222849   4.922   6.627   7.098  0.5317  0.4497  0.1205
  453TIP3    H122850   4.862   6.595   7.166  1.3193 -0.2796  0.4771
  453TIP3    H222851   4.997   6.568   7.103  0.0806 -0.3583 -2.2122
  454TIP3   OH222852   3.008   0.483  13.597 -0.4657  0.0850  0.9495
  454TIP3    H122853   3.011   0.571  13.558  2.3731  0.2210  1.3657
  454TIP3    H222854   3.083   0.480  13.655 -0.6469 -2.5754  1.1048
  455TIP3   OH222855   2.374   5.448   4.034 -0.1252 -0.2594  0.2072
  455TIP3    H122856   2.286   5.474   4.005 -0.6729  0.4407  2.3743
  455TIP3    H222857   2.409   5.527   4.075  1.1308 -0.8278  0.2401
  456TIP3   OH222858   6.365   0.396   3.058  0.3173  0.3985 -0.1980
  456TIP3    H122859   6.342   0.477   3.011  1.3741  2.3415  2.4896
  456TIP3    H222860   6.392   0.426   3.145  0.5825 -2.8987  0.9148
  457TIP3   OH222861   1.143   4.526   2.692 -0.3821 -0.2726  0.2004
  457TIP3    H122862   1.164   4.452   2.635  1.4745  0.1859  0.2350
  457TIP3    H222863   1.161   4.603   2.638 -3.8065  0.2078 -0.3749
  458TIP3   OH222864   1.344   4.885  14.954 -0.2177 -0.1445  0.0106
  458TIP3    H122865   1.256   4.885  14.916 -0.2640 -1.1585  0.0928
  458TIP3    H222866   1.402   4.898  14.880 -0.3987 -0.2529 -0.1507
  459TIP3   OH222867   3.349   5.951  12.506 -0.1797  0.3521  0.2713
  459TIP3    H122868   3.263   5.985  12.481  0.4021  0.8716 -1.1106
  459TIP3    H222869   3.336   5.911  12.591 -2.1755 -1.1259 -0.6876
  460TIP3   OH222870   0.381   2.299   4.673  0.2537 -0.6649  0.6131
  460TIP3    H122871   0.296   2.269   4.642  0.4497 -1.2212  0.6167
  460TIP3    H222872   0.444   2.267   4.608  0.5659 -1.0962  1.1232
  461TIP3   OH222873   0.088   0.345   6.846  0.0512 -0.3444 -0.2582
  461TIP3    H122874   0.107   0.282   6.776  1.6439 -1.7624  1.3848
  461TIP3    H222875   0.154   0.413   6.835  0.2776 -0.5470 -0.1729
  462TIP3   OH222876   5.105   1.244  14.630  0.3761  0.1005  0.0638
  462TIP3    H122877   5.190   1.240  14.588  0.4813 -0.9104  0.3614
  462TIP3    H222878   5.057   1.169  14.595 -0.3495  0.5968 -0.0218
  463TIP3   OH222879   5.985   5.570  12.939  0.4780 -0.0196 -0.0457
  463TIP3    H122880   6.048   5.640  12.950 -0.0804  0.2573  1.6583
  463TIP3    H222881   5.948   5.583  12.852  1.3775  0.9649 -0.2837
  464TIP3   OH222882   1.584   0.617   3.124  0.3727 -0.0390 -0.2248
  464TIP3    H122883   1.550   0.583   3.041  0.5734 -0.8510  0.0170
  464TIP3    H222884   1.674   0.643   3.104 -0.3668  2.1091 -0.8634
  465TIP3   OH222885   4.277   1.363  16.552  0.1516  0.5537 -0.2754
  465TIP3    H122886   4.275   1.452  16.587  0.2743  0.9557 -1.2671
  465TIP3    H222887   4.353   1.361  16.494  0.0511 -0.1485 -0.3956
  466TIP3   OH222888   1.201   0.128   1.308 -0.3799 -0.1571 -0.0678
  466TIP3    H122889   1.207   0.224   1.303 -1.0177 -0.1312 -0.3610
  466TIP3    H222890   1.108   0.110   1.313 -0.2465 -0.7505  0.4019
  467TIP3   OH222891   1.016   6.046  11.535 -0.5411  0.6568  1.0721
  467TIP3    H122892   1.017   6.141  11.548  0.8449  0.8972 -0.5529
  467TIP3    H222893   1.101   6.017  11.568  0.0216  0.3146 -0.6604
  468TIP3   OH222894   0.834   2.513   0.808 -0.5013 -0.8207 -0.1549
  468TIP3    H122895   0.883   2.437   0.837  0.1409 -0.4942 -0.3664
  468TIP3    H222896   0.753   2.512   0.860  0.2099 -0.7687  0.9681
  469TIP3   OH222897   0.793   2.461   3.016 -0.0635 -0.3557  0.4609
  469TIP3    H122898   0.707   2.420   3.023 -0.0419 -0.1579  2.0735
  469TIP3    H222899   0.784   2.544   3.063  0.9025 -0.1510  0.2991
  470TIP3   OH222900   6.647   3.176   5.458 -0.0796 -0.9177 -0.3897
  470TIP3    H122901   6.612   3.218   5.379 -0.8155 -0.5678  0.1157
  470TIP3    H222902   6.579   3.113   5.483 -0.0400 -0.7219  0.2102
  471TIP3   OH222903   1.984   6.788   3.493  0.1208  0.3535  0.2697
  471TIP3    H122904   1.948   6.871   3.525  0.1332 -0.0872  1.4575
  471TIP3    H222905   2.041   6.814   3.421 -0.7344  1.2766 -0.0982
  472TIP3   OH222906   3.998   2.803  13.240  0.4766  0.6440 -0.3829
  472TIP3    H122907   3.908   2.823  13.267  0.2088  0.1147 -0.8582
  472TIP3    H222908   4.052   2.865  13.289  0.0838 -0.8235  1.9723
  473TIP3   OH222909   3.352   5.464  13.812  0.5591  0.4760  0.2786
  473TIP3    H122910   3.379   5.529  13.746 -0.0067  0.9676  0.5286
  473TIP3    H222911   3.296   5.403  13.763  1.1168  0.1490  0.0375
  474TIP3   OH222912   2.525   6.757   3.224  0.0888 -0.3662  0.1944
  474TIP3    H122913   2.479   6.678   3.198 -0.8025  0.1620  0.1722
  474TIP3    H222914   2.548   6.801   3.142 -1.2609  0.4553  0.2442
  475TIP3   OH222915   0.066   1.674  12.385  0.2999  0.3013 -0.3311
  475TIP3    H122916   0.149   1.722  12.387  0.6772 -0.1680 -2.7139
  475TIP3    H222917   0.003   1.737  12.350 -0.4471  0.7625  1.7931
  476TIP3   OH222918   0.567   3.835  14.343 -0.3717  0.2006  0.2349
  476TIP3    H122919   0.493   3.880  14.385 -1.3451  0.2894 -1.5384
  476TIP3    H222920   0.545   3.742  14.349 -0.5228  0.2151 -0.0986
  477TIP3   OH222921   6.422   0.748  16.827  0.2286 -0.2632  1.0162
  477TIP3    H122922   6.495   0.687  16.813 -0.5655 -0.9378 -0.3316
  477TIP3    H222923   6.391   0.769  16.739 -1.0271  0.2208  1.5555
  478TIP3   OH222924   0.966   5.309  12.766  0.3719 -0.0486  0.0938
  478TIP3    H122925   0.944   5.218  12.788 -1.6880  0.3752 -0.1935
  478TIP3    H222926   1.062   5.310  12.767  0.4205 -1.5245  2.9250
  479TIP3   OH222927   0.326   3.315   0.599 -0.0730 -0.5045 -0.0643
  479TIP3    H122928   0.412   3.308   0.558 -0.8197 -0.3851 -1.6791
  479TIP3    H222929   0.280   3.235   0.572 -0.7879 -0.1298  0.0319
  480TIP3   OH222930   1.190   2.562   0.151  0.4119 -0.2767 -0.8596
  480TIP3    H122931   1.230   2.617   0.083  1.5475 -1.0860 -0.8451
  480TIP3    H222932   1.261   2.540   0.210 -0.5484  0.3236  0.5686
  481TIP3   OH222933   6.697   6.282   0.578  0.0215  0.1464  0.1591
  481TIP3    H122934   6.708   6.347   0.647  0.7540  0.1125  0.0855
  481TIP3    H222935   6.642   6.214   0.618 -0.5805  0.7191  0.2955
  482TIP3   OH222936   6.318   1.619  17.249 -0.1426  0.1128  0.1985
  482TIP3    H122937   6.324   1.593  17.341 -0.6419 -1.0969 -0.1009
  482TIP3    H222938   6.277   1.706  17.251  0.6132  0.4443  1.1623
  483TIP3   OH222939   4.421   2.936  11.863 -0.0913 -0.3199  0.8337
  483TIP3    H122940   4.332   2.961  11.888  0.4293 -0.2795  2.7314
  483TIP3    H222941   4.474   2.955  11.940  1.4944 -0.8001 -0.1055
  484TIP3   OH222942   5.814   3.216  17.018  0.4193  0.9731  0.1450
  484TIP3    H122943   5.773   3.296  16.985  1.0458  0.9002 -0.8413
  484TIP3    H222944   5.883   3.246  17.077 -0.3607  1.1197  0.9926
  485TIP3   OH222945   5.959   3.922  13.564  0.0925  0.0469 -0.3819
  485TIP3    H122946   5.922   3.890  13.646 -0.7656  0.1778 -0.7084
  485TIP3    H222947   6.053   3.923  13.579 -0.0495 -0.0275  0.5677
  486TIP3   OH222948   0.076   0.349   2.653  1.1687 -0.2880 -0.3903
  486TIP3    H122949   0.160   0.369   2.613  0.5851 -0.7415 -1.8538
  486TIP3    H222950   0.038   0.280   2.598  0.4501 -1.0753  1.0456
  487TIP3   OH222951   2.825   3.391   1.327  0.6421 -0.2111  0.5076
  487TIP3    H122952   2.858   3.462   1.381  0.4202  0.9839 -0.9093
  487TIP3    H222953   2.743   3.364   1.369 -1.2143  2.8569 -0.9384
  488TIP3   OH222954   2.376   3.312  13.095 -0.1625 -0.5835  0.5876
  488TIP3    H122955   2.371   3.359  13.011 -1.1705 -1.2854  0.2506
  488TIP3    H222956   2.457   3.344  13.135 -0.2010  0.5170 -0.1967
  489TIP3   OH222957   4.682   6.770  14.305  0.0455  0.1020 -0.0026
  489TIP3    H122958   4.595   6.798  14.276 -0.0337 -1.0400 -0.9261
  489TIP3    H222959   4.732   6.761  14.224  0.6994 -0.2967  0.4424
  490TIP3   OH222960   1.376   4.240  11.717  0.2612 -0.4957 -0.0987
  490TIP3    H122961   1.389   4.156  11.672 -0.2318 -0.7644  0.2605
  490TIP3    H222962   1.327   4.293  11.655  1.9343  0.0905 -0.9686
  491TIP3   OH222963   0.460   3.438   2.491  0.4709  0.0651  0.0843
  491TIP3    H122964   0.434   3.495   2.418  2.4220  0.6955 -0.1473
  491TIP3    H222965   0.499   3.497   2.555 -3.1225 -0.1872  2.6424
  492TIP3   OH222966   6.136   2.824   3.314  0.0524  0.8441  0.1861
  492TIP3    H122967   6.207   2.853   3.257  1.0066  2.5106  2.1296
  492TIP3    H222968   6.175   2.754   3.366  0.0093  1.1583  0.6430
  493TIP3   OH222969   6.688   5.942  12.860 -0.0224  0.0348 -0.1131
  493TIP3    H122970   6.688   5.867  12.799  2.3455  0.8435 -1.1784
  493TIP3    H222971   6.769   5.931  12.910 -1.0599  0.3856  1.6552
  494TIP3   OH222972   1.001   0.677   0.434  0.2002  0.1679  0.4363
  494TIP3    H122973   0.998   0.765   0.472 -1.6241  0.1294  0.4093
  494TIP3    H222974   0.919   0.636   0.461  1.5124 -1.9196  1.3543
  495TIP3   OH222975   1.701   0.488  12.357 -0.2290  0.4029 -0.4619
  495TIP3    H122976   1.700   0.523  12.446  0.2653  1.5302 -0.8872
  495TIP3    H222977   1.768   0.540  12.312 -0.1075 -0.5121 -1.3469
  496TIP3   OH222978   6.287   4.320   3.896 -0.4262  0.3180 -0.1598
  496TIP3    H122979   6.347   4.254   3.861  0.4000  1.0811 -0.2031
  496TIP3    H222980   6.211   4.270   3.924  0.3693 -0.7084  0.2290
  497TIP3   OH222981   2.971   2.881   4.979 -0.4150  0.1520 -0.1162
  497TIP3    H122982   2.889   2.931   4.971 -0.9040 -0.4333  1.2013
  497TIP3    H222983   2.993   2.885   5.072  1.0453  0.2707 -0.4557
  498TIP3   OH222984   0.342   3.363   3.586 -0.3449 -0.0855 -0.0436
  498TIP3    H122985   0.363   3.317   3.505  0.3523  1.4415 -0.7458
  498TIP3    H222986   0.338   3.456   3.561 -3.2135  0.1461  1.0257
  499TIP3   OH222987   5.358   2.613   3.291 -0.0431  0.1114 -0.4056
  499TIP3    H122988   5.389   2.698   3.260  1.6235 -0.5049 -0.4676
  499TIP3    H222989   5.416   2.550   3.249  0.4026 -0.9144  1.7040
  500TIP3   OH222990   2.712   0.379   0.780  0.1776 -0.2756 -0.3064
  500TIP3    H122991   2.798   0.367   0.741  0.4841  1.1666 -0.1015
  500TIP3    H222992   2.654   0.325   0.726  1.5106 -3.0184  0.8706
  501TIP3   OH222993   3.030   3.160   0.179 -0.5760 -0.3634  0.3602
  501TIP3    H122994   2.945   3.140   0.219 -0.9773 -0.4061 -0.5092
  501TIP3    H222995   3.017   3.144   0.086  0.4392 -0.5251  0.2433
  502TIP3   OH222996   2.382   6.794   5.202  0.3838 -0.0499  0.1834
  502TIP3    H122997   2.433   6.822   5.126 -0.3331 -0.4660 -0.4545
  502TIP3    H222998   2.299   6.763   5.165  0.5158 -1.4492  1.0295
  503TIP3   OH222999   6.552   4.341   2.942 -0.1903 -0.1841  0.0968
  503TIP3    H123000   6.574   4.252   2.912 -2.4105 -0.3372 -1.1697
  503TIP3    H223001   6.542   4.332   3.037  2.3966 -0.6685  0.3479
  504TIP3   OH223002   5.580   3.983  15.231  0.5900 -0.0660 -0.2458
  504TIP3    H123003   5.615   3.972  15.319 -0.1118 -0.3430  0.0045
  504TIP3    H223004   5.624   4.061  15.197 -0.0852  0.7959  0.8202
  505TIP3   OH223005   5.058   4.779  15.835  0.0486 -0.0606 -0.2172
  505TIP3    H123006   4.968   4.753  15.817 -0.4673  0.9706  0.8086
  505TIP3    H223007   5.063   4.785  15.930  0.8058  1.2491 -0.3320
  506TIP3   OH223008   5.226   6.302   2.684 -0.8332  0.4586  0.2045
  506TIP3    H123009   5.190   6.256   2.609  1.0602 -0.5223 -0.1228
  506TIP3    H223010   5.192   6.391   2.676 -1.3246  0.1356 -1.3444
  507TIP3   OH223011   5.439   0.209   5.608 -0.0045  0.0897 -1.4444
  507TIP3    H123012   5.389   0.286   5.634  0.0748 -0.1366 -0.5988
  507TIP3    H223013   5.526   0.224   5.644 -0.9617 -2.0885  2.0070
  508TIP3   OH223014   4.841   5.489   4.592  0.0066 -0.2510  0.3543
  508TIP3    H123015   4.768   5.445   4.548 -0.1258 -2.0432  2.3085
  508TIP3    H223016   4.909   5.494   4.525 -1.9955  1.9050 -1.6724
  509TIP3   OH223017   3.067   2.605   2.906  0.3157  0.3044  0.2676
  509TIP3    H123018   3.117   2.540   2.857 -0.8894 -1.5399  1.3901
  509TIP3    H223019   3.065   2.683   2.850  1.7517 -0.6474 -1.1270
  510TIP3   OH223020   4.844   0.788  15.330  0.0698 -0.5778  0.0774
  510TIP3    H123021   4.767   0.766  15.277 -0.7801  2.4403 -0.0400
  510TIP3    H223022   4.905   0.826  15.268  0.0246  0.7776  0.8612
  511TIP3   OH223023   6.212   3.662   4.422 -0.4383  0.0807 -0.1324
  511TIP3    H123024   6.236   3.678   4.331 -1.4261  0.7214 -0.2872
  511TIP3    H223025   6.237   3.571   4.438 -0.5776 -0.1391 -1.1416
  512TIP3   OH223026   6.194   2.171   1.150 -0.4739 -0.1058  0.4752
  512TIP3    H123027   6.099   2.163   1.146 -0.3650 -1.3034  0.1428
  512TIP3    H223028   6.225   2.136   1.067  0.2912 -0.3735  0.8663
  513TIP3   OH223029   0.629   6.042  14.766  0.1932 -0.5571 -0.2281
  513TIP3    H123030   0.585   5.958  14.779 -1.6753  0.3987 -0.2774
  513TIP3    H223031   0.723   6.020  14.766 -0.2075 -2.4109  1.4008
  514TIP3   OH223032   0.163   3.530  12.500 -0.4888  0.2952 -0.0478
  514TIP3    H123033   0.211   3.448  12.492  2.3191  1.8971 -0.5134
  514TIP3    H223034   0.077   3.505  12.533  0.6773 -2.7111  0.8893
  515TIP3   OH223035   3.320   3.218   2.097  0.0827  0.1824  0.4105
  515TIP3    H123036   3.328   3.177   2.183  1.2194  0.7766  0.6064
  515TIP3    H223037   3.239   3.183   2.061 -0.0843 -0.5510  1.4670
  516TIP3   OH223038   0.289   4.766  12.518 -0.8962 -0.4567  0.5189
  516TIP3    H123039   0.319   4.847  12.557  0.7757 -0.1970 -1.2401
  516TIP3    H223040   0.200   4.785  12.488 -0.9263  0.3626  1.1339
  517TIP3   OH223041   0.172   1.383  12.812  0.5638  0.3605  0.0054
  517TIP3    H123042   0.112   1.370  12.886 -1.1350  0.0009 -1.3969
  517TIP3    H223043   0.160   1.304  12.758  0.8493  1.1921 -1.2853
  518TIP3   OH223044   6.413   3.892  12.550 -0.1409  0.3547 -0.4697
  518TIP3    H123045   6.503   3.914  12.575 -0.0833  0.3929 -0.7061
  518TIP3    H223046   6.413   3.899  12.455 -0.4718  0.6405 -0.4460
  519TIP3   OH223047   5.899   0.659  14.010  0.0566 -0.6404  0.4416
  519TIP3    H123048   5.895   0.749  13.976  0.7620 -1.0122 -0.6427
  519TIP3    H223049   5.865   0.666  14.100 -1.3716  0.4337 -0.1597
  520TIP3   OH223050   1.926   3.580   4.500 -0.1568  0.0601 -0.1154
  520TIP3    H123051   1.856   3.639   4.472  0.0142 -0.1436 -0.9787
  520TIP3    H223052   1.966   3.624   4.575 -0.2597  0.8666 -0.5295
  521TIP3   OH223053   0.602   4.978   6.573 -0.4086  0.2952  0.1181
  521TIP3    H123054   0.612   5.062   6.618  1.5833  0.3171 -0.3361
  521TIP3    H223055   0.661   4.984   6.498 -3.9862  0.4267 -2.8392
  522TIP3   OH223056   0.202   0.692  14.246 -0.1696  0.2773  0.0271
  522TIP3    H123057   0.249   0.611  14.264 -1.0584 -0.1055  0.6468
  522TIP3    H223058   0.160   0.677  14.161  0.8317  0.6276 -0.5369
  523TIP3   OH223059   5.364   3.403  13.315 -0.3818 -0.0862 -0.3278
  523TIP3    H123060   5.276   3.386  13.349 -0.1832  1.1083  0.8327
  523TIP3    H223061   5.381   3.494  13.338  1.7871 -0.7562  0.9288
  524TIP3   OH223062   3.989   1.011  14.720  0.2453  0.1920 -0.1020
  524TIP3    H123063   3.994   0.981  14.630 -0.4284  2.6666 -1.0043
  524TIP3    H223064   4.067   0.974  14.762  0.1492 -1.6253 -1.4644
  525TIP3   OH223065   2.398   4.874  15.208 -0.1013  0.1473  0.2720
  525TIP3    H123066   2.415   4.934  15.135  1.5311 -2.2679 -1.4144
  525TIP3    H223067   2.468   4.892  15.270 -0.5127  1.0324  0.4919
  526TIP3   OH223068   5.214   4.727   1.295 -0.5911 -0.0216 -0.1666
  526TIP3    H123069   5.122   4.750   1.280 -0.6341  0.7245  1.1822
  526TIP3    H223070   5.227   4.646   1.246 -2.3338 -0.8424  0.7101
  527TIP3   OH223071   1.650   2.860   2.697  0.1460  0.0151  0.5275
  527TIP3    H123072   1.724   2.817   2.654  0.0392  0.1626  0.1917
  527TIP3    H223073   1.688   2.909   2.769  0.6204  1.7166 -0.8474
  528TIP3   OH223074   0.444   1.840  14.222 -0.5555  0.2877 -0.0805
  528TIP3    H123075   0.380   1.820  14.153  0.6141 -0.1900 -1.0382
  528TIP3    H223076   0.435   1.934  14.236 -0.7132  0.4189 -0.9901
  529TIP3   OH223077   5.121   0.115   3.621 -0.0721  0.2866  0.8451
  529TIP3    H123078   5.114   0.022   3.645  0.6758 -0.2127 -0.7394
  529TIP3    H223079   5.133   0.161   3.703  0.0448 -1.0875  1.6094
  530TIP3   OH223080   0.440   3.654   6.212 -0.3893 -0.0330  0.0396
  530TIP3    H123081   0.373   3.613   6.158  0.1137  0.0933 -0.6767
  530TIP3    H223082   0.509   3.588   6.219  0.5062  0.7460 -1.2687
  531TIP3   OH223083   5.994   2.630  15.132 -0.5627 -0.1909 -0.1692
  531TIP3    H123084   5.972   2.691  15.062  1.0816 -2.2281 -2.5549
  531TIP3    H223085   5.961   2.545  15.101  0.8951 -1.2646  1.1446
  532TIP3   OH223086   5.369   0.646   6.089 -0.1183 -0.2355 -0.0416
  532TIP3    H123087   5.319   0.712   6.138 -0.5746 -0.4098 -0.2618
  532TIP3    H223088   5.445   0.693   6.056  0.5846 -0.3041  1.4659
  533TIP3   OH223089   2.954   6.512   4.336 -0.3064  0.1434  0.1819
  533TIP3    H123090   2.997   6.555   4.262  0.0757  0.2560  0.4693
  533TIP3    H223091   2.956   6.576   4.406 -1.1467  0.2281  0.1319
  534TIP3   OH223092   2.874   2.646  15.547 -0.1272 -0.1853  0.5299
  534TIP3    H123093   2.820   2.678  15.619 -0.0043 -0.0794  0.5773
  534TIP3    H223094   2.958   2.624  15.588 -0.5290 -1.4912  0.6606
  535TIP3   OH223095   4.359   1.291  14.806 -0.7503  0.7273 -0.5188
  535TIP3    H123096   4.406   1.374  14.807 -0.7554  0.7745 -2.2766
  535TIP3    H223097   4.427   1.225  14.815 -0.3622  0.8072 -2.6963
  536TIP3   OH223098   2.285   1.333  17.248  0.1867  0.5941  0.0595
  536TIP3    H123099   2.378   1.340  17.228  0.1250 -0.4739 -0.6548
  536TIP3    H223100   2.267   1.239  17.248 -0.5995  0.7204  1.5818
  537TIP3   OH223101   6.547   0.849  15.047 -0.0854 -0.0569 -0.5039
  537TIP3    H123102   6.456   0.879  15.058  0.0243  0.0460  0.1364
  537TIP3    H223103   6.575   0.888  14.964  0.1599  1.8783  0.4643
  538TIP3   OH223104   2.842   0.204   1.038 -0.2531  0.6465 -0.0789
  538TIP3    H123105   2.831   0.123   0.987  1.6484  0.9673 -1.0339
  538TIP3    H223106   2.822   0.274   0.976  2.5826  1.0622 -0.5837
  539TIP3   OH223107   4.440   5.166   3.130 -0.1626 -0.2779  0.3227
  539TIP3    H123108   4.347   5.149   3.122 -0.3427  1.0179 -0.6328
  539TIP3    H223109   4.483   5.088   3.095 -0.9206 -0.1082 -1.0251
  540TIP3   OH223110   5.911   4.456  13.441 -0.3293 -0.0731  0.0113
  540TIP3    H123111   5.826   4.476  13.479 -0.4527  1.4586 -1.0206
  540TIP3    H223112   5.946   4.541  13.414  1.7565 -0.6129  0.8961
  541TIP3   OH223113   0.411   1.550   2.165  0.1302 -0.1702  0.0778
  541TIP3    H123114   0.502   1.524   2.154  0.4621  0.5104  1.2119
  541TIP3    H223115   0.407   1.640   2.131  0.2341  0.3721  1.4497
  542TIP3   OH223116   6.006   3.063  13.663 -0.0393  0.3295  0.4109
  542TIP3    H123117   5.998   2.992  13.599  0.0420  0.2938  0.4403
  542TIP3    H223118   6.075   3.035  13.723  0.2910  0.6224  0.1739
  543TIP3   OH223119   1.761   4.953  12.296 -0.2568 -0.5053  0.2989
  543TIP3    H123120   1.836   4.928  12.350 -0.9202  1.9823  2.4273
  543TIP3    H223121   1.795   5.019  12.236 -0.0222 -1.7480 -0.9780
  544TIP3   OH223122   6.782   5.300  16.288 -0.2436  0.0189 -0.4233
  544TIP3    H123123   6.742   5.280  16.373  1.2843 -0.2537  0.2492
  544TIP3    H223124   6.710   5.291  16.225 -1.6542  1.3229  0.9608
  545TIP3   OH223125   1.248   6.650   4.906  0.1598  0.4589 -0.5182
  545TIP3    H123126   1.201   6.730   4.884 -0.9157 -0.6323 -2.3331
  545TIP3    H223127   1.184   6.597   4.953  0.7289  0.4813  0.2861
  546TIP3   OH223128   2.174   4.526   4.056  0.1656 -0.1570  0.5205
  546TIP3    H123129   2.145   4.480   3.977  0.5556 -0.6238  0.6428
  546TIP3    H223130   2.125   4.608   4.056  1.2341  0.4892 -0.9606
  547TIP3   OH223131   4.649   1.129   1.926  0.2438 -0.1777 -0.2706
  547TIP3    H123132   4.585   1.059   1.940 -0.7547  0.9182  0.7792
  547TIP3    H223133   4.601   1.198   1.880  1.0303  0.0901 -0.6964
  548TIP3   OH223134   5.805   5.622  13.167  0.1939 -0.2003 -0.2881
  548TIP3    H123135   5.825   5.708  13.130  1.2693 -0.5928 -0.6251
  548TIP3    H223136   5.835   5.559  13.101  1.8850 -0.8989  1.1165
  549TIP3   OH223137   6.406   1.025  14.383  0.7285  0.0068  0.0664
  549TIP3    H123138   6.498   1.030  14.356  1.0612 -0.1405  1.1506
  549TIP3    H223139   6.402   0.948  14.441  0.0921  0.4896  0.6732
  550TIP3   OH223140   0.820   3.523   2.015 -0.0647 -0.1449 -0.6063
  550TIP3    H123141   0.840   3.612   1.988 -0.3848 -0.2182 -1.0760
  550TIP3    H223142   0.730   3.526   2.047 -0.0233 -0.2666 -0.4740
  551TIP3   OH223143   4.740   4.014   2.999 -0.0835 -0.1340 -0.3469
  551TIP3    H123144   4.661   4.006   2.945 -0.1419  0.1764 -0.3108
  551TIP3    H223145   4.788   4.088   2.960 -0.2868  0.2991  0.2274
  552TIP3   OH223146   3.996   6.289  17.169  0.1380  0.2716  0.1322
  552TIP3    H123147   3.982   6.197  17.149 -0.1725  0.4750 -0.6081
  552TIP3    H223148   3.908   6.323  17.186  0.2363  0.4638  0.2604
  553TIP3   OH223149   5.745   3.398  11.894  0.0824  0.1970 -0.0110
  553TIP3    H123150   5.768   3.464  11.830  0.3851  1.5096  1.4321
  553TIP3    H223151   5.828   3.374  11.936 -0.2336 -0.0162  0.5044
  554TIP3   OH223152   5.155   5.385  13.345 -0.4511  0.5159  0.4183
  554TIP3    H123153   5.188   5.429  13.424 -0.3589  0.2904  0.5079
  554TIP3    H223154   5.063   5.410  13.339 -0.8674 -0.6817  1.4564
  555TIP3   OH223155   0.091   4.222   0.916  0.0619 -0.7678 -0.2273
  555TIP3    H123156   0.098   4.192   0.826  1.8918 -0.6715 -0.1304
  555TIP3    H223157   0.026   4.293   0.913  0.9643  0.0196 -1.6652
  556TIP3   OH223158   6.216   3.046   1.959 -0.1463 -0.0530 -0.5903
  556TIP3    H123159   6.300   3.004   1.939 -0.0916 -0.3340  0.2128
  556TIP3    H223160   6.216   3.126   1.907 -0.1050 -0.8875 -1.8809
  557TIP3   OH223161   5.894   4.866  16.280  0.6616 -0.3679  0.2238
  557TIP3    H123162   5.805   4.842  16.308  0.2696 -0.5544 -1.1392
  557TIP3    H223163   5.880   4.940  16.220  1.5457  0.5713  1.1699
  558TIP3   OH223164   0.838   4.050   0.808 -0.0746  0.8356 -0.2008
  558TIP3    H123165   0.877   3.984   0.865  0.4087  0.6951 -0.6834
  558TIP3    H223166   0.856   4.133   0.852 -2.3178  0.5435  1.3617
  559TIP3   OH223167   1.361   1.217   0.610  0.4057  0.4182 -0.3762
  559TIP3    H123168   1.379   1.294   0.557  1.3766  2.3166  2.5773
  559TIP3    H223169   1.277   1.237   0.653  0.5945 -0.2293  0.3018
  560TIP3   OH223170   4.259   3.059  13.260 -0.1082 -0.3492 -0.2971
  560TIP3    H123171   4.229   3.143  13.295 -1.7859 -1.5441  1.2483
  560TIP3    H223172   4.246   3.065  13.166 -1.1847  0.7482 -0.0836
  561TIP3   OH223173   2.177   6.676  11.188  0.3740  0.1810  0.2052
  561TIP3    H123174   2.106   6.736  11.165 -0.8886 -1.6840 -0.8843
  561TIP3    H223175   2.230   6.670  11.108  0.1651 -0.6241  0.1312
  562TIP3   OH223176   5.875   0.651   1.727 -0.8082  0.4211 -0.1638
  562TIP3    H123177   5.821   0.650   1.807 -0.8285 -0.7134 -0.1904
  562TIP3    H223178   5.934   0.725   1.739 -0.5136 -0.0118  1.1028
  563TIP3   OH223179   3.857   2.583   2.129 -0.2206  0.2025 -0.6114
  563TIP3    H123180   3.803   2.658   2.104 -0.8863 -0.3512 -0.8434
  563TIP3    H223181   3.797   2.508   2.126  0.6675 -0.4883 -1.3346
  564TIP3   OH223182   0.819   1.832   6.486  0.0329  0.6282  0.0377
  564TIP3    H123183   0.885   1.775   6.526  1.0549  2.6591  1.3532
  564TIP3    H223184   0.843   1.836   6.394 -0.4535 -1.5725 -0.2121
  565TIP3   OH223185   0.928   1.507   5.742  0.2966 -0.6666  0.4159
  565TIP3    H123186   0.901   1.533   5.655  0.4677  0.9058  0.8196
  565TIP3    H223187   0.847   1.481   5.786 -0.0421  0.3435  0.3911
  566TIP3   OH223188   1.414   1.686  12.090 -0.1300 -0.2688  0.6463
  566TIP3    H123189   1.401   1.711  11.999  1.1929  0.0912  0.5432
  566TIP3    H223190   1.338   1.632  12.112  0.0495 -1.1994 -0.9613
  567TIP3   OH223191   1.438   6.162  11.315 -0.4112 -0.5664 -0.4713
  567TIP3    H123192   1.371   6.177  11.248 -0.8264  0.2211  0.1210
  567TIP3    H223193   1.410   6.215  11.389  1.1332  0.1487 -0.3940
  568TIP3   OH223194   0.723   4.599   1.373 -0.2580  0.9145  0.7764
  568TIP3    H123195   0.764   4.657   1.437 -1.3867  0.8109  1.6064
  568TIP3    H223196   0.634   4.585   1.407 -0.0192 -1.2452  0.5588
  569TIP3   OH223197   6.581   4.752  15.800  0.2233 -0.1927 -0.0645
  569TIP3    H123198   6.629   4.828  15.767 -0.0813  0.1946  0.3724
  569TIP3    H223199   6.492   4.762  15.764  0.6482 -1.3031 -1.4901
  570TIP3   OH223200   0.812   5.816   5.578 -0.6236  0.0655  0.6625
  570TIP3    H123201   0.823   5.813   5.483  1.6233  1.4992  0.8636
  570TIP3    H223202   0.846   5.732   5.609 -0.3075  0.0714  0.3275
  571TIP3   OH223203   3.473   2.559   5.345 -0.2079  0.0795 -0.0099
  571TIP3    H123204   3.388   2.538   5.386 -0.5496  1.7543  0.1638
  571TIP3    H223205   3.497   2.644   5.381  0.7166  0.4163 -1.3785
  572TIP3   OH223206   1.935   2.060  16.285 -0.1567 -0.7971  0.0777
  572TIP3    H123207   1.924   2.034  16.377 -1.2970 -0.4750  0.0367
  572TIP3    H223208   1.860   2.117  16.267  1.7186  1.7038 -0.1407
  573TIP3   OH223209   6.574   3.721   2.710  0.0861 -0.5425  0.1161
  573TIP3    H123210   6.516   3.656   2.671  0.7407 -1.0211 -0.0709
  573TIP3    H223211   6.557   3.714   2.804  0.9384 -1.7710  0.1981
  574TIP3   OH223212   3.737   0.713   4.487 -0.2920 -0.3806 -0.5476
  574TIP3    H123213   3.779   0.773   4.548 -2.0857  0.8076 -0.4230
  574TIP3    H223214   3.728   0.631   4.535 -0.5823  0.1824  0.3757
  575TIP3   OH223215   0.399   2.263  17.019 -0.2664 -0.3293  0.2014
  575TIP3    H123216   0.399   2.358  17.027  0.2017 -0.2249 -0.8734
  575TIP3    H223217   0.306   2.238  17.022 -0.5171  0.3501 -1.4264
  576TIP3   OH223218   3.092   3.028  14.975 -0.3799  0.0079  0.2985
  576TIP3    H123219   3.055   3.005  15.060 -0.1748 -0.7293  0.1852
  576TIP3    H223220   3.020   3.070  14.928 -1.7097 -3.2741 -0.7019
  577TIP3   OH223221   5.731   4.096  14.165 -0.0310 -0.8961 -0.3160
  577TIP3    H123222   5.711   4.029  14.100  0.9639 -1.2370 -0.2771
  577TIP3    H223223   5.710   4.056  14.249  2.6245 -1.9547 -0.1294
  578TIP3   OH223224   6.279   6.305  15.753  0.2050  0.4222 -0.5072
  578TIP3    H123225   6.333   6.256  15.816  1.1332  0.6248 -1.1242
  578TIP3    H223226   6.335   6.313  15.675 -0.9264  0.1896 -1.3491
  579TIP3   OH223227   3.692   1.315  16.632  0.2756  0.3635 -0.1515
  579TIP3    H123228   3.765   1.322  16.570  1.1325 -2.3693  0.4801
  579TIP3    H223229   3.733   1.326  16.718 -0.6655  2.5048  0.0732
  580TIP3   OH223230   4.703   2.091   1.507  0.3445 -0.4672 -0.3142
  580TIP3    H123231   4.743   2.155   1.567  0.5051 -0.9481  0.0942
  580TIP3    H223232   4.655   2.031   1.565  1.6428 -1.7608 -0.5567
  581TIP3   OH223233   6.158   0.430  14.334  0.2712 -0.6061  0.0501
  581TIP3    H123234   6.149   0.404  14.243  0.1049  0.4830 -0.2503
  581TIP3    H223235   6.170   0.347  14.382 -0.4811 -1.2440 -0.8451
  582TIP3   OH223236   4.972   5.990  13.821 -0.1880  0.0983  0.1780
  582TIP3    H123237   5.057   6.034  13.822 -0.3810  0.4734  0.1679
  582TIP3    H223238   4.942   5.993  13.911  0.3375 -1.0657  0.3913
  583TIP3   OH223239   3.369   0.643  17.221  0.1145 -0.6350 -0.2337
  583TIP3    H123240   3.378   0.595  17.138  1.0826 -0.2784 -0.3317
  583TIP3    H223241   3.381   0.577  17.289  2.0355 -0.4413 -0.3644
  584TIP3   OH223242   5.246   1.468   2.736 -0.0239 -0.2132 -0.5985
  584TIP3    H123243   5.195   1.411   2.678 -0.7606  0.6064 -0.7550
  584TIP3    H223244   5.287   1.408   2.798 -1.0017 -0.8939 -0.6060
  585TIP3   OH223245   5.497   1.193   0.256 -0.6022 -0.1502 -0.0954
  585TIP3    H123246   5.547   1.217   0.178 -1.1371 -1.7907 -0.9627
  585TIP3    H223247   5.441   1.121   0.227  1.9298 -3.4372  2.7193
  586TIP3   OH223248   4.723   5.551  13.096  0.2203  0.3097  0.4409
  586TIP3    H123249   4.658   5.533  13.028  0.8683 -0.1645 -0.0553
  586TIP3    H223250   4.744   5.643  13.085 -0.9543  0.6697  1.1141
  587TIP3   OH223251   6.609   3.718   0.668  0.3522 -0.1480 -0.6650
  587TIP3    H123252   6.617   3.739   0.575  2.6037  2.7923  0.1258
  587TIP3    H223253   6.699   3.714   0.700 -0.4288  0.2189  1.6806
  588TIP3   OH223254   3.170   6.182  15.621 -0.0471  0.0660  0.1735
  588TIP3    H123255   3.153   6.194  15.715  1.0424 -3.5199  0.9164
  588TIP3    H223256   3.084   6.177  15.581 -0.5892 -0.8800  1.4040
  589TIP3   OH223257   5.009   2.037   4.131  0.6719  0.7278  0.4987
  589TIP3    H123258   4.999   1.992   4.047 -0.5378  0.6705  0.6751
  589TIP3    H223259   5.098   2.015   4.159  0.6216 -0.3168 -0.1432
  590TIP3   OH223260   1.031   5.817   0.510  0.6991 -0.0386  0.1798
  590TIP3    H123261   1.084   5.887   0.473  1.6557 -1.4480 -1.2237
  590TIP3    H223262   1.065   5.737   0.468  0.9435 -1.5579  3.1437
  591TIP3   OH223263   6.622   6.273   3.668  0.9950 -0.2826 -0.1419
  591TIP3    H123264   6.610   6.363   3.699 -0.3704 -0.7648  0.7983
  591TIP3    H223265   6.693   6.278   3.604  1.4005  1.3434  0.4278
  592TIP3   OH223266   5.740   1.824  16.349  0.2309 -0.0107 -0.8888
  592TIP3    H123267   5.735   1.744  16.401  1.6309 -0.6180 -1.6703
  592TIP3    H223268   5.649   1.843  16.324 -0.3282 -0.3031  0.8577
  593TIP3   OH223269   0.435   4.169   6.203  0.0313 -0.7453  0.4592
  593TIP3    H123270   0.361   4.168   6.263  0.0472 -0.6078  0.4802
  593TIP3    H223271   0.463   4.078   6.198  0.7215 -0.6007  1.5031
  594TIP3   OH223272   2.698   4.515   5.557  0.0732  0.6500  0.0733
  594TIP3    H123273   2.651   4.524   5.474 -2.4993  1.1123  1.5088
  594TIP3    H223274   2.785   4.550   5.539 -0.7381  1.6705 -2.1622
  595TIP3   OH223275   1.503   1.612  16.973 -0.3056  0.3140 -0.3137
  595TIP3    H123276   1.509   1.563  17.055  0.0830  3.2658  1.4881
  595TIP3    H223277   1.518   1.546  16.905  0.6335 -1.9687  2.0091
  596TIP3   OH223278   0.850   4.379   6.368 -0.1833  1.1350  0.5825
  596TIP3    H123279   0.804   4.296   6.365  2.0314 -0.1052 -0.0153
  596TIP3    H223280   0.926   4.363   6.424  1.8927  1.8745 -1.9214
  597TIP3   OH223281   1.070   0.843  13.833 -1.0054 -0.0116  0.5428
  597TIP3    H123282   1.035   0.837  13.744 -1.2265  1.0420  0.5556
  597TIP3    H223283   1.035   0.925  13.868  0.5241  0.4828  0.9708
  598TIP3   OH223284   5.154   4.101   5.906  0.3986  0.3237  0.2903
  598TIP3    H123285   5.107   4.146   5.836 -0.1473 -0.7291 -0.0345
  598TIP3    H223286   5.095   4.106   5.981  0.0548 -0.4160  0.0700
  599TIP3   OH223287   3.592   4.298  15.012  0.2967  0.0443  0.2058
  599TIP3    H123288   3.545   4.252  15.081  2.8458 -2.0372  0.6352
  599TIP3    H223289   3.679   4.314  15.048  0.9821  0.8915 -1.7186
  600TIP3   OH223290   3.242   0.220  12.706  0.1178 -0.3588  0.2435
  600TIP3    H123291   3.210   0.146  12.655 -1.8521  0.5927  0.0485
  600TIP3    H223292   3.275   0.282  12.641 -0.2829 -0.1193  0.2671
  601TIP3   OH223293   1.176   5.469   3.918 -0.0628 -0.1573 -0.5782
  601TIP3    H123294   1.107   5.534   3.911 -0.4218 -0.4947 -0.2048
  601TIP3    H223295   1.166   5.414   3.840  0.8353  0.7998 -1.3825
  602TIP3   OH223296   4.738   0.362  16.544  0.2191 -0.1576 -0.1497
  602TIP3    H123297   4.775   0.442  16.583 -1.0307  0.6544 -0.5843
  602TIP3    H223298   4.649   0.388  16.519 -0.1309 -1.6501 -0.4514
  603TIP3   OH223299   2.829   4.139  16.706 -0.1049  0.0559  0.9327
  603TIP3    H123300   2.766   4.074  16.738  0.1751 -0.2443  0.8699
  603TIP3    H223301   2.854   4.108  16.619  0.9616 -0.4154  1.3998
  604TIP3   OH223302   4.997   5.016   4.731  0.1824  0.5809  0.1166
  604TIP3    H123303   5.081   4.972   4.715  0.0466  0.4411 -0.2320
  604TIP3    H223304   4.998   5.037   4.824  0.6316  0.6375  0.1019
  605TIP3   OH223305   2.656   3.670  15.659  0.2830  0.6261 -0.2054
  605TIP3    H123306   2.748   3.670  15.631  0.3237  0.4688 -0.0749
  605TIP3    H223307   2.624   3.757  15.636  0.7962  1.0900  0.7999
  606TIP3   OH223308   0.498   0.279  13.604  0.6304 -0.1904 -0.7545
  606TIP3    H123309   0.433   0.240  13.546  0.0311 -0.6009  0.1887
  606TIP3    H223310   0.577   0.226  13.591 -0.1482 -1.6694  0.4526
  607TIP3   OH223311   5.899   2.625  12.793 -0.5189  0.1274 -0.4815
  607TIP3    H123312   5.850   2.550  12.761 -0.5159 -0.0930  0.0214
  607TIP3    H223313   5.930   2.669  12.714 -1.9542  0.5495 -0.8353
  608TIP3   OH223314   5.870   0.351   6.774 -0.0108  0.1983  0.1151
  608TIP3    H123315   5.958   0.388   6.776  0.0086  0.1655 -0.1912
  608TIP3    H223316   5.844   0.345   6.867  0.2678  0.3012  0.1979
  609TIP3   OH223317   1.738   3.626  12.390  0.1722  0.3953  0.4202
  609TIP3    H123318   1.687   3.674  12.325 -0.4543  0.0822  0.6649
  609TIP3    H223319   1.811   3.588  12.341 -0.3207  0.1233 -0.1113
  610TIP3   OH223320   4.129   3.694  15.356  0.2003 -0.3947  0.1336
  610TIP3    H123321   4.211   3.714  15.312  0.2749 -0.7508  0.1101
  610TIP3    H223322   4.090   3.623  15.304  0.6493 -1.3520  1.0635
  611TIP3   OH223323   5.355   0.071   3.802 -0.6367  0.4499  0.9096
  611TIP3    H123324   5.393   0.084   3.714  0.2704  0.4893  1.2955
  611TIP3    H223325   5.312   0.154   3.822 -0.5087  0.5796  0.6529
  612TIP3   OH223326   3.907   6.354   5.138 -0.1042  0.2423  0.2370
  612TIP3    H123327   3.896   6.268   5.179 -0.9898  0.6605  0.8960
  612TIP3    H223328   3.912   6.336   5.045 -1.4489 -0.4318  0.2856
  613TIP3   OH223329   1.432   1.439   6.308 -0.1078 -0.1684 -0.4349
  613TIP3    H123330   1.341   1.465   6.324  0.3422  0.2916  1.4860
  613TIP3    H223331   1.447   1.368   6.370  0.5761 -0.8414 -1.3760
  614TIP3   OH223332   2.146   6.355  15.067 -0.1251 -0.5028  0.1080
  614TIP3    H123333   2.185   6.437  15.098  0.7955 -1.2051  0.8479
  614TIP3    H223334   2.104   6.318  15.145 -1.4343 -0.2308 -0.4623
  615TIP3   OH223335   1.652   5.045  13.202  0.1382 -0.2552  0.1105
  615TIP3    H123336   1.613   4.958  13.197 -0.1390 -0.0831 -0.8386
  615TIP3    H223337   1.747   5.030  13.196  0.0770 -0.4743 -0.3335
  616TIP3   OH223338   1.576   1.150   2.370 -0.1104  0.5010 -0.5764
  616TIP3    H123339   1.591   1.076   2.428 -1.3718  0.7955  0.1463
  616TIP3    H223340   1.602   1.227   2.421 -2.6036  0.8853  0.1596
  617TIP3   OH223341   4.146   6.168  12.752  0.1024 -0.3010  0.0404
  617TIP3    H123342   4.081   6.138  12.815  0.2009 -0.4487  0.0720
  617TIP3    H223343   4.123   6.259  12.736 -0.5403 -0.5506 -0.4791
  618TIP3   OH223344   6.811   2.644   0.875  0.1166  0.2552 -0.6405
  618TIP3    H123345   6.804   2.575   0.941  1.6215 -0.1401 -0.8725
  618TIP3    H223346   6.783   2.603   0.794 -0.8617  0.4827 -0.4232
  619TIP3   OH223347   6.455   2.082  11.828  0.2739 -0.3136  0.4522
  619TIP3    H123348   6.517   2.151  11.852  0.9685 -0.5659 -0.5919
  619TIP3    H223349   6.452   2.084  11.732 -3.9106  1.9423  0.5380
  620TIP3   OH223350   0.642   3.065  15.842  0.8351  0.3158  0.0313
  620TIP3    H123351   0.686   3.066  15.927  0.4790  1.2857  0.2067
  620TIP3    H223352   0.675   3.141  15.796  2.1122 -0.9990 -1.2831
  621TIP3   OH223353   1.356   4.689  16.186 -0.0202  0.0675  0.3075
  621TIP3    H123354   1.404   4.606  16.195 -0.7858 -0.0942  3.8768
  621TIP3    H223355   1.265   4.663  16.174 -0.1891  0.3523  0.9176
  622TIP3   OH223356   3.692   4.074   2.310 -0.1406  0.4541 -0.5707
  622TIP3    H123357   3.690   4.160   2.269 -0.7606  0.1551 -1.1801
  622TIP3    H223358   3.668   4.013   2.240 -1.2040 -0.0627  0.2113
  623TIP3   OH223359   1.303   6.335  17.201  0.3294  0.5038 -0.0936
  623TIP3    H123360   1.294   6.367  17.111  0.3897 -0.2931 -0.3869
  623TIP3    H223361   1.361   6.259  17.194 -0.7279 -0.3738  0.4271
  624TIP3   OH223362   6.685   1.177   3.653  0.1760 -0.0844  0.2970
  624TIP3    H123363   6.640   1.097   3.627 -2.7254  1.4036  0.5885
  624TIP3    H223364   6.685   1.175   3.749  0.6308  0.0097  0.3034
  625TIP3   OH223365   0.269   5.909   3.987  0.2755  0.1577 -0.3007
  625TIP3    H123366   0.225   5.945   3.911 -1.1610 -0.5454  0.1860
  625TIP3    H223367   0.271   5.815   3.972  0.9506  0.1113  0.0335
  626TIP3   OH223368   2.466   5.411  13.249 -0.1139 -0.3134  0.6036
  626TIP3    H123369   2.421   5.339  13.293 -0.0789 -0.7050  0.0010
  626TIP3    H223370   2.471   5.480  13.315  0.8685 -1.2733  1.5491
  627TIP3   OH223371   0.078   1.201  13.282 -0.5265  0.5034 -0.5155
  627TIP3    H123372   0.173   1.215  13.286 -0.4637  0.1859 -0.9414
  627TIP3    H223373   0.067   1.118  13.238 -0.9509 -0.2830  1.0220
  628TIP3   OH223374   6.802   0.070  13.838  0.3380  0.8634  0.3199
  628TIP3    H123375   6.850   0.148  13.867  0.3346  0.1347  2.3850
  628TIP3    H223376   6.856  -0.003  13.867 -0.0237  0.0856 -0.9586
  629TIP3   OH223377   4.843   1.841  12.987  0.1468  0.1239  1.0800
  629TIP3    H123378   4.831   1.749  13.011  1.7191 -0.0859  1.0781
  629TIP3    H223379   4.792   1.851  12.906  0.8802 -1.0375  0.4609
  630TIP3   OH223380   2.843   1.938   5.633 -0.4905  0.5749  0.0239
  630TIP3    H123381   2.877   2.000   5.569  0.3995  1.5720  1.4308
  630TIP3    H223382   2.825   1.992   5.711 -2.2577 -0.4802  0.3656
  631TIP3   OH223383   5.404   1.190  14.662 -0.1639 -0.3724 -0.0913
  631TIP3    H123384   5.398   1.261  14.726 -0.8637  0.1246 -0.6993
  631TIP3    H223385   5.404   1.110  14.715 -2.8044 -0.0582  0.4568
  632TIP3   OH223386   3.302   5.897  13.022  0.3175 -0.2341  0.1695
  632TIP3    H123387   3.395   5.888  13.043  0.5102  1.2602  0.0610
  632TIP3    H223388   3.275   5.976  13.068 -2.0199 -2.9706  3.7818
  633TIP3   OH223389   5.054   1.738  13.388 -0.0311  0.1868  0.1752
  633TIP3    H123390   4.982   1.791  13.419 -0.6889 -0.3476 -0.4212
  633TIP3    H223391   5.012   1.665  13.342  0.8912  0.0995 -0.5400
  634TIP3   OH223392   3.712   5.546   3.854  0.1503 -0.4724  0.1549
  634TIP3    H123393   3.728   5.553   3.760  0.3679  0.2440  0.2438
  634TIP3    H223394   3.639   5.484   3.861 -2.5003  2.3977 -0.7452
  635TIP3   OH223395   1.021   6.703  15.002  0.0987 -0.2076  0.3846
  635TIP3    H123396   0.934   6.674  15.029  0.2000 -1.7889 -0.9166
  635TIP3    H223397   1.025   6.683  14.909  1.6733  0.3161  0.3301
  636TIP3   OH223398   6.413   3.349   0.702  0.1809  0.2449  0.0229
  636TIP3    H123399   6.410   3.317   0.792 -0.1103 -0.2695 -0.1664
  636TIP3    H223400   6.355   3.290   0.654 -0.0966  0.8622 -0.3963
  637TIP3   OH223401   5.708   0.384  16.816  0.1880 -0.0156 -0.2048
  637TIP3    H123402   5.748   0.357  16.899 -0.3448  1.5660  0.5782
  637TIP3    H223403   5.661   0.465  16.837 -0.3592  0.1334 -1.9429
  638TIP3   OH223404   4.153   4.500   2.555  0.6117 -0.1496  0.2801
  638TIP3    H123405   4.158   4.464   2.644  1.9948 -3.1017 -0.9327
  638TIP3    H223406   4.062   4.530   2.547  0.1090 -1.0556  2.2483
  639TIP3   OH223407   0.734   2.140  12.247 -0.2049 -0.4362  0.4589
  639TIP3    H123408   0.828   2.156  12.255 -0.7422  2.7173  0.8163
  639TIP3    H223409   0.718   2.139  12.153  0.1497 -0.9152  0.3972
  640TIP3   OH223410   1.275   6.580   3.890 -0.3147  0.1715 -0.3828
  640TIP3    H123411   1.292   6.488   3.871  1.5517 -0.2160  2.8793
  640TIP3    H223412   1.328   6.628   3.827  1.1312 -1.0286 -0.1072
  641TIP3   OH223413   6.274   6.019   5.005 -0.0146 -0.4233  0.8369
  641TIP3    H123414   6.357   6.067   5.011 -0.8207  1.0807  0.0896
  641TIP3    H223415   6.301   5.927   5.004  1.7325  0.0616 -0.4136
  642TIP3   OH223416   1.209   6.318  16.131  0.6406 -0.7337  0.6050
  642TIP3    H123417   1.251   6.288  16.050  4.0376  1.6736  1.3908
  642TIP3    H223418   1.122   6.345  16.103  1.6228 -0.3000 -2.2230
  643TIP3   OH223419   0.804   6.091  12.790 -0.1910 -0.5173  0.8142
  643TIP3    H123420   0.738   6.027  12.762 -0.4806  0.5403 -0.9921
  643TIP3    H223421   0.877   6.078  12.729 -0.3196  0.9781  0.3287
  644TIP3   OH223422   3.274   6.154  16.559  0.2414  0.5842  0.0158
  644TIP3    H123423   3.337   6.176  16.491  0.8931 -1.8441 -0.2039
  644TIP3    H223424   3.201   6.113  16.512  0.5799 -0.8613  0.7332
  645TIP3   OH223425   4.818   3.576  15.052 -0.3486 -0.3387 -0.0942
  645TIP3    H123426   4.846   3.496  15.097  0.0327 -1.0555 -1.5751
  645TIP3    H223427   4.734   3.554  15.013  0.0835 -0.2454 -1.0918
  646TIP3   OH223428   5.600   3.797   0.221 -0.1584  0.0149 -0.2235
  646TIP3    H123429   5.636   3.814   0.134 -0.5238 -1.5567 -0.6902
  646TIP3    H223430   5.505   3.800   0.208 -0.2105  0.9180  0.3529
  647TIP3   OH223431   4.113   3.864   3.005  0.1145 -0.1179  0.3237
  647TIP3    H123432   4.134   3.787   2.952  2.1458  0.8452 -0.3069
  647TIP3    H223433   4.155   3.937   2.960  0.1186  1.0245  2.1134
  648TIP3   OH223434   1.979   5.782   0.575 -0.2422 -0.1503 -0.5661
  648TIP3    H123435   1.975   5.866   0.620 -1.3354 -0.0802 -0.7833
  648TIP3    H223436   2.071   5.772   0.551  0.6030 -0.7205  2.6596
  649TIP3   OH223437   4.811   4.530   5.113  0.6214  0.6949  0.0054
  649TIP3    H123438   4.794   4.548   5.021  2.7124  0.0084 -0.5484
  649TIP3    H223439   4.764   4.448   5.131  1.2782  0.1331 -0.8174
  650TIP3   OH223440   1.092   2.345  15.779 -0.3325  0.3178  0.4844
  650TIP3    H123441   1.094   2.269  15.721  2.7130  0.2247  0.6087
  650TIP3    H223442   1.068   2.418  15.722 -1.7735 -0.4880  0.0482
  651TIP3   OH223443   6.237   5.080  14.984  0.2746  0.1207  0.1090
  651TIP3    H123444   6.183   5.148  14.943  1.0543  0.1551 -0.9056
  651TIP3    H223445   6.294   5.128  15.045 -0.1701  0.2045  0.4546
  652TIP3   OH223446   4.047   4.182   0.471  0.1011 -0.2143 -0.2740
  652TIP3    H123447   4.062   4.233   0.392  0.1942  2.1714  1.2376
  652TIP3    H223448   3.956   4.200   0.495  0.2328 -0.5035  0.4645
  653TIP3   OH223449   6.311   1.168  16.287 -0.0448  0.0618 -0.2144
  653TIP3    H123450   6.271   1.082  16.278  0.6149 -0.3376  0.5562
  653TIP3    H223451   6.358   1.164  16.371  3.3124 -0.2132 -2.0336
  654TIP3   OH223452   0.584   0.024   4.326 -0.2542  0.1499 -0.0904
  654TIP3    H123453   0.668  -0.023   4.315 -0.4473 -0.7713  2.1660
  654TIP3    H223454   0.606   0.116   4.310  0.6796 -0.3486 -1.9102
  655TIP3   OH223455   4.746   5.184   1.005  0.4973  0.2520  0.3057
  655TIP3    H123456   4.686   5.220   0.940 -0.6061 -2.4562 -0.2201
  655TIP3    H223457   4.832   5.217   0.978 -0.4315  2.2631 -0.2780
  656TIP3   OH223458   0.507   1.264  16.990  0.0854 -0.1268 -0.9415
  656TIP3    H123459   0.567   1.196  17.022 -0.3813  0.1657  0.6198
  656TIP3    H223460   0.529   1.341  17.043  1.4637  1.3300 -3.5559
  657TIP3   OH223461   1.676   0.334  13.144 -0.7863  0.1554  0.5142
  657TIP3    H123462   1.641   0.244  13.139 -0.5136  0.0172  1.0929
  657TIP3    H223463   1.719   0.347  13.060  1.1286 -1.0768  1.2667
  658TIP3   OH223464   2.340   0.317  14.462  0.6993 -0.2842  0.0764
  658TIP3    H123465   2.322   0.281  14.375  0.2135 -0.5979  0.3023
  658TIP3    H223466   2.384   0.400  14.445  0.0371 -0.0409 -0.4818
  659TIP3   OH223467   1.465   0.678   0.462 -0.1768 -0.1308 -0.1140
  659TIP3    H123468   1.508   0.737   0.400  1.9137 -0.1896  1.2543
  659TIP3    H223469   1.454   0.596   0.413 -0.7395  0.5535 -1.1670
  660TIP3   OH223470   0.016   5.017   2.746  0.3166  0.2393  0.0077
  660TIP3    H123471   0.019   5.088   2.681  0.4178  1.3545  1.2247
  660TIP3    H223472   0.108   4.998   2.764  0.2884 -0.1447 -0.2480
  661TIP3   OH223473   5.575   5.147   0.894  0.3157 -0.4838  0.6268
  661TIP3    H123474   5.597   5.237   0.872 -0.2967 -0.4403  0.1782
  661TIP3    H223475   5.658   5.108   0.921  0.4877  0.3525  1.3050
  662TIP3   OH223476   5.570   4.414   3.161  0.3864 -0.8741 -0.0255
  662TIP3    H123477   5.639   4.446   3.219  1.7849 -2.0946 -0.9457
  662TIP3    H223478   5.584   4.319   3.158  0.0795 -0.8822 -1.9659
  663TIP3   OH223479   2.472   4.731  11.554  0.1842 -0.3531 -0.3080
  663TIP3    H123480   2.416   4.808  11.550 -0.3972 -0.7332  0.4409
  663TIP3    H223481   2.541   4.749  11.490 -0.8392  0.0733 -1.3145
  664TIP3   OH223482   0.262   5.595   0.786  0.1664 -0.5212 -0.2836
  664TIP3    H123483   0.293   5.504   0.790 -0.0026 -0.5394  0.8405
  664TIP3    H223484   0.180   5.595   0.835 -0.0944  0.1417 -0.7079
  665TIP3   OH223485   2.305   2.949  16.555 -0.1648 -0.2417  0.1387
  665TIP3    H123486   2.270   3.025  16.601 -0.0861  0.6601 -1.2510
  665TIP3    H223487   2.359   2.904  16.620 -0.3799  0.7781  1.0362
  666TIP3   OH223488   4.234   1.410  12.919 -0.1691 -0.4133 -0.2372
  666TIP3    H123489   4.311   1.380  12.870 -0.6481 -0.6509 -0.8523
  666TIP3    H223490   4.270   1.463  12.990  0.4362  2.1721 -2.3740
  667TIP3   OH223491   0.618   5.489  15.171 -0.4637  0.2270  0.5823
  667TIP3    H123492   0.638   5.582  15.172  0.2855  0.1101 -1.2036
  667TIP3    H223493   0.696   5.447  15.209 -0.5155  0.2742  0.7434
  668TIP3   OH223494   3.892   1.161   1.185  0.1473 -0.2351 -0.1771
  668TIP3    H123495   3.979   1.135   1.155  0.5564  0.6212  0.2677
  668TIP3    H223496   3.848   1.078   1.205  1.1019 -0.6402  0.2749
  669TIP3   OH223497   0.150   1.192   3.622 -0.0059  0.1218 -0.3042
  669TIP3    H123498   0.157   1.264   3.560 -1.0155  1.9290  1.6050
  669TIP3    H223499   0.056   1.182   3.637  0.1616 -1.1294  0.0093
  670TIP3   OH223500   5.619   3.400   2.194 -0.0329  0.2344  0.4227
  670TIP3    H123501   5.654   3.464   2.132  0.0807  1.2751  1.5214
  670TIP3    H223502   5.695   3.375   2.247  0.2074 -1.8354 -0.8313
  671TIP3   OH223503   3.001   1.767  11.943  0.3674 -0.7358  0.2487
  671TIP3    H123504   3.088   1.787  11.909  0.3862 -1.6215 -0.2363
  671TIP3    H223505   2.987   1.833  12.011  0.6325  0.5936 -0.9552
  672TIP3   OH223506   1.826   3.926   1.486 -0.3422 -0.6810  0.2514
  672TIP3    H123507   1.848   3.992   1.552 -2.4256  0.8808 -0.5486
  672TIP3    H223508   1.817   3.845   1.535 -0.3062  0.1369  1.6504
  673TIP3   OH223509   6.010   1.122   2.931 -0.7701 -0.6926 -0.1729
  673TIP3    H123510   6.026   1.028   2.927 -1.6779 -0.8104 -1.2777
  673TIP3    H223511   5.993   1.139   3.024  1.8776 -1.1667  0.4551
  674TIP3   OH223512   0.530   1.772   5.151  0.3399 -0.3875 -0.4259
  674TIP3    H123513   0.607   1.739   5.104  0.9533  0.4609 -0.0320
  674TIP3    H223514   0.488   1.832   5.089  1.0224  0.5564  0.0121
  675TIP3   OH223515   2.591   4.797  13.514  0.1227  0.7896 -0.0048
  675TIP3    H123516   2.553   4.881  13.538 -0.4126  0.6209 -0.2698
  675TIP3    H223517   2.633   4.812  13.430 -2.1592  0.1580 -1.2961
  676TIP3   OH223518   3.653   6.698   4.416 -0.2020  0.4090  0.4555
  676TIP3    H123519   3.626   6.736   4.333  1.5488  1.1455  0.1829
  676TIP3    H223520   3.707   6.766   4.457  0.1752 -0.5043  1.5074
  677TIP3   OH223521   0.801   0.757   3.531 -0.1020 -0.1385 -0.2146
  677TIP3    H123522   0.718   0.803   3.523 -0.4329 -0.6606  0.1575
  677TIP3    H223523   0.816   0.718   3.445  0.5175  1.2118 -0.7391
  678TIP3   OH223524   0.766   5.540  12.193 -0.1982 -0.4032 -0.2097
  678TIP3    H123525   0.793   5.631  12.206 -2.0168 -0.2325  2.9468
  678TIP3    H223526   0.849   5.492  12.185  0.9518  0.9924  2.5076
  679TIP3   OH223527   6.408   1.292   1.765  0.1572  0.4578 -0.3282
  679TIP3    H123528   6.466   1.249   1.703 -1.0268  0.7525 -1.6602
  679TIP3    H223529   6.424   1.385   1.754  1.3676  0.4471  1.2264
  680TIP3   OH223530   4.203   6.497   4.110 -0.1466 -0.0221 -0.4905
  680TIP3    H123531   4.228   6.559   4.179  0.0045  0.1872 -0.7309
  680TIP3    H223532   4.142   6.437   4.153  0.1691 -0.0690 -0.0959
  681TIP3   OH223533   5.926   4.799   0.526  0.4270 -0.1483 -0.0846
  681TIP3    H123534   5.870   4.723   0.542 -0.6219  1.1025  2.3651
  681TIP3    H223535   5.872   4.874   0.548  1.7831  1.2969 -1.5584
  682TIP3   OH223536   2.587   3.556  16.142 -0.1133 -0.4222 -0.4172
  682TIP3    H123537   2.641   3.525  16.069  0.1682 -0.2891 -0.2662
  682TIP3    H223538   2.638   3.533  16.220  0.7236  1.5714 -0.3345
  683TIP3   OH223539   0.353   3.175  11.513  0.3287 -0.5659  0.4237
  683TIP3    H123540   0.366   3.089  11.554 -0.5575  0.4902  2.9785
  683TIP3    H223541   0.266   3.202  11.539 -0.2213  0.2536 -2.0712
  684TIP3   OH223542   5.092   6.673  13.083 -0.2483 -0.5092 -0.7604
  684TIP3    H123543   5.100   6.690  13.177  3.9788  0.2061 -1.1323
  684TIP3    H223544   5.072   6.758  13.045  0.2174 -0.3726 -0.7026
  685TIP3   OH223545   3.706   1.699   2.258 -0.0936  0.6247 -0.1248
  685TIP3    H123546   3.785   1.738   2.222  1.1645 -0.2529  1.6443
  685TIP3    H223547   3.684   1.753   2.334 -0.9259  0.5835 -0.3307
  686TIP3   OH223548   2.212   4.847  15.412  0.0308 -0.2889 -0.6954
  686TIP3    H123549   2.136   4.812  15.365 -0.5943  0.4067 -0.2192
  686TIP3    H223550   2.276   4.866  15.344  0.4455 -2.4738 -0.9517
  687TIP3   OH223551   0.958   0.262  15.539 -0.0741  0.0591 -0.3198
  687TIP3    H123552   0.921   0.252  15.452  0.3220 -0.5999 -0.4190
  687TIP3    H223553   0.953   0.174  15.577  2.6677 -0.3726 -0.8615
  688TIP3   OH223554   1.657   5.184   5.754  0.4802  0.4335  0.1477
  688TIP3    H123555   1.577   5.135   5.777  1.0561 -0.5282  0.1503
  688TIP3    H223556   1.709   5.121   5.703  0.0810  1.8899 -2.1234
  689TIP3   OH223557   0.525   5.383  10.640  0.0581 -0.2917 -0.4715
  689TIP3    H123558   0.541   5.291  10.619  0.5482 -0.6073  1.2040
  689TIP3    H223559   0.430   5.391  10.640  0.0219 -0.2546 -2.7647
  690TIP3   OH223560   2.516   6.312  14.184  0.5515 -0.5157  0.0043
  690TIP3    H123561   2.546   6.248  14.249 -0.1437  0.4723  1.3249
  690TIP3    H223562   2.596   6.360  14.159  0.6849 -0.3109  0.7984
  691TIP3   OH223563   3.428   5.387  11.683  0.0669  0.3565 -0.2000
  691TIP3    H123564   3.465   5.301  11.660 -0.6198  0.3818 -1.4680
  691TIP3    H223565   3.338   5.368  11.708  0.4495  0.4922  1.3109
  692TIP3   OH223566   2.161   1.764   3.131  0.6299 -0.1484  0.2272
  692TIP3    H123567   2.243   1.812   3.142 -0.0895  1.0817  0.3259
  692TIP3    H223568   2.155   1.747   3.037  0.5583  0.5473  0.1074
  693TIP3   OH223569   2.077   0.565   3.813 -0.0444  0.1442  0.1137
  693TIP3    H123570   2.061   0.481   3.770  1.8544 -0.2529  0.1166
  693TIP3    H223571   2.043   0.630   3.752  0.0033 -0.5582 -0.6733
  694TIP3   OH223572   4.760   3.771  17.090  0.1884 -0.2817  0.0705
  694TIP3    H123573   4.770   3.697  17.150  1.4339 -0.5587 -0.4561
  694TIP3    H223574   4.764   3.848  17.146  1.1999 -0.5439  0.3672
  695TIP3   OH223575   2.147   1.989   2.956 -0.0673  0.0173  0.0809
  695TIP3    H123576   2.124   1.924   2.889 -0.5159 -0.3983  0.6409
  695TIP3    H223577   2.196   2.056   2.907  0.2034 -0.6193 -0.5400
  696TIP3   OH223578   5.250   2.670   0.326 -0.2965 -0.0690  1.0570
  696TIP3    H123579   5.331   2.625   0.350 -0.1399 -0.1558  0.3879
  696TIP3    H223580   5.273   2.721   0.249 -0.2606  1.8226  2.3081
  697TIP3   OH223581   5.410   1.413   4.434  0.2683 -0.2323 -0.3666
  697TIP3    H123582   5.411   1.489   4.376 -1.0297 -1.5327 -2.1367
  697TIP3    H223583   5.487   1.362   4.409  0.6594  0.0613  0.2293
  698TIP3   OH223584   5.470   1.605  13.090  1.0742 -0.1985 -0.1859
  698TIP3    H123585   5.442   1.562  13.009  1.1291  0.6233 -0.6499
  698TIP3    H223586   5.398   1.591  13.150  0.3228  0.5558 -0.8880
  699TIP3   OH223587   2.938   6.402  17.040  0.1098 -0.3217  0.4105
  699TIP3    H123588   2.950   6.442  17.126 -0.9596  1.9087 -0.4384
  699TIP3    H223589   2.871   6.456  16.997 -0.2032 -2.0834 -1.3869
  700TIP3   OH223590   2.686   0.885   6.117 -0.0724  0.2552 -0.5254
  700TIP3    H123591   2.728   0.971   6.118  2.4232 -0.8410 -3.1711
  700TIP3    H223592   2.722   0.839   6.193  1.6826  0.1766 -1.3955
  701TIP3   OH223593   2.100   1.538   3.844  1.2755 -0.2727 -0.2017
  701TIP3    H123594   2.153   1.459   3.843  0.9972 -0.4654  0.0016
  701TIP3    H223595   2.159   1.607   3.874  1.5312 -0.3939 -0.4285
  702TIP3   OH223596   4.537   1.778  16.448 -0.3833  0.3093  0.0674
  702TIP3    H123597   4.529   1.832  16.369 -0.6056 -0.9697 -0.8017
  702TIP3    H223598   4.528   1.840  16.521  0.9136  1.6541 -0.9029
  703TIP3   OH223599   2.446   1.026  12.528  0.5445 -0.1085 -0.0334
  703TIP3    H123600   2.525   1.082  12.529  0.0049  0.6674 -0.2911
  703TIP3    H223601   2.441   0.991  12.617  0.0206  1.5073  0.5951
  704TIP3   OH223602   3.481   4.944   2.689  0.3506  0.2659 -0.1053
  704TIP3    H123603   3.528   4.963   2.771 -2.5101  1.2797  1.3945
  704TIP3    H223604   3.528   4.996   2.623  1.4798  1.0656  1.2690
  705TIP3   OH223605   1.748   6.707  15.446  0.4418 -0.4522  0.4656
  705TIP3    H123606   1.713   6.699  15.357 -0.0827 -1.6117  0.7639
  705TIP3    H223607   1.841   6.685  15.438  0.7782  1.1092 -0.0715
  706TIP3   OH223608   0.710   4.275   1.330  0.3101 -0.1545  0.2990
  706TIP3    H123609   0.648   4.214   1.368 -0.9455  1.5455  1.0343
  706TIP3    H223610   0.669   4.361   1.340  1.5616  0.7091 -1.6580
  707TIP3   OH223611   5.292   6.588   0.929  0.5222 -0.3165 -0.2078
  707TIP3    H123612   5.230   6.520   0.958 -1.6798  1.1373 -1.3332
  707TIP3    H223613   5.256   6.619   0.846  2.6389  0.8002 -0.7459
  708TIP3   OH223614   6.518   1.087  15.942 -0.4610 -0.2319 -0.1624
  708TIP3    H123615   6.525   1.073  15.847 -0.9027  1.3190 -0.4415
  708TIP3    H223616   6.477   1.008  15.975 -1.0622 -0.4386 -1.3837
  709TIP3   OH223617   4.339   5.045  11.341 -0.8251 -0.1131  0.4481
  709TIP3    H123618   4.355   5.050  11.435  1.0070 -1.3941  0.2428
  709TIP3    H223619   4.251   5.080  11.329 -0.3187  1.9540  2.3954
  710TIP3   OH223620   1.874   1.660   4.286  0.1945  0.1954  0.5564
  710TIP3    H123621   1.837   1.714   4.216 -1.9803 -2.0017 -0.0482
  710TIP3    H223622   1.940   1.606   4.242  0.7567  0.7405  0.7280
  711TIP3   OH223623   0.537   5.209  16.123  0.0546  0.4312 -0.7521
  711TIP3    H123624   0.531   5.293  16.078 -0.8172  0.5958 -0.3327
  711TIP3    H223625   0.448   5.174  16.121 -0.1181  0.6890  1.3354
  712TIP3   OH223626   3.541   6.160   3.587 -0.5181  0.0978 -0.6214
  712TIP3    H123627   3.622   6.179   3.538 -0.7531 -0.2688 -1.1676
  712TIP3    H223628   3.551   6.069   3.614 -1.5819 -0.5582 -2.3576
  713TIP3   OH223629   5.626   3.790  11.902  0.1230  0.8309  0.2822
  713TIP3    H123630   5.687   3.751  11.840 -1.0536 -1.8413  0.7129
  713TIP3    H223631   5.666   3.873  11.927  4.2022 -1.3645  1.4617
  714TIP3   OH223632   1.014   2.006   4.308 -0.1202 -0.1579 -0.0064
  714TIP3    H123633   1.003   1.943   4.380 -0.9918 -1.2234 -1.0393
  714TIP3    H223634   0.965   2.083   4.336 -3.3519 -1.7952 -0.8686
  715TIP3   OH223635   0.039   1.422   2.724  0.0306  0.3778 -0.3709
  715TIP3    H123636  -0.048   1.426   2.764 -0.7640  1.8618 -2.2058
  715TIP3    H223637   0.099   1.453   2.793 -0.8039 -1.1303  1.0654
  716TIP3   OH223638   5.871   1.829   6.203  0.3253 -0.2097  0.0999
  716TIP3    H123639   5.838   1.757   6.257  1.8429 -0.6002  0.5402
  716TIP3    H223640   5.829   1.907   6.240  0.8909 -0.5465  1.4783
  717TIP3   OH223641   1.480   5.237  14.644  0.7162  0.1561 -0.0872
  717TIP3    H123642   1.391   5.257  14.613  0.9313  0.2490 -0.6480
  717TIP3    H223643   1.524   5.322  14.646  0.9427  0.0446 -0.2866
  718TIP3   OH223644   0.111   5.702  14.726  0.1296 -0.2263 -0.2331
  718TIP3    H123645   0.123   5.791  14.760  0.6277 -0.6153  0.6421
  718TIP3    H223646   0.080   5.652  14.802  1.3704 -1.1428 -0.3094
  719TIP3   OH223647   3.415   3.327  16.923 -0.7572  0.7279 -0.3212
  719TIP3    H123648   3.428   3.366  16.836 -1.2251  1.7455  0.0674
  719TIP3    H223649   3.411   3.401  16.983  0.6944 -0.0255  0.7408
  720TIP3   OH223650   5.996   4.636   6.722  0.1762  0.5161  0.3175
  720TIP3    H123651   6.005   4.687   6.802 -1.2703  0.0413  0.7948
  720TIP3    H223652   6.075   4.655   6.672  2.0120 -0.6121  2.6737
  721TIP3   OH223653   2.006   6.232   0.348  0.3914  0.2934  0.4715
  721TIP3    H123654   1.975   6.146   0.377 -1.1084  1.0878  1.2976
  721TIP3    H223655   2.044   6.216   0.262 -3.3995 -0.5481 -1.1267
  722TIP3   OH223656   0.608   3.652   4.839 -0.1524 -0.4550 -0.2092
  722TIP3    H123657   0.689   3.602   4.827  0.4030  0.3265  0.2216
  722TIP3    H223658   0.634   3.726   4.895 -1.3203 -0.6019  0.5466
  723TIP3   OH223659   2.628   5.199   2.371 -0.4610  0.4977 -0.5306
  723TIP3    H123660   2.579   5.187   2.290 -0.8800  0.5343 -0.2843
  723TIP3    H223661   2.649   5.292   2.374 -0.6080  0.5292 -0.5026
  724TIP3   OH223662   5.987   0.864  14.789 -0.3200 -0.1573 -0.6711
  724TIP3    H123663   5.919   0.851  14.855 -0.4666 -0.4585 -0.8784
  724TIP3    H223664   6.058   0.807  14.817 -0.8713 -1.2659 -1.4522
  725TIP3   OH223665   6.116   0.257  12.439 -0.2593  0.0581 -0.0287
  725TIP3    H123666   6.146   0.183  12.386  1.8661  0.6018  0.3790
  725TIP3    H223667   6.093   0.219  12.523 -1.6066 -0.4922 -0.6293
  726TIP3   OH223668   3.373   6.514   5.105 -0.3615  0.3278  0.6639
  726TIP3    H123669   3.466   6.510   5.127 -0.2376  2.6893  0.6034
  726TIP3    H223670   3.369   6.488   5.013  0.0245 -1.4232  1.1199
  727TIP3   OH223671   4.388   5.087   3.453 -0.0940 -0.4852  0.5002
  727TIP3    H123672   4.388   5.166   3.399  1.0421 -0.9083 -0.1264
  727TIP3    H223673   4.442   5.024   3.404 -2.7871 -2.4091 -0.1224
  728TIP3   OH223674   3.068   5.658   1.459 -0.1151  0.0499 -0.7792
  728TIP3    H123675   3.058   5.587   1.394  1.4016 -0.6859 -0.2337
  728TIP3    H223676   3.161   5.680   1.456 -0.1520  0.4514  0.6895
  729TIP3   OH223677   1.978   3.374  12.538  0.2416 -0.0676  0.0974
  729TIP3    H123678   1.949   3.464  12.525  1.1800  0.3043  0.5512
  729TIP3    H223679   2.049   3.363  12.475  0.8154 -0.1666  0.7695
  730TIP3   OH223680   0.261   5.350  10.682  0.2899 -0.5133  0.7258
  730TIP3    H123681   0.211   5.280  10.641  0.5845 -0.1814 -0.2040
  730TIP3    H223682   0.210   5.374  10.760  0.1021 -1.6291  0.9548
  731TIP3   OH223683   3.673   1.167   1.595 -0.1904 -0.1870 -0.6408
  731TIP3    H123684   3.721   1.244   1.563 -0.3817  0.4452  0.5708
  731TIP3    H223685   3.592   1.166   1.544  0.3806 -0.3197 -1.5551
  732TIP3   OH223686   0.228   5.025   2.114  0.0657 -0.1224 -0.5233
  732TIP3    H123687   0.236   5.104   2.060  0.1845 -0.0491 -0.4003
  732TIP3    H223688   0.283   4.960   2.071 -0.1913 -0.1985 -0.7355
  733TIP3   OH223689   4.465   3.184  14.920 -0.1541  0.2876 -0.2639
  733TIP3    H123690   4.497   3.228  14.841  0.3775  1.4455  0.5848
  733TIP3    H223691   4.418   3.252  14.968 -1.6329 -0.7419 -0.2112
  734TIP3   OH223692   2.907   0.400  16.832 -0.3431 -0.8573 -0.2172
  734TIP3    H123693   2.950   0.324  16.792  1.7479 -0.4958  1.2778
  734TIP3    H223694   2.888   0.373  16.922 -0.1640  0.1520  0.1347
  735TIP3   OH223695   6.109   6.188   0.473 -0.9733  0.4298  0.2176
  735TIP3    H123696   6.154   6.170   0.556  1.1356 -0.3715 -1.0779
  735TIP3    H223697   6.093   6.282   0.475  0.0823  0.6067  1.0324
  736TIP3   OH223698   5.547   0.750   3.877  0.0323  0.2833 -0.1224
  736TIP3    H123699   5.561   0.655   3.877 -1.9058 -0.0091 -0.2076
  736TIP3    H223700   5.545   0.774   3.970  6.2263  1.1732  0.0173
  737TIP3   OH223701   0.396   5.786  16.899  0.2888  0.0914  0.4643
  737TIP3    H123702   0.420   5.877  16.918 -0.9758  1.0580 -2.2274
  737TIP3    H223703   0.461   5.757  16.836  0.7488 -0.9255  1.3993
  738TIP3   OH223704   5.927   2.539   5.531 -0.0413  0.8234  0.2336
  738TIP3    H123705   5.887   2.615   5.574 -0.1806  1.2348 -0.6115
  738TIP3    H223706   5.962   2.487   5.603 -1.3928  0.8541  0.9482
  739TIP3   OH223707   0.497   2.502  13.957 -0.1395  0.0039 -0.2081
  739TIP3    H123708   0.514   2.408  13.961 -0.7702 -0.1379 -0.7760
  739TIP3    H223709   0.527   2.535  14.042  0.8397 -0.5772 -0.3240
  740TIP3   OH223710   4.905   5.751   3.246 -0.1698  0.7539  0.6047
  740TIP3    H123711   4.983   5.792   3.209  0.1567 -0.7008 -0.3244
  740TIP3    H223712   4.938   5.693   3.314 -0.3855 -0.4320 -0.3026
  741TIP3   OH223713   5.530   5.040  16.507 -0.0355  0.4258 -0.5698
  741TIP3    H123714   5.450   5.086  16.485 -0.3935 -0.7144 -1.7176
  741TIP3    H223715   5.598   5.082  16.454 -0.6110 -1.2586 -2.7079
  742TIP3   OH223716   2.284   5.832  13.113 -0.2041 -0.2986 -0.0399
  742TIP3    H123717   2.198   5.798  13.137  0.4278 -1.6387  0.4110
  742TIP3    H223718   2.308   5.891  13.185 -0.3694 -0.6037  0.2628
  743TIP3   OH223719   5.080   5.886  17.010 -0.0193 -0.4352 -0.3931
  743TIP3    H123720   5.091   5.794  16.986 -1.3267 -0.6347 -0.2966
  743TIP3    H223721   5.084   5.933  16.927 -0.3053 -0.6800 -0.5468
  744TIP3   OH223722   2.210   2.423   5.818 -0.8554  0.1287  0.1415
  744TIP3    H123723   2.245   2.465   5.740 -0.2224  1.2537  1.0333
  744TIP3    H223724   2.256   2.339   5.823  0.0996  0.6480  0.0730
  745TIP3   OH223725   5.797   0.254   2.193  0.4701 -0.2945 -0.3476
  745TIP3    H123726   5.870   0.315   2.198  0.2163 -0.0200  0.0110
  745TIP3    H223727   5.720   0.309   2.181  0.2200 -0.5316  0.1627
  746TIP3   OH223728   5.341   1.315   3.864 -0.2225 -0.2588  0.9518
  746TIP3    H123729   5.260   1.308   3.915 -0.6067  0.8114  0.4929
  746TIP3    H223730   5.349   1.408   3.843 -0.5763 -0.8038 -1.7662
  747TIP3   OH223731   0.895   4.389  13.356  0.6658 -0.3813 -0.7112
  747TIP3    H123732   0.808   4.386  13.395 -0.0167  1.4533 -1.9890
  747TIP3    H223733   0.929   4.476  13.378  1.4445 -0.4105 -1.7004
  748TIP3   OH223734   3.271   6.815  13.162  0.1846  0.3647  0.2494
  748TIP3    H123735   3.257   6.804  13.068 -0.2596 -1.4048  0.5041
  748TIP3    H223736   3.343   6.755  13.182  1.2613  1.8048  0.7981
  749TIP3   OH223737   1.236   4.593   3.172  0.5935 -0.1354 -0.0313
  749TIP3    H123738   1.215   4.500   3.181 -1.4481  0.3106 -0.0198
  749TIP3    H223739   1.169   4.639   3.223  1.1350  1.3910 -0.6455
  750TIP3   OH223740   1.630   2.993  17.048 -0.1652  0.8096 -0.0786
  750TIP3    H123741   1.725   2.978  17.054 -0.2758  0.2946  0.4177
  750TIP3    H223742   1.617   3.022  16.958  0.2776 -0.5563 -0.6013
  751TIP3   OH223743   0.892   1.450   5.175  0.2975  0.1634  0.4316
  751TIP3    H123744   0.873   1.357   5.165  1.1743 -0.0757  0.8937
  751TIP3    H223745   0.986   1.453   5.195  0.1874  1.1137  0.8423
  752TIP3   OH223746   5.110   0.385   0.648  0.5265 -0.5813  0.1997
  752TIP3    H123747   5.113   0.361   0.555 -1.1078 -0.6749  0.1528
  752TIP3    H223748   5.195   0.357   0.683  1.8046  0.8798 -1.5986
  753TIP3   OH223749   4.071   1.879   3.668  0.3196 -0.0139 -0.0765
  753TIP3    H123750   4.153   1.831   3.684  1.7675  1.7444 -1.8983
  753TIP3    H223751   4.029   1.832   3.596  0.5035 -0.0021 -0.1914
  754TIP3   OH223752   5.879   6.656  15.416 -0.0540  0.4375  0.4716
  754TIP3    H123753   5.795   6.623  15.384  0.2365 -0.0923  0.2413
  754TIP3    H223754   5.911   6.588  15.475 -0.4792  1.3108  1.7265
  755TIP3   OH223755   0.617   6.600  12.707 -0.3278 -0.2725  0.1493
  755TIP3    H123756   0.702   6.642  12.715 -0.8518  0.6014  1.2487
  755TIP3    H223757   0.620   6.528  12.770 -1.0440  0.8555  1.4895
  756TIP3   OH223758   1.044   0.483   5.242 -0.4671  0.1736  0.0174
  756TIP3    H123759   1.088   0.564   5.216 -0.1545 -0.7207 -2.3192
  756TIP3    H223760   1.089   0.456   5.322  1.2999  0.8222 -0.7304
  757TIP3   OH223761   2.330   3.430   0.063  0.8565  0.0386  0.2967
  757TIP3    H123762   2.249   3.421   0.114  1.0748  2.5361  1.1756
  757TIP3    H223763   2.318   3.373  -0.013 -1.3670 -0.2766  0.8626
  758TIP3   OH223764   3.691   1.399  14.866 -0.2387 -0.2826 -0.2102
  758TIP3    H123765   3.765   1.460  14.871 -1.4725  1.3822 -1.3408
  758TIP3    H223766   3.668   1.382  14.957  2.0372 -1.4945  0.1816
  759TIP3   OH223767   5.479   5.281   5.244 -0.1161  0.5332  0.0137
  759TIP3    H123768   5.421   5.353   5.270 -1.2818  0.0842 -1.3027
  759TIP3    H223769   5.427   5.202   5.257  0.9049 -0.0408  0.7280
  760TIP3   OH223770   1.268   3.131   5.999 -0.6626  0.0214 -0.9154
  760TIP3    H123771   1.189   3.100   6.042  0.2693  0.2308  1.0081
  760TIP3    H223772   1.316   3.052   5.975 -0.2903 -0.0708  0.1422
  761TIP3   OH223773   2.303   4.415   5.268 -0.7009  0.2082 -0.0345
  761TIP3    H123774   2.260   4.472   5.203  0.8456  0.7772 -0.5705
  761TIP3    H223775   2.308   4.468   5.347 -0.7205  0.2417 -0.0557
  762TIP3   OH223776   1.077   5.189  10.498 -0.7564 -0.2265  0.0287
  762TIP3    H123777   1.153   5.243  10.520 -1.8972  0.6513  1.9010
  762TIP3    H223778   1.002   5.247  10.509 -1.8809 -1.7340  0.4755
  763TIP3   OH223779   0.867   3.794  11.856  0.5661  0.6948 -0.2129
  763TIP3    H123780   0.869   3.766  11.947 -2.8558  1.1510  0.0785
  763TIP3    H223781   0.861   3.890  11.860  0.4429  0.7246 -0.9311
  764TIP3   OH223782   2.870   1.968  14.230 -0.0012  0.1277 -0.5525
  764TIP3    H123783   2.948   1.941  14.277  0.1296 -0.8264 -1.3096
  764TIP3    H223784   2.902   2.006  14.149 -0.2574  1.2189 -0.1547
  765TIP3   OH223785   3.200   4.702  12.783  0.9179 -0.3722 -0.1866
  765TIP3    H123786   3.193   4.648  12.704  2.5177 -0.0399 -0.5689
  765TIP3    H223787   3.157   4.785  12.759  3.6792  0.6903 -1.6118
  766TIP3   OH223788   6.705   3.438  10.612 -0.3008 -0.0275  0.2837
  766TIP3    H123789   6.619   3.470  10.584 -0.6825 -1.3155 -0.0858
  766TIP3    H223790   6.746   3.513  10.654 -1.3479  0.7939 -0.1254
  767TIP3   OH223791   6.022   1.719   2.855 -0.1200  0.0496  0.3487
  767TIP3    H123792   6.000   1.806   2.821  1.3708  0.5690  0.7000
  767TIP3    H223793   6.095   1.690   2.800  1.4612  0.3503  2.2666
  768TIP3   OH223794   4.262   4.854  13.841  0.3069  0.0191 -0.5475
  768TIP3    H123795   4.255   4.934  13.789  0.5411  0.1348 -0.4022
  768TIP3    H223796   4.223   4.875  13.925  0.6611  0.0834 -0.3962
  769TIP3   OH223797   3.909   2.465  13.766 -0.0954  0.5936  0.3689
  769TIP3    H123798   3.833   2.408  13.755  0.1526  0.4839 -0.8867
  769TIP3    H223799   3.908   2.522  13.689  0.8326  0.8898  0.5620
  770TIP3   OH223800   0.945   1.277  13.704 -0.2753 -0.0981 -0.3776
  770TIP3    H123801   0.885   1.224  13.652 -0.5341 -1.7302  1.4922
  770TIP3    H223802   0.992   1.331  13.640  0.7798 -3.3837 -2.5361
  771TIP3   OH223803   4.729   0.124   1.925 -0.9419 -0.1050 -0.3077
  771TIP3    H123804   4.647   0.170   1.945 -0.3926  0.9874 -0.5332
  771TIP3    H223805   4.790   0.153   1.993 -0.7851 -1.0612 -0.0308
  772TIP3   OH223806   3.662   2.990  15.709  0.6149  0.1628  0.0143
  772TIP3    H123807   3.660   2.945  15.794 -0.7802  1.3907  0.6767
  772TIP3    H223808   3.647   2.922  15.645  0.5425 -0.6164  0.8465
  773TIP3   OH223809   6.579   5.475  15.723  0.1068  0.2840 -0.7823
  773TIP3    H123810   6.646   5.461  15.789 -0.0327  0.6542 -0.5630
  773TIP3    H223811   6.497   5.478  15.772 -0.1576 -0.9368 -1.1266
  774TIP3   OH223812   0.725   1.760  13.951 -0.3955  0.1847  0.0801
  774TIP3    H123813   0.633   1.763  13.925 -0.8978 -0.4307  1.7032
  774TIP3    H223814   0.723   1.771  14.046  1.0668 -1.8127  0.3704
  775TIP3   OH223815   3.528   5.424   3.394  0.3577  0.2628 -0.6209
  775TIP3    H123816   3.562   5.509   3.365 -0.7612  0.6937 -0.7150
  775TIP3    H223817   3.479   5.391   3.318 -1.0935  0.5735  0.1586
  776TIP3   OH223818   2.515   4.305   4.334 -0.1523  0.3149 -0.1949
  776TIP3    H123819   2.473   4.223   4.307 -0.0540  0.0334  0.4881
  776TIP3    H223820   2.477   4.371   4.277 -0.7089 -0.1103 -0.3264
  777TIP3   OH223821   6.498   4.662  15.125 -0.4954 -0.3086 -0.0826
  777TIP3    H123822   6.570   4.724  15.114  0.0166 -1.1784 -1.7580
  777TIP3    H223823   6.420   4.710  15.095 -0.0724 -0.5225 -1.5519
  778TIP3   OH223824   0.412   4.855   0.397 -0.4866  0.4234 -0.6774
  778TIP3    H123825   0.415   4.870   0.492 -0.3031 -1.3947 -0.3723
  778TIP3    H223826   0.327   4.888   0.370 -0.7354  0.5215  0.2012
  779TIP3   OH223827   5.717   6.233  14.402 -0.2079  0.7916 -0.3111
  779TIP3    H123828   5.783   6.277  14.349 -0.7917 -0.1642 -1.8611
  779TIP3    H223829   5.725   6.273  14.488  2.4122  0.6617 -0.4598
  780TIP3   OH223830   5.403   2.339  13.152 -0.1353  0.6056  0.4466
  780TIP3    H123831   5.338   2.269  13.160 -1.2236  1.4699 -0.7403
  780TIP3    H223832   5.451   2.319  13.072  0.4415  0.4837  0.8203
  781TIP3   OH223833   3.213   2.451   2.675  0.1041 -0.1732  0.1245
  781TIP3    H123834   3.292   2.425   2.628  0.4882  2.0830 -0.5531
  781TIP3    H223835   3.212   2.396   2.754  1.7643 -0.9613 -0.3950
  782TIP3   OH223836   3.866   4.219   4.629 -0.2141  0.6096  0.5894
  782TIP3    H123837   3.794   4.163   4.659 -1.0618  1.9293  1.0523
  782TIP3    H223838   3.843   4.307   4.660  0.0727  1.5954 -1.8607
  783TIP3   OH223839   2.124   3.926   2.429  0.2126  0.1714  0.0395
  783TIP3    H123840   2.117   3.895   2.519 -0.9022 -0.1203 -0.1315
  783TIP3    H223841   2.185   3.865   2.387  0.1978 -0.1093  0.4204
  784TIP3   OH223842   0.852   1.255   3.829 -0.4784 -0.1091  0.0776
  784TIP3    H123843   0.883   1.208   3.906  0.0957  0.1125 -0.0124
  784TIP3    H223844   0.827   1.186   3.767  0.2806 -0.3054 -0.0236
  785TIP3   OH223845   4.622   4.589   3.767  0.0773  0.2593 -0.0618
  785TIP3    H123846   4.675   4.625   3.696  1.5869 -0.3306  0.7408
  785TIP3    H223847   4.669   4.613   3.846 -0.2700 -1.2357  0.6134
  786TIP3   OH223848   4.374   0.634   4.891 -0.6162 -0.1824 -0.2868
  786TIP3    H123849   4.395   0.568   4.825 -0.1836 -1.2397  0.8780
  786TIP3    H223850   4.445   0.697   4.887 -2.6012  1.9982 -3.5973
  787TIP3   OH223851   5.887   3.041   4.086  0.3594  0.4002  0.6926
  787TIP3    H123852   5.923   2.953   4.099  0.6863  0.2102 -1.3329
  787TIP3    H223853   5.962   3.099   4.099  0.7592  0.1918 -0.5990
  788TIP3   OH223854   1.820   0.190  13.370 -0.7663  0.3298 -0.5619
  788TIP3    H123855   1.801   0.266  13.316 -1.0221  0.9945  0.4372
  788TIP3    H223856   1.898   0.150  13.331 -0.5053  1.2299 -0.9539
  789TIP3   OH223857   3.731   1.923   2.470  0.3171  0.0406  0.2943
  789TIP3    H123858   3.646   1.915   2.513  0.2319  2.7633  0.7449
  789TIP3    H223859   3.794   1.894   2.537 -0.1684 -0.7112  0.4276
  790TIP3   OH223860   5.393   6.759  16.520 -0.0190 -0.0456  0.7553
  790TIP3    H123861   5.474   6.764  16.469  0.5205  0.7703  1.6735
  790TIP3    H223862   5.360   6.848  16.521 -0.5516 -0.2473  0.9897
  791TIP3   OH223863   2.360   6.552  15.923  0.3590 -0.3957 -0.1818
  791TIP3    H123864   2.320   6.618  15.866  1.0376  0.4960  0.3516
  791TIP3    H223865   2.414   6.603  15.984  1.0732 -1.4686  0.0957
  792TIP3   OH223866   5.983   1.155  11.833  0.5174  0.1311  0.7938
  792TIP3    H123867   5.934   1.221  11.882  1.4563  0.9988  0.5627
  792TIP3    H223868   5.967   1.073  11.881 -1.1174  0.4040  0.7582
  793TIP3   OH223869   4.412   1.086   5.575  0.2575  0.2368 -0.8204
  793TIP3    H123870   4.377   1.121   5.657  0.5261  1.4535 -1.2126
  793TIP3    H223871   4.439   0.997   5.597 -0.0050  0.4251  0.3209
  794TIP3   OH223872   0.693   4.882   4.591  0.3595 -0.8473 -0.0817
  794TIP3    H123873   0.743   4.924   4.661 -0.7429  0.4592 -0.0589
  794TIP3    H223874   0.606   4.869   4.628 -0.6236  1.0664 -1.6109
  795TIP3   OH223875   1.936   0.051   5.336 -0.2146  0.4701  0.1469
  795TIP3    H123876   1.952   0.145   5.344  4.1115 -0.4054  2.9636
  795TIP3    H223877   2.011   0.018   5.286 -1.0632 -1.7025  0.2614
  796TIP3   OH223878   4.998   6.505  11.773  0.1575 -0.1211  0.2395
  796TIP3    H123879   4.919   6.483  11.723 -0.1982  0.0585  0.7167
  796TIP3    H223880   5.027   6.421  11.811 -0.3537 -0.0306  0.8451
  797TIP3   OH223881   0.415   3.239  13.855  0.0564  0.1852  0.1799
  797TIP3    H123882   0.497   3.277  13.888 -0.1837  0.9361 -0.0824
  797TIP3    H223883   0.362   3.314  13.830  0.5919 -0.3819 -2.8484
  798TIP3   OH223884   2.755   2.627   1.663 -0.2119  0.9184  0.3016
  798TIP3    H123885   2.760   2.697   1.728 -0.5268  0.1833  1.1248
  798TIP3    H223886   2.765   2.546   1.713 -0.1999  0.3500 -0.5957
  799TIP3   OH223887   1.695   6.410   4.736  0.3021 -0.3759  0.1295
  799TIP3    H123888   1.602   6.418   4.758 -0.1081 -1.5980 -1.1140
  799TIP3    H223889   1.700   6.435   4.644  1.1799 -0.4846  0.1473
  800TIP3   OH223890   2.491   1.978   5.329  0.4508  0.1589  0.0333
  800TIP3    H123891   2.529   2.020   5.251 -0.1596  0.1835 -0.2553
  800TIP3    H223892   2.399   2.006   5.329  0.2608 -0.4612  0.3365
  801TIP3   OH223893   2.505   5.453   2.670 -0.4794 -0.1261 -0.3799
  801TIP3    H123894   2.583   5.413   2.708 -0.6699 -0.5399 -0.4277
  801TIP3    H223895   2.539   5.523   2.613 -0.1676  0.0497  0.0200
  802TIP3   OH223896   3.835   0.652   1.447  0.4982 -0.0926  0.0419
  802TIP3    H123897   3.847   0.558   1.458  1.1883 -0.1925 -1.4097
  802TIP3    H223898   3.924   0.688   1.448  0.2756  0.4637  0.0330
  803TIP3   OH223899   3.255   2.643   6.289 -0.3341  0.6068  0.0885
  803TIP3    H123900   3.286   2.696   6.363  1.8168  0.8647 -0.9623
  803TIP3    H223901   3.193   2.700   6.244  1.4716  2.0272 -0.6619
  804TIP3   OH223902   0.664   5.529   2.463  0.5694  0.6055  0.2792
  804TIP3    H123903   0.713   5.610   2.446 -1.5360  1.4887 -2.0148
  804TIP3    H223904   0.710   5.463   2.411  0.3287  1.0716 -0.5430
  805TIP3   OH223905   5.112   5.089   3.984  0.6784 -0.3475  0.5442
  805TIP3    H123906   5.048   5.135   4.038 -0.9247 -0.0124 -1.6013
  805TIP3    H223907   5.196   5.109   4.025 -0.2897  1.9472  1.4791
  806TIP3   OH223908   2.125   0.172   4.775 -0.2884 -0.5164  0.0750
  806TIP3    H123909   2.176   0.216   4.842 -1.3700  0.1772  0.4677
  806TIP3    H223910   2.047   0.227   4.765 -0.9957 -1.5990 -0.4416
  807TIP3   OH223911   1.281   3.233  11.541 -0.4369  0.2810 -0.2008
  807TIP3    H123912   1.286   3.256  11.448 -0.0513  1.3995  0.0848
  807TIP3    H223913   1.220   3.160  11.545 -0.3211  0.1209 -1.3590
  808TIP3   OH223914   2.038   3.304  10.357  0.6179 -0.2429 -0.2465
  808TIP3    H123915   2.016   3.294  10.450 -1.4255 -0.2618 -0.7140
  808TIP3    H223916   1.999   3.387  10.332  1.3902 -0.1079 -1.0450
  809TIP3   OH223917   1.611   1.889   4.767  0.5859  0.4667 -0.4806
  809TIP3    H123918   1.696   1.852   4.788  0.3647  0.3604  0.2512
  809TIP3    H223919   1.626   1.942   4.688  1.0066 -0.7833 -1.2495
  810TIP3   OH223920   2.785   4.315   4.949  0.3238  0.1229 -0.0600
  810TIP3    H123921   2.879   4.322   4.968  0.1912 -0.8621  1.0034
  810TIP3    H223922   2.753   4.405   4.961  0.8323  0.1461  1.3258
  811TIP3   OH223923   1.500   3.763  13.406 -0.6802 -0.1908 -0.1730
  811TIP3    H123924   1.414   3.782  13.369  0.1712  0.0595 -2.0909
  811TIP3    H223925   1.551   3.729  13.332  0.3926 -1.8615  1.2930
  812TIP3   OH223926   1.486   3.641  10.768 -0.1598 -0.2873  0.1485
  812TIP3    H123927   1.453   3.686  10.691  0.1593 -0.7108 -0.2357
  812TIP3    H223928   1.576   3.670  10.777 -0.2949  0.0216  0.5624
  813TIP3   OH223929   6.010   2.379   3.252  0.8515  0.2602 -0.0342
  813TIP3    H123930   5.974   2.369   3.340  0.9947 -0.3728 -0.0425
  813TIP3    H223931   5.996   2.471   3.230 -2.2807 -0.3080 -0.6801
  814TIP3   OH223932   1.561   2.760   1.817 -0.0706  0.4042  0.4137
  814TIP3    H123933   1.597   2.706   1.888  2.0194  1.0154 -0.1784
  814TIP3    H223934   1.617   2.742   1.742 -0.0572  2.5603 -0.1052
  815TIP3   OH223935   4.175   4.537  11.746  0.5088 -0.3357  0.0530
  815TIP3    H123936   4.132   4.465  11.701 -0.3550 -0.4683  1.0787
  815TIP3    H223937   4.107   4.603  11.757  1.2065  0.5051 -0.5692
  816TIP3   OH223938   3.860   5.788   5.809  0.0554 -0.3214 -0.9946
  816TIP3    H123939   3.793   5.856   5.807 -0.6481 -1.0221 -1.9238
  816TIP3    H223940   3.891   5.782   5.719  2.6043  1.1752 -0.2535
  817TIP3   OH223941   4.068   2.592   5.093  0.1812  0.3062  0.5467
  817TIP3    H123942   4.097   2.681   5.111  0.4831  0.3503 -0.1282
  817TIP3    H223943   4.058   2.589   4.997 -1.1304  0.0131  0.6736
  818TIP3   OH223944   1.811   3.271  14.811  0.4902 -0.6880 -0.1098
  818TIP3    H123945   1.888   3.322  14.785 -1.0956  0.9853 -1.7457
  818TIP3    H223946   1.742   3.337  14.823 -1.2091 -2.3064 -0.6875
  819TIP3   OH223947   5.420   6.251  13.978  0.1556 -0.3860  0.3189
  819TIP3    H123948   5.429   6.302  13.898  0.0269  0.2629  0.7183
  819TIP3    H223949   5.419   6.316  14.048  0.7588 -0.9791  0.8862
  820TIP3   OH223950   5.730   4.417   6.223 -0.0902  0.5353  0.2730
  820TIP3    H123951   5.793   4.487   6.206  1.7562 -1.4186 -1.2527
  820TIP3    H223952   5.735   4.360   6.146 -2.6779 -0.4676  0.7791
  821TIP3   OH223953   5.426   1.983   0.176  0.2994 -0.1051 -0.3179
  821TIP3    H123954   5.431   2.010   0.084  0.6536 -0.5141 -0.4203
  821TIP3    H223955   5.509   1.938   0.192  0.1956 -0.1252  0.1747
  822TIP3   OH223956   2.365   3.403   0.734 -0.0238 -0.0435  0.3372
  822TIP3    H123957   2.282   3.357   0.745 -0.2972  0.7338  1.5631
  822TIP3    H223958   2.425   3.336   0.700 -0.4055 -1.3343  2.1390
  823TIP3   OH223959   2.693   6.014  16.834  0.3201 -0.3452 -0.8428
  823TIP3    H123960   2.704   6.109  16.832  0.8452 -0.4215 -3.5811
  823TIP3    H223961   2.753   5.982  16.767 -2.1008 -2.3660 -2.1187
  824TIP3   OH223962   0.117   1.020   2.980 -0.2470  0.4151  0.1475
  824TIP3    H123963   0.074   0.967   3.047  0.2386  0.2246  0.3094
  824TIP3    H223964   0.083   1.108   2.994 -0.8587  0.1951  0.0411
  825TIP3   OH223965   2.809   1.155   1.543  0.2057 -0.2421 -0.4890
  825TIP3    H123966   2.757   1.076   1.527 -0.0362 -0.1947  0.0717
  825TIP3    H223967   2.768   1.196   1.619 -0.0174  0.7181 -1.1048
  826TIP3   OH223968   1.700   3.990  13.504  0.7145  0.2633 -0.5346
  826TIP3    H123969   1.617   3.961  13.542  2.1794 -1.0394  1.7487
  826TIP3    H223970   1.706   4.083  13.526 -0.7744  0.7215 -1.9507
  827TIP3   OH223971   1.203   0.348   5.754 -0.0492 -0.1237  0.1755
  827TIP3    H123972   1.158   0.408   5.813  0.9079  0.1401  0.6465
  827TIP3    H223973   1.291   0.338   5.792 -0.4955 -2.5756  0.6658
  828TIP3   OH223974   2.570   4.381   1.697  0.1918  0.1690  0.0627
  828TIP3    H123975   2.654   4.427   1.691  0.1576  0.4543  1.7070
  828TIP3    H223976   2.505   4.448   1.679  0.2447  0.2919  0.3262
  829TIP3   OH223977   6.444   5.863   5.194  0.0915 -0.2758  0.1554
  829TIP3    H123978   6.530   5.898   5.220  1.0098 -2.2412 -0.1542
  829TIP3    H223979   6.399   5.847   5.277 -0.1689  1.2029  0.3108
  830TIP3   OH223980   1.782   0.707  16.511  0.7071 -0.1989 -0.3011
  830TIP3    H123981   1.702   0.660  16.532  0.0123  0.4908 -1.3179
  830TIP3    H223982   1.810   0.745  16.594  0.1700 -0.7335  0.1283
  831TIP3   OH223983   6.182   6.650   1.306  0.1802  0.3794 -0.3877
  831TIP3    H123984   6.266   6.605   1.310  0.5550  1.0164 -0.8993
  831TIP3    H223985   6.124   6.599   1.362  0.2742 -1.4074 -1.8708
  832TIP3   OH223986   3.457   5.424  14.795 -0.2463 -0.2432 -0.4235
  832TIP3    H123987   3.439   5.331  14.806  1.0147 -0.2636  1.7013
  832TIP3    H223988   3.548   5.428  14.767  0.0125  0.3832  0.4879
  833TIP3   OH223989   4.894   5.982   0.940  0.5764 -0.2728 -0.2468
  833TIP3    H123990   4.900   6.076   0.929  2.3451  0.0139  2.5944
  833TIP3    H223991   4.981   5.949   0.918 -0.1591 -1.3543 -1.7157
  834TIP3   OH223992   6.453   3.260  16.097  0.0390  0.1388  0.2022
  834TIP3    H123993   6.520   3.324  16.121  0.9564 -1.5265  2.2179
  834TIP3    H223994   6.495   3.205  16.031 -0.7182  1.5087 -1.4613
  835TIP3   OH223995   2.641   6.246   4.915 -0.1992  0.2650  0.0484
  835TIP3    H123996   2.600   6.326   4.947  1.5475  1.0299  0.4534
  835TIP3    H223997   2.615   6.241   4.823  0.8072  2.0698 -0.3593
  836TIP3   OH223998   1.968   3.033   4.338 -0.2337  0.3119  0.6337
  836TIP3    H123999   1.997   3.110   4.387  0.7660  1.0399 -1.0492
  836TIP3    H224000   1.952   3.066   4.249  1.1070 -1.5988 -0.3431
  837TIP3   OH224001   5.871   4.823   2.600  0.0306 -0.3125 -0.6474
  837TIP3    H124002   5.822   4.741   2.597 -1.1460  0.3892 -0.8072
  837TIP3    H224003   5.909   4.825   2.688 -1.2887 -0.2543 -0.0725
  838TIP3   OH224004   5.587   1.347  14.553 -0.2945  0.0234  0.1268
  838TIP3    H124005   5.509   1.291  14.556 -0.7348  0.6252 -0.1623
  838TIP3    H224006   5.584   1.398  14.633 -0.8608  0.9382 -0.4681
  839TIP3   OH224007   4.482   4.643   0.067 -0.7376  0.0274 -0.4439
  839TIP3    H124008   4.422   4.572   0.092  1.9473 -3.2115 -2.8692
  839TIP3    H224009   4.563   4.623   0.114  0.6754  0.3408 -2.6889
  840TIP3   OH224010   4.082   0.815  17.141  0.5201 -0.1437 -0.4788
  840TIP3    H124011   4.121   0.847  17.223  0.3726 -0.0352 -0.4497
  840TIP3    H224012   4.017   0.750  17.170  0.3301  0.0369 -0.4990
  841TIP3   OH224013   1.940   4.034   3.492  0.2750 -0.1799  0.5389
  841TIP3    H124014   1.863   4.087   3.472  0.6930  0.4160  0.4981
  841TIP3    H224015   1.905   3.946   3.510 -0.2127 -0.4557 -1.6398
  842TIP3   OH224016   1.521   4.910  16.123  0.2327  0.4643  0.0006
  842TIP3    H124017   1.610   4.881  16.145  0.1414 -0.1488 -0.4170
  842TIP3    H224018   1.464   4.850  16.171  0.0344  1.4198  0.9809
  843TIP3   OH224019   5.662   0.856   5.135 -0.1223  0.6110  0.3451
  843TIP3    H124020   5.576   0.827   5.164 -0.3503  1.0110  0.0784
  843TIP3    H224021   5.724   0.814   5.195 -0.4483 -0.3634  0.0115
  844TIP3   OH224022   6.539   3.605   3.705 -0.4828  0.1435  0.5292
  844TIP3    H124023   6.513   3.514   3.713 -0.5244  0.2816  2.0701
  844TIP3    H224024   6.635   3.603   3.714 -0.4644  0.2391  0.3696
  845TIP3   OH224025   0.100   6.603   0.143  0.2357  0.0332 -0.0341
  845TIP3    H124026   0.142   6.587   0.228  1.7177  0.0806 -0.7458
  845TIP3    H224027   0.144   6.682   0.110 -0.7092  0.3150 -0.6071
  846TIP3   OH224028   4.902   4.311   3.945 -0.5980 -0.0996  0.0054
  846TIP3    H124029   4.963   4.290   3.874 -0.0513 -0.4253  0.5650
  846TIP3    H224030   4.848   4.381   3.910 -0.9378 -0.8806 -1.0714
  847TIP3   OH224031   6.302   1.046   1.286  0.4515  0.1359  0.4417
  847TIP3    H124032   6.243   1.049   1.362 -0.0157 -2.2834  0.2297
  847TIP3    H224033   6.390   1.045   1.324  0.2829  0.8801  0.8683
  848TIP3   OH224034   2.307   0.056   4.620 -0.1842 -0.0814 -0.3397
  848TIP3    H124035   2.227   0.105   4.637 -0.2776 -0.6883  1.0039
  848TIP3    H224036   2.372   0.122   4.598 -0.5682  0.5549  0.4539
  849TIP3   OH224037   5.112   2.781  11.698  0.2300 -0.2297 -0.3749
  849TIP3    H124038   5.145   2.773  11.608 -0.8103  0.3399 -0.8195
  849TIP3    H224039   5.108   2.691  11.729  0.9445 -0.4034 -0.7776
  850TIP3   OH224040   2.420   5.131   6.025  0.3893  0.1821 -0.6007
  850TIP3    H124041   2.326   5.136   6.012  0.0036  0.2241  1.8449
  850TIP3    H224042   2.444   5.042   5.999 -0.4422 -0.0475 -0.5834
  851TIP3   OH224043   2.132   1.127   4.104 -0.1888  0.3478  0.6082
  851TIP3    H124044   2.147   1.184   4.179 -0.6784  0.7481  0.4041
  851TIP3    H224045   2.064   1.067   4.133  0.1176  0.0529  0.7224
  852TIP3   OH224046   4.939   5.979   6.135 -0.2087 -0.0062 -0.4576
  852TIP3    H124047   4.926   5.934   6.052  0.6479 -2.7528  0.8495
  852TIP3    H224048   4.862   5.956   6.188 -0.7468  1.7138 -0.4617
  853TIP3   OH224049   4.160   1.564  12.486  0.5930 -0.0066 -0.8628
  853TIP3    H124050   4.090   1.501  12.468  0.9954 -0.3710 -1.1776
  853TIP3    H224051   4.121   1.627  12.546 -0.2492  0.2494 -1.6564
  854TIP3   OH224052   4.816   3.792   3.789  0.2521 -0.0280  0.2060
  854TIP3    H124053   4.809   3.886   3.803 -0.5589 -0.1142  0.4143
  854TIP3    H224054   4.891   3.764   3.841  0.6039  0.5291  0.0002
  855TIP3   OH224055   4.056   2.501   3.629 -0.2964 -0.0061  0.5552
  855TIP3    H124056   4.006   2.447   3.690  0.3131 -0.1492  0.9327
  855TIP3    H224057   3.990   2.546   3.577 -0.8227 -2.3876 -0.8973
  856TIP3   OH224058   2.512   1.763   0.946  0.2971  0.0905 -0.0783
  856TIP3    H124059   2.555   1.829   0.892 -1.3410  0.9269 -0.4164
  856TIP3    H224060   2.501   1.688   0.888  0.3305  0.2726 -0.3237
  857TIP3   OH224061   3.480   4.279   5.778  0.6828 -0.2650  0.3448
  857TIP3    H124062   3.510   4.193   5.749 -0.0899 -0.5068  0.2469
  857TIP3    H224063   3.414   4.260   5.845 -1.0434  0.1910 -1.1700
  858TIP3   OH224064   4.345   3.495  11.119 -0.0575 -0.5282  0.3114
  858TIP3    H124065   4.424   3.455  11.081 -1.0849 -1.5659 -0.7567
  858TIP3    H224066   4.352   3.474  11.213  1.4931  0.3577  0.4115
  859TIP3   OH224067   2.981   5.121  16.229  0.6041  0.1921 -0.3296
  859TIP3    H124068   2.970   5.094  16.320 -0.7768 -1.7895 -1.0496
  859TIP3    H224069   3.030   5.203  16.234  0.7687 -0.0181  2.1740
  860TIP3   OH224070   5.327   2.648   4.269  0.2882  0.2209  0.3998
  860TIP3    H124071   5.305   2.740   4.279  0.9685  0.6009 -1.2572
  860TIP3    H224072   5.248   2.608   4.234 -0.2255  0.0406  1.7681
  861TIP3   OH224073   0.544   6.640  14.717  0.1637 -0.0961 -0.1335
  861TIP3    H124074   0.536   6.597  14.802  1.5316 -1.0099 -0.4515
  861TIP3    H224075   0.600   6.581  14.665 -1.4915 -0.0714 -2.0109
  862TIP3   OH224076   3.332   2.847  12.614  0.2325 -0.6799 -0.7453
  862TIP3    H124077   3.406   2.826  12.557 -0.3913 -0.3513 -1.6899
  862TIP3    H224078   3.280   2.909  12.564  0.1197  0.2862  0.5483
  863TIP3   OH224079   1.316   5.518   2.111  0.7986  0.5927  0.0089
  863TIP3    H124080   1.227   5.509   2.144  1.2454 -0.3919  0.9705
  863TIP3    H224081   1.356   5.583   2.168  1.0436  0.1585  0.3419
  864TIP3   OH224082   6.159   5.443   0.596  0.1881  0.1248  0.1990
  864TIP3    H124083   6.153   5.537   0.577 -0.4880 -0.0520 -0.4967
  864TIP3    H224084   6.161   5.401   0.510  1.0694 -0.4672  0.5046
  865TIP3   OH224085   2.940   4.702  12.130  0.0601  0.0122  0.1152
  865TIP3    H124086   2.930   4.671  12.039 -0.1816  0.7052 -0.0926
  865TIP3    H224087   2.862   4.754  12.146 -1.1261 -2.1268  1.5573
  866TIP3   OH224088   4.337   1.416  15.151  0.0840 -0.6946  0.6796
  866TIP3    H124089   4.401   1.367  15.202  0.2707  0.3183  1.4196
  866TIP3    H224090   4.374   1.420  15.063  1.5499  0.7746  1.3415
  867TIP3   OH224091   1.865   2.439   5.060  0.6746  0.2148  0.1259
  867TIP3    H124092   1.854   2.458   5.153  0.5669 -1.5169  0.4918
  867TIP3    H224093   1.957   2.412   5.052 -0.0954 -2.6445  0.3235
  868TIP3   OH224094   6.589   6.543   3.074 -0.2105 -0.0795  0.0991
  868TIP3    H124095   6.522   6.600   3.037 -1.4694 -0.5309  1.6427
  868TIP3    H224096   6.629   6.595   3.143 -0.4402 -0.5667  0.6066
  869TIP3   OH224097   2.457   2.623   4.094 -0.2000  0.3623  0.7042
  869TIP3    H124098   2.421   2.696   4.044 -0.2215 -0.8903 -1.1483
  869TIP3    H224099   2.381   2.566   4.109 -0.0019  0.2673  1.3591
  870TIP3   OH224100   6.592   3.086   2.750  0.3761  0.3259 -0.5652
  870TIP3    H124101   6.635   3.029   2.815  0.5381 -0.8798 -1.7000
  870TIP3    H224102   6.651   3.160   2.741  0.7853  0.0848  0.0289
  871TIP3   OH224103   0.678   1.756   5.821 -0.1913 -0.2559 -0.2478
  871TIP3    H124104   0.661   1.666   5.849 -1.6465  0.0460 -0.1604
  871TIP3    H224105   0.668   1.754   5.726  0.8636 -0.4142 -0.3653
  872TIP3   OH224106   0.023   6.802   0.488  0.3360  0.1692  0.2361
  872TIP3    H124107  -0.013   6.870   0.544 -2.1611  1.0039 -2.2184
  872TIP3    H224108   0.047   6.848   0.407 -1.3098 -1.7710 -1.4302
  873TIP3   OH224109   6.486   4.147   3.739  0.4108  0.1351 -0.2437
  873TIP3    H124110   6.528   4.176   3.658 -1.5573  0.5220 -1.1539
  873TIP3    H224111   6.515   4.057   3.751 -0.2682 -0.3234 -2.0465
  874TIP3   OH224112   5.894   4.403  15.559 -0.2053  0.7667 -0.7107
  874TIP3    H124113   5.897   4.339  15.488  0.7968  1.1546 -1.0214
  874TIP3    H224114   5.801   4.422  15.570 -0.3189  1.2933 -2.4483
  875TIP3   OH224115   0.139   6.195   0.504 -0.0044 -0.1183  0.6390
  875TIP3    H124116   0.065   6.222   0.558 -0.0851 -0.3992  0.6704
  875TIP3    H224117   0.213   6.192   0.564  0.2136  0.9523  0.4498
  876TIP3   OH224118   6.589   4.606   0.338 -0.2662  0.1839 -0.0252
  876TIP3    H124119   6.622   4.518   0.319 -2.0503 -0.4079 -0.4569
  876TIP3    H224120   6.631   4.662   0.274 -0.4582 -0.6403 -0.8820
  877TIP3   OH224121   5.272   3.576  16.645 -0.2934 -0.0401 -0.3980
  877TIP3    H124122   5.252   3.668  16.625  1.2208  0.0812 -1.4682
  877TIP3    H224123   5.360   3.579  16.681  0.1347 -1.1677 -1.3184
  878TIP3   OH224124   2.312   3.472  13.869  0.4667 -0.5647 -0.6770
  878TIP3    H124125   2.236   3.442  13.918  1.4156 -1.6232  0.1719
  878TIP3    H224126   2.286   3.558  13.835 -0.3082  0.0514  1.4277
  879TIP3   OH224127   3.579   4.502   2.946  0.0159  0.0402 -0.2272
  879TIP3    H124128   3.517   4.524   3.015  0.3512 -0.2301  0.1679
  879TIP3    H224129   3.525   4.480   2.870 -0.3151  3.4145 -1.0299
  880TIP3   OH224130   6.801   0.226   2.898  0.4110  0.1676 -0.1133
  880TIP3    H124131   6.829   0.257   2.812 -1.8610  0.1709 -0.8788
  880TIP3    H224132   6.843   0.285   2.960 -0.8901  2.5039 -1.3917
  881TIP3   OH224133   1.164   5.568  11.980 -0.0054  0.1282 -0.3337
  881TIP3    H124134   1.243   5.623  11.974 -0.3125  0.6311  0.2446
  881TIP3    H224135   1.110   5.610  12.046 -0.5955 -0.4390 -0.4502
  882TIP3   OH224136   6.379   0.964  14.656  0.6409  0.3866 -0.1082
  882TIP3    H124137   6.328   0.965  14.738  0.2650 -1.6350 -0.2748
  882TIP3    H224138   6.428   1.046  14.657  1.5625 -0.1352  2.7504
  883TIP3   OH224139   5.068   5.744   5.051  0.0598 -0.1127 -0.1284
  883TIP3    H124140   4.993   5.697   5.015  0.5197 -0.8128 -0.1805
  883TIP3    H224141   5.115   5.779   4.974  1.7003 -2.6115 -0.3154
  884TIP3   OH224142   2.862   3.436  13.863 -0.0021  0.1926  0.1985
  884TIP3    H124143   2.840   3.525  13.837 -1.0137 -0.2956 -0.6455
  884TIP3    H224144   2.816   3.380  13.801  1.4141 -0.9110  0.1092
  885TIP3   OH224145   0.197   2.314   5.939  0.0636 -0.1754 -0.5298
  885TIP3    H124146   0.143   2.327   6.017 -0.2889 -0.1435 -0.7778
  885TIP3    H224147   0.136   2.325   5.866  0.6103  0.9184 -0.8384
  886TIP3   OH224148   6.081   5.042  15.877 -0.2542  0.0008  0.1603
  886TIP3    H124149   6.025   5.005  15.945 -0.8385  2.6499  1.2050
  886TIP3    H224150   6.150   5.088  15.925  1.4942 -1.2119 -1.1027
  887TIP3   OH224151   0.341   0.896  16.513  0.0760 -0.3673 -0.2605
  887TIP3    H124152   0.266   0.913  16.570 -0.9656 -0.0928 -1.6783
  887TIP3    H224153   0.303   0.858  16.433  1.3702  0.4616 -1.2978
  888TIP3   OH224154   6.397   0.953  12.253  0.6483 -0.3025 -0.4406
  888TIP3    H124155   6.488   0.948  12.224  1.2086  0.0740  1.2302
  888TIP3    H224156   6.398   1.018  12.323 -0.9417 -0.1819 -0.5246
  889TIP3   OH224157   3.605   1.718   0.516 -0.7880  0.4257 -0.1172
  889TIP3    H124158   3.511   1.721   0.495 -0.6454 -0.6538 -0.9467
  889TIP3    H224159   3.647   1.763   0.444 -0.5492 -0.4721 -0.5465
  890TIP3   OH224160   3.978   4.401  14.417  0.2825  0.2210 -0.5801
  890TIP3    H124161   4.046   4.377  14.479  0.6938 -1.4708 -1.6628
  890TIP3    H224162   3.962   4.494  14.434  0.1749 -0.2631  2.2399
  891TIP3   OH224163   0.479   0.251   2.723  0.4917  0.5379  0.1726
  891TIP3    H124164   0.406   0.193   2.742 -0.5287  1.5824 -0.4773
  891TIP3    H224165   0.540   0.239   2.797 -0.7248  0.3039  1.1480
  892TIP3   OH224166   2.298   5.753  14.935  0.0846  0.3728  0.0136
  892TIP3    H124167   2.224   5.711  14.892  0.0544 -0.1570  0.5764
  892TIP3    H224168   2.328   5.689  14.999  1.0710  0.5569 -0.2563
  893TIP3   OH224169   3.753   4.257  16.285 -0.0944 -0.2664 -0.6777
  893TIP3    H124170   3.747   4.170  16.323  0.8804  0.1657  0.5150
  893TIP3    H224171   3.675   4.302  16.315 -0.3400 -0.5623 -0.8711
  894TIP3   OH224172   0.438   0.806  16.121  0.0876  0.3966 -0.6403
  894TIP3    H124173   0.385   0.879  16.089  0.3727  0.5582 -0.7457
  894TIP3    H224174   0.385   0.766  16.190  0.5139  1.5598  0.3818
  895TIP3   OH224175   0.594   1.271  14.675  1.0493 -0.2834 -0.5765
  895TIP3    H124176   0.548   1.288  14.757  2.5853  2.2452 -0.1713
  895TIP3    H224177   0.569   1.182  14.651 -3.3557  0.6377  0.0450
  896TIP3   OH224178   1.331   2.878   1.846  1.1515  0.0872  0.1417
  896TIP3    H124179   1.333   2.885   1.941  1.5487  1.0885  0.0576
  896TIP3    H224180   1.421   2.858   1.821  1.6563  2.7206 -0.2459
  897TIP3   OH224181   1.932   1.304  13.045  0.2308  0.0231 -0.3099
  897TIP3    H124182   1.910   1.211  13.036  1.2938  0.0328 -3.8366
  897TIP3    H224183   2.027   1.307  13.035  0.2625  1.4507  0.3635
  898TIP3   OH224184   2.488   3.273  14.137  0.3718 -0.0174 -0.5430
  898TIP3    H124185   2.458   3.182  14.148 -1.2677  0.3515 -1.7611
  898TIP3    H224186   2.501   3.282  14.043 -0.7326  1.4016 -0.5615
  899TIP3   OH224187   0.885   3.135  11.116 -0.2391  0.1718  0.0649
  899TIP3    H124188   0.850   3.097  11.035  0.4823  0.3137 -0.3188
  899TIP3    H224189   0.846   3.223  11.120 -0.7523 -0.0587  0.1903
  900TIP3   OH224190   1.515   0.258   6.654 -0.2078  0.7034  0.0550
  900TIP3    H124191   1.455   0.247   6.728  0.2829 -0.7584  0.2560
  900TIP3    H224192   1.524   0.170   6.618 -0.7630  1.4709 -2.0095
  901TIP3   OH224193   0.595   4.081   3.525 -0.1498 -0.0781  0.1885
  901TIP3    H124194   0.595   3.986   3.537 -0.6635 -0.0247  0.6435
  901TIP3    H224195   0.659   4.097   3.455 -1.8568 -0.9674 -1.6192
  902TIP3   OH224196   5.384   6.284  14.428 -0.1716  0.1049  0.2220
  902TIP3    H124197   5.426   6.327  14.354  0.5417  3.2068  2.3131
  902TIP3    H224198   5.395   6.191  14.411  2.2511  0.7708 -2.2690
  903TIP3   OH224199   3.999   5.884   5.037 -0.1012 -0.2838 -0.7855
  903TIP3    H124200   3.952   5.919   4.961 -1.9492 -0.6101  0.1744
  903TIP3    H224201   4.007   5.791   5.019 -0.7890 -0.4085 -0.4622
  904TIP3   OH224202   1.406   3.418  14.378 -0.9508 -0.5069  0.0248
  904TIP3    H124203   1.456   3.336  14.373  0.8633  0.6203 -0.5367
  904TIP3    H224204   1.361   3.423  14.293 -0.2210 -0.4052 -0.3623
  905TIP3   OH224205   1.380   6.796   1.161  0.6238  0.5367  0.0825
  905TIP3    H124206   1.367   6.839   1.076  0.9956 -0.3079 -0.4089
  905TIP3    H224207   1.337   6.854   1.224 -0.5322  0.6686 -0.8064
  906TIP3   OH224208   1.707   3.667   2.619 -0.1833 -0.3532 -0.2999
  906TIP3    H124209   1.746   3.731   2.560 -0.5588  0.9076  0.8040
  906TIP3    H224210   1.710   3.584   2.571  0.4339  0.4687 -1.6741
  907TIP3   OH224211   5.408   3.102  10.623 -0.3956  0.4579  0.2316
  907TIP3    H124212   5.413   3.051  10.543 -1.8254 -1.2129  1.1728
  907TIP3    H224213   5.346   3.172  10.604  1.3303  1.7088 -0.9571
  908TIP3   OH224214   1.186   2.964   5.177 -0.3166  0.6565 -0.3840
  908TIP3    H124215   1.214   2.977   5.087 -1.0255  0.3512 -0.6534
  908TIP3    H224216   1.264   2.981   5.230  0.0154  1.1472 -1.0324
  909TIP3   OH224217   4.587   6.790   1.644  0.1337 -0.3485 -0.0256
  909TIP3    H124218   4.515   6.756   1.696 -0.5307  0.0121 -0.7084
  909TIP3    H224219   4.625   6.860   1.699  0.6229 -1.2262  0.7681
  910TIP3   OH224220   0.710   3.960   0.553  0.6821  0.4926 -0.0216
  910TIP3    H124221   0.751   3.880   0.521  1.7909  0.8594  0.4647
  910TIP3    H224222   0.757   3.981   0.634  0.5201  1.7152 -0.2254
  911TIP3   OH224223   1.806   3.906   5.991 -0.3955  0.1868  0.4866
  911TIP3    H124224   1.898   3.925   5.971 -0.3713  0.5092  0.9037
  911TIP3    H224225   1.772   3.989   6.025 -0.5630 -0.2282  1.3402
  912TIP3   OH224226   6.135   1.666   1.991  0.3620 -0.7190  0.0938
  912TIP3    H124227   6.086   1.608   1.933  0.0994 -1.4535  1.0281
  912TIP3    H224228   6.143   1.748   1.943 -3.1422 -0.0586  0.5133
  913TIP3   OH224229   6.089   2.612  15.939  0.6400 -0.3820 -0.6009
  913TIP3    H124230   6.006   2.617  15.987  1.2827 -0.2807  0.5068
  913TIP3    H224231   6.073   2.662  15.859 -0.7465 -1.3729 -0.9671
  914TIP3   OH224232   3.601   0.476  15.715  0.4201  0.0932  0.8258
  914TIP3    H124233   3.614   0.532  15.791  2.6656  1.0223 -0.1954
  914TIP3    H224234   3.625   0.531  15.640  0.4224 -1.4961 -0.3633
  915TIP3   OH224235   3.379   1.189   4.958 -0.0267 -0.2165  0.5969
  915TIP3    H124236   3.431   1.263   4.990  1.2978 -1.0820  0.4827
  915TIP3    H224237   3.301   1.189   5.013 -0.1455  1.3823  0.4726
  916TIP3   OH224238   1.222   0.624  11.174 -0.1733 -0.2150  0.2067
  916TIP3    H124239   1.246   0.643  11.083  0.8168  1.5134  0.7888
  916TIP3    H224240   1.252   0.534  11.188 -0.9891 -0.7538 -1.3755
  917TIP3   OH224241   0.467   2.504   4.272 -0.3212  0.2426  0.2540
  917TIP3    H124242   0.492   2.558   4.197  0.3823  0.5661  0.7225
  917TIP3    H224243   0.372   2.518   4.280 -0.3848  0.2783 -0.5175
  918TIP3   OH224244   0.828   4.994  16.512 -0.2615 -0.0632  0.4620
  918TIP3    H124245   0.818   4.939  16.434 -2.2928 -0.2608  0.8351
  918TIP3    H224246   0.860   5.078  16.478  0.5599 -0.7072 -0.3725
  919TIP3   OH224247   4.903   0.334   4.754 -0.0034  0.7603 -0.5583
  919TIP3    H124248   4.862   0.252   4.783  0.6115 -0.0487 -1.9321
  919TIP3    H224249   4.832   0.399   4.758 -0.1299  0.4928  1.9201
  920TIP3   OH224250   6.027   3.875  14.566 -0.1772  0.1656 -0.5231
  920TIP3    H124251   5.945   3.876  14.616 -0.1026  2.1734 -0.4169
  920TIP3    H224252   5.999   3.857  14.476 -0.8055  1.3778 -0.5808
  921TIP3   OH224253   4.540   1.172  16.676 -0.0239 -0.4795 -0.7673
  921TIP3    H124254   4.500   1.173  16.589  1.1351 -0.3459 -1.3008
  921TIP3    H224255   4.502   1.095  16.719 -0.7001 -0.4683 -1.3371
  922TIP3   OH224256   0.709   1.793  14.630  0.6123 -0.4084 -0.0070
  922TIP3    H124257   0.663   1.710  14.625 -1.2657  0.6585 -0.8499
  922TIP3    H224258   0.643   1.856  14.656  1.3230  1.3350 -2.2280
  923TIP3   OH224259   3.747   3.450   2.444  0.0821 -0.6376  0.3043
  923TIP3    H124260   3.801   3.423   2.519  0.1949 -0.5670  0.2489
  923TIP3    H224261   3.690   3.518   2.479  0.4860 -0.2428  0.2062
  924TIP3   OH224262   1.114   1.427   1.105 -0.2459 -0.6841 -0.3200
  924TIP3    H124263   1.109   1.521   1.088 -1.0236 -0.7691 -0.6138
  924TIP3    H224264   1.202   1.413   1.139 -0.3879  0.2798  0.4946
  925TIP3   OH224265   4.664   1.268  13.420 -0.1161 -0.0295 -0.2694
  925TIP3    H124266   4.701   1.355  13.433  1.7596 -1.0499  1.4352
  925TIP3    H224267   4.637   1.267  13.328  1.6968  1.6499 -0.8380
  926TIP3   OH224268   5.311   3.857   2.282  0.0943 -0.3330 -0.2572
  926TIP3    H124269   5.321   3.876   2.189 -0.2216 -1.4128 -0.5233
  926TIP3    H224270   5.276   3.938   2.320 -3.1825 -0.9773 -1.7059
  927TIP3   OH224271   3.762   2.658  15.231  0.3342 -0.7957  0.0332
  927TIP3    H124272   3.774   2.732  15.291 -0.6915  0.7856 -1.6370
  927TIP3    H224273   3.811   2.683  15.153 -1.4009 -1.0960 -1.1834
  928TIP3   OH224274   1.934   3.523   3.617  0.1414 -0.6585  0.0324
  928TIP3    H124275   1.988   3.577   3.560  0.2518 -1.6541 -0.8143
  928TIP3    H224276   1.944   3.562   3.704 -0.4590  1.1928 -0.7031
  929TIP3   OH224277   0.662   3.910  13.345  0.0364  0.5291  0.0322
  929TIP3    H124278   0.686   3.958  13.266 -2.3275 -1.8082 -2.2130
  929TIP3    H224279   0.569   3.928  13.356  0.1356  0.0651  1.7522
  930TIP3   OH224280   2.487   5.997  13.855  0.0327 -0.7605  0.2187
  930TIP3    H124281   2.439   6.054  13.915  1.6999 -0.7969  1.6552
  930TIP3    H224282   2.456   6.022  13.768 -0.6479  1.0127  0.9309
  931TIP3   OH224283   1.487   4.508  15.852  0.0812  0.6325 -0.2945
  931TIP3    H124284   1.483   4.603  15.856 -3.3052  0.5021  0.9421
  931TIP3    H224285   1.423   4.484  15.786 -0.4420 -0.8452  0.7194
  932TIP3   OH224286   4.018   5.819   1.800 -0.7335  0.4050 -0.1849
  932TIP3    H124287   4.027   5.905   1.758  0.4617  0.3371 -0.0810
  932TIP3    H224288   4.107   5.790   1.814 -1.0367  0.8817  3.3118
  933TIP3   OH224289   6.073   0.385   1.583  0.3420 -0.4529 -0.9980
  933TIP3    H124290   6.142   0.440   1.547 -0.6239  1.5606  0.1237
  933TIP3    H224291   6.000   0.445   1.598 -0.9841 -2.1750 -0.3702
  934TIP3   OH224292   6.515   1.429   2.701 -0.0136 -0.1292 -0.4144
  934TIP3    H124293   6.434   1.448   2.655 -0.4709 -0.5110  0.2203
  934TIP3    H224294   6.580   1.488   2.662 -0.4625 -0.2348 -1.3196
  935TIP3   OH224295   5.064   3.087  15.270 -0.6285 -0.5992 -0.1031
  935TIP3    H124296   5.079   3.153  15.338 -1.5105  0.2591 -0.7258
  935TIP3    H224297   5.053   3.005  15.318  2.8333 -0.7305  0.5386
  936TIP3   OH224298   5.517   2.724   0.644  0.4867 -0.3251  0.6777
  936TIP3    H124299   5.505   2.670   0.722 -0.2531 -0.1982  0.6554
  936TIP3    H224300   5.490   2.812   0.670 -0.3040 -0.3989  0.1232
  937TIP3   OH224301   6.664   4.029   3.990  0.1017 -0.4955  0.0236
  937TIP3    H124302   6.653   3.959   3.925 -0.3122  0.7037 -1.2226
  937TIP3    H224303   6.578   4.040   4.029  0.4198 -1.4217  1.0034
  938TIP3   OH224304   6.081   4.363   2.093 -0.3437 -0.2642 -0.3665
  938TIP3    H124305   5.995   4.335   2.063  0.3134 -1.7333 -0.9002
  938TIP3    H224306   6.075   4.365   2.188 -2.0763  3.2275 -0.4661
  939TIP3   OH224307   1.448   1.667  11.811 -0.8167  0.0261 -0.2023
  939TIP3    H124308   1.525   1.618  11.839  1.3451  2.2789 -2.0123
  939TIP3    H224309   1.421   1.625  11.729  0.4570  1.2028 -1.2502
  940TIP3   OH224310   5.232   5.309  13.085 -1.0455 -0.0669  0.6818
  940TIP3    H124311   5.212   5.361  13.006 -0.7407 -1.4524 -0.3308
  940TIP3    H224312   5.184   5.354  13.155 -1.2216  1.2696 -0.2597
  941TIP3   OH224313   3.118   1.771  10.277 -0.3351  0.0451  0.0571
  941TIP3    H124314   3.073   1.739  10.198 -1.5718 -1.1392  1.2158
  941TIP3    H224315   3.089   1.862  10.285  0.0339  0.2721 -1.0091
  942TIP3   OH224316   0.585   1.890  12.615 -0.2432 -0.3989  0.4301
  942TIP3    H124317   0.552   1.943  12.688 -1.0309 -0.0486 -0.1685
  942TIP3    H224318   0.667   1.853  12.648  0.1588  0.9246  0.9743
  943TIP3   OH224319   0.555   2.346   2.976 -0.4565 -0.0373 -0.0305
  943TIP3    H124320   0.488   2.296   3.023  0.0949 -0.0930  0.7126
  943TIP3    H224321   0.508   2.390   2.905 -0.6858 -3.0574 -1.8467
  944TIP3   OH224322   6.671   1.966  12.050 -0.5388  0.5641 -0.3285
  944TIP3    H124323   6.738   2.028  12.021  0.9300 -0.5852  0.5801
  944TIP3    H224324   6.641   2.001  12.134 -0.4026  0.5652 -0.2812
  945TIP3   OH224325   3.724   0.136  14.181 -0.7301 -0.0040 -0.4488
  945TIP3    H124326   3.691   0.202  14.241  0.6086 -0.2274  0.5586
  945TIP3    H224327   3.677   0.152  14.099 -0.6395  1.9891 -0.1318
  946TIP3   OH224328   5.013   2.569   6.591 -0.0261 -0.3113 -0.4737
  946TIP3    H124329   5.018   2.635   6.522  1.0966 -0.5729 -0.6557
  946TIP3    H224330   4.919   2.556   6.606 -0.2612  0.5589 -1.1668
  947TIP3   OH224331   1.972   0.233   1.580  0.6100  0.0434  0.3639
  947TIP3    H124332   2.057   0.233   1.623  1.9441 -0.8687 -2.2113
  947TIP3    H224333   1.956   0.142   1.557 -0.0891  0.4858 -0.9860
  948TIP3   OH224334   3.807   5.970  14.404 -0.0705  0.2096 -0.2022
  948TIP3    H124335   3.794   5.877  14.386  1.2211  0.0300 -0.2717
  948TIP3    H224336   3.736   5.993  14.464 -0.3661 -0.8280 -0.1373
  949TIP3   OH224337   3.644   5.378  17.072 -0.3981  0.8023 -0.0686
  949TIP3    H124338   3.570   5.350  17.125 -0.1468 -0.9570 -0.6207
  949TIP3    H224339   3.710   5.405  17.136  0.5881 -3.0377  0.6176
  950TIP3   OH224340   6.377   4.166   4.980  0.1543  0.1915 -0.5822
  950TIP3    H124341   6.354   4.176   5.072  0.8470  1.3741 -0.5288
  950TIP3    H224342   6.472   4.175   4.978  0.0601  1.0952 -1.5128
  951TIP3   OH224343   0.009   4.661  14.827  0.3182 -0.5128 -0.1500
  951TIP3    H124344   0.077   4.713  14.784 -0.1044  0.4905  0.3772
  951TIP3    H224345   0.030   4.668  14.921 -0.2229 -0.6099 -0.0192
  952TIP3   OH224346   4.901   0.418  16.293 -0.2406  0.2498  0.3318
  952TIP3    H124347   4.965   0.483  16.323 -0.3838  0.3967  0.3215
  952TIP3    H224348   4.865   0.382  16.374 -1.3471  1.3572  0.3552
  953TIP3   OH224349   4.854   2.838  11.936 -0.0770  0.2821 -0.0429
  953TIP3    H124350   4.940   2.806  11.965  0.7352 -0.4131 -2.9782
  953TIP3    H224351   4.791   2.787  11.986  1.2381  0.0819  1.4290
  954TIP3   OH224352   2.262   4.898   5.654 -0.8751 -0.0019  0.3206
  954TIP3    H124353   2.345   4.907   5.701 -1.0916  0.6284  0.5922
  954TIP3    H224354   2.267   4.963   5.584 -1.2376  0.2014  0.4836
  955TIP3   OH224355   0.439   1.318   1.912  0.3050 -0.0229  0.3530
  955TIP3    H124356   0.380   1.384   1.876 -0.2311 -1.3473 -1.3194
  955TIP3    H224357   0.404   1.300   2.000 -1.0144  0.1626 -0.1139
  956TIP3   OH224358   1.093   3.075  13.676  0.3504  0.2314 -0.5255
  956TIP3    H124359   1.131   2.987  13.669  1.0878  0.4982 -0.0025
  956TIP3    H224360   1.017   3.063  13.734  0.4929 -0.0459 -0.3914
  957TIP3   OH224361   5.024   2.853  13.767 -0.4878 -0.0368 -0.1979
  957TIP3    H124362   5.070   2.907  13.703 -0.1454  0.7982  0.7321
  957TIP3    H224363   4.940   2.897  13.780  0.5281  1.4146  1.9757
  958TIP3   OH224364   1.440   4.160   3.824  0.1508  0.6757 -0.4564
  958TIP3    H124365   1.469   4.118   3.743  0.6076  1.9872 -0.9875
  958TIP3    H224366   1.443   4.254   3.805 -0.6375  0.9684  0.7793
  959TIP3   OH224367   3.093   4.561   1.180  0.7827  0.3574 -0.3026
  959TIP3    H124368   3.149   4.632   1.211  0.4758  0.2493  0.5105
  959TIP3    H224369   3.141   4.481   1.204  0.7852  0.2814 -0.5636
  960TIP3   OH224370   6.303   4.597  11.457  0.0656  0.2521 -0.0256
  960TIP3    H124371   6.276   4.509  11.430 -0.5335  0.1831  0.7977
  960TIP3    H224372   6.320   4.642  11.374  0.7642 -0.7544 -0.4393
  961TIP3   OH224373   1.407   1.542  15.835 -0.2435  1.0747  0.2783
  961TIP3    H124374   1.374   1.544  15.925 -1.3799  0.9188 -0.1207
  961TIP3    H224375   1.392   1.630  15.802 -1.7362  0.5844 -0.4050
  962TIP3   OH224376   6.563   4.975   5.829 -0.5200  0.2255 -0.2478
  962TIP3    H124377   6.562   5.016   5.916  0.7586  0.5486 -0.3704
  962TIP3    H224378   6.564   5.048   5.768  1.0811  0.0254 -0.4796
  963TIP3   OH224379   2.081   1.378  15.621  0.1913  0.0972 -0.2648
  963TIP3    H124380   2.166   1.367  15.578 -0.3845 -1.1967 -1.1066
  963TIP3    H224381   2.028   1.426  15.556 -0.1267 -0.2644 -0.2729
  964TIP3   OH224382   5.465   2.622  14.057  0.2146  0.6505 -0.2241
  964TIP3    H124383   5.495   2.541  14.100  0.0680  1.0096  0.5641
  964TIP3    H224384   5.503   2.618  13.969 -1.1314 -1.0739 -0.7581
  965TIP3   OH224385   2.162   2.058   2.485  0.0732 -0.4855 -0.2000
  965TIP3    H124386   2.252   2.034   2.465 -0.1333 -0.3762 -1.3068
  965TIP3    H224387   2.126   2.089   2.401 -0.4947  1.0403  0.5840
  966TIP3   OH224388   0.855   4.466   6.106  0.1685 -0.1531  0.3091
  966TIP3    H124389   0.891   4.453   6.194  1.3897 -0.3695 -0.2123
  966TIP3    H224390   0.771   4.511   6.121 -0.7676 -2.2916  1.7093
  967TIP3   OH224391   6.469   1.496  15.139 -0.1446 -0.0642 -0.3699
  967TIP3    H124392   6.502   1.507  15.049  1.7044 -0.8852  0.1831
  967TIP3    H224393   6.469   1.401  15.152  0.8700  0.1102  0.9495
  968TIP3   OH224394   4.743   0.160  15.543 -0.0482 -0.1100 -0.4782
  968TIP3    H124395   4.838   0.167  15.550  0.1310 -0.6771 -2.0651
  968TIP3    H224396   4.710   0.247  15.564  1.0295  0.9391 -2.8663
  969TIP3   OH224397   5.704   0.740  11.266  0.3243  0.6551  0.2477
  969TIP3    H124398   5.645   0.741  11.191 -0.4418 -0.2133  0.8174
  969TIP3    H224399   5.717   0.832  11.288 -0.6101  0.8638 -0.0523
  970TIP3   OH224400   5.346   2.213   1.628 -0.1513  0.2521  0.5570
  970TIP3    H124401   5.414   2.279   1.614  0.2908 -0.0588  1.1859
  970TIP3    H224402   5.355   2.152   1.555  0.3679  0.1158  0.7301
  971TIP3   OH224403   3.014   1.219  11.655  0.8035 -0.3476 -0.4376
  971TIP3    H124404   3.059   1.249  11.576 -1.6596 -1.3116 -2.2961
  971TIP3    H224405   3.025   1.124  11.654  1.0939 -0.3247  0.5984
  972TIP3   OH224406   3.425   5.841   1.741  0.2373  0.1326 -0.1932
  972TIP3    H124407   3.343   5.856   1.787  0.4713 -1.1159  0.6717
  972TIP3    H224408   3.456   5.757   1.774  1.4953  0.2355 -1.0549
  973TIP3   OH224409   3.209   4.297  15.021 -0.5165 -0.3901  0.0316
  973TIP3    H124410   3.182   4.205  15.023  1.0549 -0.8477  1.8354
  973TIP3    H224411   3.244   4.313  15.109  1.4744  1.2498 -1.0214
  974TIP3   OH224412   3.398   4.391  11.733 -0.8902 -0.1025 -0.7169
  974TIP3    H124413   3.326   4.444  11.766 -1.6920 -0.4906 -1.8216
  974TIP3    H224414   3.403   4.317  11.794 -1.6544 -0.2532 -0.8327
  975TIP3   OH224415   3.652   2.379   2.826 -0.2860  0.1178 -0.3622
  975TIP3    H124416   3.672   2.334   2.744  0.3451  2.2531 -1.4008
  975TIP3    H224417   3.656   2.472   2.805 -0.2142  0.7085  2.0719
  976TIP3   OH224418   5.176   2.412   5.406 -0.0413  0.1259 -0.0908
  976TIP3    H124419   5.212   2.432   5.492  0.0878  2.9829 -0.7555
  976TIP3    H224420   5.244   2.438   5.344  0.3259 -2.9421 -1.0722
  977TIP3   OH224421   2.456   3.694   1.381  0.1814  0.5818 -0.1967
  977TIP3    H124422   2.408   3.614   1.358 -0.7094  1.2519 -0.7138
  977TIP3    H224423   2.526   3.664   1.439 -1.6873 -0.2708  1.7061
  978TIP3   OH224424   6.232   6.751   5.718  0.0409  0.1326  0.8415
  978TIP3    H124425   6.255   6.840   5.692  0.7655  0.0683  1.2489
  978TIP3    H224426   6.246   6.749   5.813  0.5004 -0.5531  0.7621
  979TIP3   OH224427   2.039   2.191  14.953  0.0564 -0.7437 -0.2433
  979TIP3    H124428   2.080   2.128  15.014 -1.2897 -0.1894  1.2807
  979TIP3    H224429   2.000   2.257  15.010 -0.0306  0.5665 -1.7882
  980TIP3   OH224430   1.561   6.098   3.681 -0.0660  0.1290 -0.0115
  980TIP3    H124431   1.541   6.009   3.711  0.5903 -0.1323 -0.3503
  980TIP3    H224432   1.490   6.152   3.718 -0.4964 -0.5383  0.1485
  981TIP3   OH224433   1.094   6.434   1.034 -0.0892 -0.3658 -0.3237
  981TIP3    H124434   1.148   6.431   1.113  0.7330 -1.4280 -0.9176
  981TIP3    H224435   1.017   6.484   1.061  0.3706 -0.3388  1.0308
  982TIP3   OH224436   6.289   1.016   4.386 -0.3965  0.8903  0.4007
  982TIP3    H124437   6.269   0.980   4.472 -1.6505  1.2768  0.2827
  982TIP3    H224438   6.286   0.940   4.327  0.0352  0.6960  0.6304
  983TIP3   OH224439   5.483   0.130  11.587 -0.0260 -0.1538  0.4379
  983TIP3    H124440   5.525   0.077  11.520 -1.2996  0.4152 -0.8324
  983TIP3    H224441   5.491   0.220  11.556 -0.7003  0.1104  1.0043
  984TIP3   OH224442   3.125   2.850  16.902 -0.6931  0.0212 -0.4875
  984TIP3    H124443   3.101   2.888  16.986  2.0768  2.3263 -0.6942
  984TIP3    H224444   3.168   2.767  16.924  1.1774  1.2223  0.4832
  985TIP3   OH224445   6.386   0.301   2.405  0.4843  0.3319 -0.5894
  985TIP3    H124446   6.453   0.365   2.427  0.2440  0.6294 -0.7069
  985TIP3    H224447   6.303   0.347   2.420  0.3173  0.5457 -2.1072
  986TIP3   OH224448   3.631   3.104   4.889 -0.6839  0.1639  0.0345
  986TIP3    H124449   3.712   3.122   4.938 -1.7358  1.0448  1.4722
  986TIP3    H224450   3.652   3.130   4.799  0.4663  0.8983  0.4901
  987TIP3   OH224451   3.145   5.289   1.041  0.3305 -0.2494 -0.1315
  987TIP3    H124452   3.194   5.354   0.991  1.3541  0.8472  2.2092
  987TIP3    H224453   3.166   5.309   1.132  0.6850 -3.8666  0.6610
  988TIP3   OH224454   4.415   5.551   6.282  0.5531  0.0162 -0.3986
  988TIP3    H124455   4.393   5.593   6.365 -2.0885 -0.3658 -0.8558
  988TIP3    H224456   4.370   5.466   6.286  0.9277 -0.2672 -1.9678
  989TIP3   OH224457   5.238   0.130   3.026 -0.0360 -0.1981  0.6546
  989TIP3    H124458   5.184   0.107   2.950  0.8405  0.5341 -0.2186
  989TIP3    H224459   5.282   0.049   3.050 -1.0668 -0.6620  1.0025
  990TIP3   OH224460   2.323   4.839   2.619 -0.0924  0.3201 -0.6783
  990TIP3    H124461   2.337   4.811   2.709  2.4005 -2.4288 -1.8360
  990TIP3    H224462   2.342   4.933   2.620 -0.6884  0.4314  1.7532
  991TIP3   OH224463   5.757   4.528   0.213 -0.1804 -0.4969  0.0999
  991TIP3    H124464   5.791   4.599   0.267 -0.2346 -0.3559 -0.0500
  991TIP3    H224465   5.706   4.572   0.144  1.3846 -0.5720 -1.1249
  992TIP3   OH224466   1.716   3.442  11.915  0.0517 -0.2227  0.3254
  992TIP3    H124467   1.802   3.467  11.949  0.2045 -0.2782 -0.0148
  992TIP3    H224468   1.685   3.375  11.975  0.5806 -0.7448  0.0202
  993TIP3   OH224469   4.114   0.617  14.871 -0.3954 -0.0321  0.0406
  993TIP3    H124470   4.161   0.672  14.933 -1.0357 -1.1495  1.5767
  993TIP3    H224471   4.142   0.528  14.892 -2.1596 -0.5945  0.0875
  994TIP3   OH224472   1.047   2.330   1.696 -0.0142 -0.7177 -0.3604
  994TIP3    H124473   0.976   2.312   1.636  1.0772  0.1172 -1.9282
  994TIP3    H224474   1.019   2.407   1.745 -1.1597 -1.7574  0.6651
  995TIP3   OH224475   3.868   0.762   0.577  0.4336  0.1242 -0.5646
  995TIP3    H124476   3.812   0.831   0.615 -0.5672 -0.3943 -1.0927
  995TIP3    H224477   3.947   0.764   0.631 -1.0272 -0.7081  1.6840
  996TIP3   OH224478   1.353   2.234  13.129  0.6352  0.0375 -0.1354
  996TIP3    H124479   1.360   2.267  13.039  1.8695  0.1843  0.0129
  996TIP3    H224480   1.341   2.313  13.182  0.7787  0.0237 -0.0817
  997TIP3   OH224481   0.019   2.563   0.575  0.3439  0.6136  0.6928
  997TIP3    H124482   0.045   2.619   0.502  1.3053  0.4249  0.8836
  997TIP3    H224483  -0.076   2.571   0.579  0.0897 -0.6851 -1.6663
  998TIP3   OH224484   2.165   0.694  12.319  0.7508 -0.0688  0.0462
  998TIP3    H124485   2.171   0.620  12.258  1.9877  1.6142 -1.9441
  998TIP3    H224486   2.252   0.700  12.358  0.6948  0.4099  0.1001
  999TIP3   OH224487   5.482   1.304  10.335  0.0435  0.2605  0.6288
  999TIP3    H124488   5.456   1.212  10.345 -1.3843  0.5893  0.0846
  999TIP3    H224489   5.442   1.331  10.252  3.4167  0.3775 -1.0324
 1000TIP3   OH224490   5.562   3.783  13.543 -0.0576  0.1389 -0.3675
 1000TIP3    H124491   5.502   3.851  13.512 -1.8564 -0.5214  1.6151
 1000TIP3    H224492   5.641   3.831  13.569 -2.0838  1.7582  3.0173
 1001TIP3   OH224493   2.578   1.060   5.117 -0.0420  0.6107  1.2352
 1001TIP3    H124494   2.593   1.154   5.111 -0.6832  0.7476  1.6736
 1001TIP3    H224495   2.521   1.039   5.043  0.4926  0.4768  0.8552
 1002TIP3   OH224496   4.555   2.829  16.922  0.5485  0.0933 -0.1624
 1002TIP3    H124497   4.508   2.798  16.845  1.6558  2.0591 -1.6513
 1002TIP3    H224498   4.590   2.749  16.962 -1.2229 -1.0673 -0.8742
 1003TIP3   OH224499   2.117   4.890  10.736  0.4840 -0.5009 -0.0185
 1003TIP3    H124500   2.137   4.961  10.675  1.2812  0.2213  1.0757
 1003TIP3    H224501   2.101   4.814  10.680  0.7519  0.2659 -1.1451
 1004TIP3   OH224502   4.951   2.810   3.178  0.4108 -0.4163 -0.4044
 1004TIP3    H124503   5.047   2.808   3.180  0.3755 -2.8649  0.4556
 1004TIP3    H224504   4.925   2.731   3.224 -2.0675  1.1169  0.9162
 1005TIP3   OH224505   0.537   2.907  11.374  0.0596 -0.2936 -0.3410
 1005TIP3    H124506   0.482   2.853  11.317 -0.6510 -1.7507  1.6704
 1005TIP3    H224507   0.605   2.847  11.404 -1.1078 -0.2657  2.4480
 1006TIP3   OH224508   3.096   5.378   5.166  0.2392 -0.6759 -0.5420
 1006TIP3    H124509   3.024   5.442   5.162 -0.9234 -1.8621  0.7830
 1006TIP3    H224510   3.142   5.388   5.083  1.0159  2.9782  0.2333
 1007TIP3   OH224511   6.679   5.687  16.250 -0.2333  0.6222  0.1186
 1007TIP3    H124512   6.750   5.727  16.300  0.9706 -1.0454 -0.1929
 1007TIP3    H224513   6.688   5.724  16.162  0.2751  0.3797  0.0694
 1008TIP3   OH224514   2.737   5.323  12.768 -1.0442 -0.0536 -0.4556
 1008TIP3    H124515   2.664   5.346  12.826 -2.0629  0.3570 -1.8800
 1008TIP3    H224516   2.792   5.266  12.821 -0.2765  2.8442  2.0232
 1009TIP3   OH224517   4.088   5.715   3.890  0.2156  0.0336 -0.0253
 1009TIP3    H124518   4.060   5.634   3.933  1.5446 -1.1083 -1.2316
 1009TIP3    H224519   4.157   5.749   3.947  0.7270 -0.5265 -0.2952
 1010TIP3   OH224520   6.357   0.518   0.058 -0.4760  0.1270  0.2946
 1010TIP3    H124521   6.357   0.436   0.008  0.1769  0.0447  0.4253
 1010TIP3    H224522   6.330   0.585  -0.006  0.1825 -0.0029 -0.1270
 1011TIP3   OH224523   3.830   2.347  16.665 -0.4591 -0.1359  0.2850
 1011TIP3    H124524   3.756   2.406  16.683  0.2226 -0.0104  2.8602
 1011TIP3    H224525   3.839   2.295  16.745  2.9524  0.6137  0.4574
 1012TIP3   OH224526   2.743   6.451   5.278  0.2199  0.0815  0.1824
 1012TIP3    H124527   2.714   6.470   5.189  1.7492 -0.0336 -0.3544
 1012TIP3    H224528   2.757   6.537   5.318  0.5029  0.1302 -0.0188
 1013TIP3   OH224529   0.122   0.624   6.617  0.3090  0.0711 -0.0654
 1013TIP3    H124530   0.216   0.641   6.615  0.5726 -1.1968  1.0464
 1013TIP3    H224531   0.115   0.529   6.627 -1.0588  0.3600  1.9848
 1014TIP3   OH224532   2.796   5.550  15.717 -0.0212  0.1099 -0.1143
 1014TIP3    H124533   2.722   5.513  15.669  1.5220 -1.6253 -1.2456
 1014TIP3    H224534   2.811   5.488  15.789 -0.7309  1.3639  1.1427
 1015TIP3   OH224535   4.555   2.393   1.510 -0.0795  0.4116 -0.3609
 1015TIP3    H124536   4.560   2.474   1.459 -1.1924  1.0896  0.5854
 1015TIP3    H224537   4.645   2.378   1.540  0.0059  1.6700  0.0223
 1016TIP3   OH224538   5.607   0.390   3.630 -0.1295  0.4935 -0.8581
 1016TIP3    H124539   5.586   0.413   3.720 -0.1120 -3.7400  0.3254
 1016TIP3    H224540   5.523   0.365   3.591  0.2290  0.0104 -1.3297
 1017TIP3   OH224541   6.147   4.441  16.099  0.4897 -0.3126 -0.2843
 1017TIP3    H124542   6.067   4.397  16.070 -0.0740 -0.0064  0.7897
 1017TIP3    H224543   6.118   4.524  16.136  1.1292 -0.9589  1.7098
 1018TIP3   OH224544   4.913   3.624  11.971 -1.0805  0.4748 -0.6208
 1018TIP3    H124545   4.819   3.644  11.975 -0.7479  2.1777 -1.3109
 1018TIP3    H224546   4.918   3.544  11.919 -2.1081  0.7077 -1.0919
 1019TIP3   OH224547   6.499   1.123  11.670 -0.4222  0.6834  0.2613
 1019TIP3    H124548   6.500   1.184  11.597 -1.3447  1.4030  0.8440
 1019TIP3    H224549   6.415   1.138  11.714 -0.2877 -0.3912  0.9209
 1020TIP3   OH224550   3.799   4.853  13.380  0.0940  0.1090  0.0171
 1020TIP3    H124551   3.843   4.768  13.371 -0.2686  0.1863 -2.6494
 1020TIP3    H224552   3.864   4.917  13.352 -0.5378  0.5048 -0.5458
 1021TIP3   OH224553   3.026   5.278   2.034  0.0449  1.0306 -0.0536
 1021TIP3    H124554   2.994   5.323   2.112 -1.5393 -1.3730  0.7525
 1021TIP3    H224555   3.090   5.215   2.067  0.3739  0.9365 -0.8602
 1022TIP3   OH224556   2.965   2.887   4.536  0.1539 -0.0140 -0.4393
 1022TIP3    H124557   3.024   2.943   4.485  0.0229  0.1215 -0.4414
 1022TIP3    H224558   2.943   2.938   4.613  0.1987 -0.1450 -0.3390
 1023TIP3   OH224559   4.586   1.991   0.051  0.6606 -0.5965  0.1275
 1023TIP3    H124560   4.535   2.059   0.008  1.6736 -0.5750 -1.0916
 1023TIP3    H224561   4.568   2.002   0.145 -1.0536 -0.2118 -0.2427
 1024TIP3   OH224562   5.144   4.655   6.107 -0.4704  0.0343 -0.0197
 1024TIP3    H124563   5.128   4.571   6.065  0.6413 -0.0301 -0.3261
 1024TIP3    H224564   5.238   4.657   6.121 -0.5890  0.8965  0.6961
 1025TIP3   OH224565   4.656   3.243   4.304 -0.0787 -0.0431 -0.3925
 1025TIP3    H124566   4.616   3.281   4.225  1.6551 -0.2788 -1.4026
 1025TIP3    H224567   4.634   3.150   4.299 -1.3093  0.2025  0.2407
 1026TIP3   OH224568   1.656   2.625   2.028 -0.7098 -0.3184 -0.3323
 1026TIP3    H124569   1.659   2.549   2.086  2.0549  0.1526  0.1990
 1026TIP3    H224570   1.744   2.632   1.992 -0.6529  3.1190  0.2497
 1027TIP3   OH224571   2.458   1.881   3.647  0.0588 -0.2682 -0.5096
 1027TIP3    H124572   2.443   1.921   3.562 -3.4067  1.4626  0.8350
 1027TIP3    H224573   2.464   1.954   3.708  1.9905 -1.5001  0.8349
 1028TIP3   OH224574   0.792   2.782  13.700 -0.1195 -0.2685 -0.1167
 1028TIP3    H124575   0.824   2.868  13.725 -0.2317  0.8185 -3.4970
 1028TIP3    H224576   0.868   2.724  13.710  1.1070  1.0301 -1.6361
 1029TIP3   OH224577   6.178   0.560  14.000  0.4022 -0.4757  0.2044
 1029TIP3    H124578   6.096   0.601  13.973 -0.0664 -1.4838  0.0668
 1029TIP3    H224579   6.151   0.478  14.043  1.2694 -0.2101  1.2948
 1030TIP3   OH224580   6.461   0.883  17.191 -0.3778 -0.3715  0.5946
 1030TIP3    H124581   6.538   0.829  17.178  1.6958  2.3655  1.0367
 1030TIP3    H224582   6.486   0.946  17.258 -3.2409  0.1356  1.2613
 1031TIP3   OH224583   3.909   5.112  12.716  0.9750  0.0332 -0.2790
 1031TIP3    H124584   3.919   5.161  12.634  0.6142 -1.8576 -1.4684
 1031TIP3    H224585   3.822   5.072  12.710  0.7606  0.2315  1.2289
 1032TIP3   OH224586   3.981   4.297   2.234 -0.0146 -0.9640 -0.0298
 1032TIP3    H124587   4.067   4.338   2.219  0.1589 -1.5673 -0.7319
 1032TIP3    H224588   3.991   4.209   2.199 -1.0402 -0.9213 -0.4370
 1033TIP3   OH224589   4.153   3.506   0.718  0.1453 -0.1146 -0.0931
 1033TIP3    H124590   4.160   3.578   0.656  0.2853  0.3620  0.4709
 1033TIP3    H224591   4.086   3.449   0.681 -0.9549  1.0053  0.1404
 1034TIP3   OH224592   4.727   4.665  16.464 -0.3626 -0.3304 -0.1284
 1034TIP3    H124593   4.698   4.750  16.498 -2.6532 -0.1814 -2.3232
 1034TIP3    H224594   4.817   4.681  16.435 -0.5758  1.2029 -0.0162
 1035TIP3   OH224595   2.781   5.578   2.960  0.0770  0.3276  0.3290
 1035TIP3    H124596   2.808   5.605   2.873 -0.8865 -0.2376 -0.1534
 1035TIP3    H224597   2.692   5.610   2.969  0.1916  0.4385  1.1356
 1036TIP3   OH224598   3.807   2.714   3.119 -0.0960  0.2893  0.2025
 1036TIP3    H124599   3.756   2.791   3.142  0.6463  0.6349  0.6974
 1036TIP3    H224600   3.763   2.642   3.164 -0.5779  0.4666  0.0275
 1037TIP3   OH224601   5.874   3.295   6.260  0.0137  0.2066  0.5029
 1037TIP3    H124602   5.848   3.216   6.214 -0.1992 -1.4760  3.3864
 1037TIP3    H224603   5.793   3.331   6.294  0.3299  0.6085  0.8359
 1038TIP3   OH224604   0.318   2.535  15.915  0.1647 -0.3940  0.4269
 1038TIP3    H124605   0.405   2.522  15.953  1.0407 -1.0136 -1.6809
 1038TIP3    H224606   0.319   2.627  15.886 -0.4271  0.0215  1.7240
 1039TIP3   OH224607   5.079   0.524   4.352 -0.3713 -0.2327 -0.1542
 1039TIP3    H124608   5.042   0.495   4.435 -1.3816  0.7597 -0.2524
 1039TIP3    H224609   5.146   0.589   4.377 -0.8321  0.2312 -0.1266
 1040TIP3   OH224610   4.754   2.029  14.133  0.1942 -0.5436 -0.0612
 1040TIP3    H124611   4.713   1.989  14.057 -0.5770  0.5279 -0.2282
 1040TIP3    H224612   4.697   2.103  14.154  0.7886 -0.4136  1.1230
 1041TIP3   OH224613   3.166   1.159  16.776 -0.3793  0.2546  0.1537
 1041TIP3    H124614   3.253   1.147  16.813 -0.3773  1.3768  0.5218
 1041TIP3    H224615   3.165   1.249  16.744 -2.1508  1.0240  2.2431
 1042TIP3   OH224616   3.734   5.825  10.858 -0.2038  0.9429  0.2184
 1042TIP3    H124617   3.725   5.920  10.851 -1.2932  0.9179  1.0414
 1042TIP3    H224618   3.751   5.809  10.951 -1.0363  0.2686  0.2664
 1043TIP3   OH224619   2.514   3.015   2.647  0.0850 -0.2248  0.9063
 1043TIP3    H124620   2.483   2.924   2.648 -0.1951 -0.1483 -0.0909
 1043TIP3    H224621   2.476   3.054   2.725  0.3773 -1.0211  1.4536
 1044TIP3   OH224622   1.502   0.308  13.987 -0.1577  0.2465 -0.6470
 1044TIP3    H124623   1.514   0.337  14.077  0.5567  0.8433 -0.9270
 1044TIP3    H224624   1.580   0.257  13.967 -0.7330 -0.6558 -0.6403
 1045TIP3   OH224625   4.257   6.512  13.060  0.1418 -0.1420  0.5569
 1045TIP3    H124626   4.247   6.485  13.152 -0.0084  0.2671  0.6624
 1045TIP3    H224627   4.287   6.603  13.065  0.1274 -0.1184  0.1991
 1046TIP3   OH224628   4.277   4.818  13.041 -0.3647  0.2877 -0.1087
 1046TIP3    H124629   4.277   4.911  13.020  0.9347  0.4506  0.5633
 1046TIP3    H224630   4.339   4.809  13.113 -1.6884 -0.8640  0.9143
 1047TIP3   OH224631   3.169   3.799  15.938  0.2793 -0.1393 -0.1948
 1047TIP3    H124632   3.145   3.890  15.923 -0.3319 -0.0058  1.4185
 1047TIP3    H224633   3.261   3.793  15.914  0.9042  1.4224  1.6644
 1048TIP3   OH224634   4.417   3.777  12.428  0.4682 -0.5234 -0.2788
 1048TIP3    H124635   4.378   3.690  12.443 -1.4906  0.1618 -1.1652
 1048TIP3    H224636   4.470   3.793  12.506  0.6321 -2.4040  0.0146
 1049TIP3   OH224637   5.970   6.619  13.759 -0.4865 -0.1199 -0.2973
 1049TIP3    H124638   5.917   6.671  13.698  0.6757  2.3576  0.7264
 1049TIP3    H224639   6.032   6.572  13.703 -0.2976  1.1039 -1.1521
 1050TIP3   OH224640   5.262   6.740   0.671 -0.2420 -0.2129 -0.0759
 1050TIP3    H124641   5.204   6.801   0.717 -0.2460 -0.6903  0.5541
 1050TIP3    H224642   5.317   6.797   0.616 -0.9675  0.2746 -0.3037
 1051TIP3   OH224643   3.665   4.775   1.245  0.2172 -0.1212 -0.0796
 1051TIP3    H124644   3.724   4.701   1.259  0.2625  0.1586  1.3229
 1051TIP3    H224645   3.675   4.797   1.153 -1.4881 -3.2888 -1.0885
 1052TIP3   OH224646   4.056   6.783   4.962 -0.2081 -0.3025  0.0156
 1052TIP3    H124647   3.974   6.831   4.951  0.0666 -0.2504 -2.2154
 1052TIP3    H224648   4.069   6.739   4.877  2.4739  0.3900  0.0151
 1053TIP3   OH224649   2.936   4.125   3.909  0.0590  0.1960  0.5503
 1053TIP3    H124650   2.888   4.060   3.962  0.4205  0.4559  1.1958
 1053TIP3    H224651   3.015   4.143   3.959 -0.7056  2.2099  1.0732
 1054TIP3   OH224652   6.243   4.296  12.965  0.4183  0.1707 -0.3124
 1054TIP3    H124653   6.265   4.223  13.023 -1.4156  0.0173  0.2395
 1054TIP3    H224654   6.327   4.325  12.929  1.3300 -1.2172  0.6447
 1055TIP3   OH224655   6.508   1.382  15.903  0.1744 -0.3838  0.0193
 1055TIP3    H124656   6.487   1.387  15.809 -0.8540 -1.2755  0.1924
 1055TIP3    H224657   6.501   1.289  15.924  1.0839 -0.2760  0.8419
 1056TIP3   OH224658   6.309   1.187   2.674 -0.5096 -0.2801  0.3175
 1056TIP3    H124659   6.256   1.267   2.674  0.8304  0.6341  0.4427
 1056TIP3    H224660   6.336   1.177   2.583  1.1066  0.6413  0.6794
 1057TIP3   OH224661   1.668   2.192  14.000  0.7751 -0.0824  0.1040
 1057TIP3    H124662   1.628   2.125  14.055  1.0435 -0.3667 -0.0484
 1057TIP3    H224663   1.673   2.269  14.056 -1.7984  0.5574 -0.4573
 1058TIP3   OH224664   2.211   4.396  16.789 -0.0588  0.6264  0.5639
 1058TIP3    H124665   2.278   4.405  16.857  0.7367  2.2373 -0.4029
 1058TIP3    H224666   2.133   4.439  16.825 -0.0291  0.3395  0.9691
 1059TIP3   OH224667   4.084   6.546  16.916  0.7463 -0.1197 -0.4623
 1059TIP3    H124668   3.992   6.539  16.939  0.9918 -1.2763  0.1639
 1059TIP3    H224669   4.107   6.636  16.939 -0.2432  0.2128 -0.7284
 1060TIP3   OH224670   5.600   1.371   2.096 -0.1162 -0.3250  1.0454
 1060TIP3    H124671   5.647   1.315   2.035  0.3158 -0.5992  1.6254
 1060TIP3    H224672   5.612   1.460   2.062 -0.7819 -0.5711  0.1353
 1061TIP3   OH224673   3.950   4.662  11.718  0.0282  0.0415  0.2267
 1061TIP3    H124674   3.932   4.734  11.658  0.1170 -0.1894 -0.0725
 1061TIP3    H224675   3.866   4.643  11.760  0.3903  1.6719  1.7882
 1062TIP3   OH224676   6.731   6.719  16.464  0.3107 -0.7297 -0.4338
 1062TIP3    H124677   6.684   6.661  16.404  0.1503 -2.2558  1.1358
 1062TIP3    H224678   6.776   6.782  16.407  0.5964 -2.4875 -2.1849
 1063TIP3   OH224679   5.319   3.396   5.160  0.4271  0.1077  0.0238
 1063TIP3    H124680   5.369   3.342   5.222 -1.8526 -4.3771 -1.8313
 1063TIP3    H224681   5.228   3.388   5.189  0.1111  3.6813  0.1413
 1064TIP3   OH224682   2.262   0.311   3.215 -0.7809  0.4500 -0.7724
 1064TIP3    H124683   2.357   0.310   3.220 -0.7310  1.0588 -1.5722
 1064TIP3    H224684   2.233   0.304   3.306  0.0208 -0.1581 -0.5635
 1065TIP3   OH224685   1.303   1.853  11.722 -0.3564 -0.3765  0.7783
 1065TIP3    H124686   1.375   1.790  11.732 -1.2869 -1.5388  0.3326
 1065TIP3    H224687   1.299   1.898  11.806  2.0080  0.9209  0.2121
 1066TIP3   OH224688   0.564   0.335   6.088  0.2061  0.0768  0.3220
 1066TIP3    H124689   0.641   0.338   6.032 -0.3039 -0.5495 -0.4231
 1066TIP3    H224690   0.507   0.270   6.047 -1.0803  1.1528  0.3888
 1067TIP3   OH224691   1.984   6.730   4.384 -0.0813  0.1297 -0.3643
 1067TIP3    H124692   1.899   6.769   4.403  1.0694  2.5194  0.1161
 1067TIP3    H224693   1.986   6.722   4.289 -1.1273 -0.6637 -0.3317
 1068TIP3   OH224694   6.684   5.943   3.326 -0.0727 -0.6259  0.3536
 1068TIP3    H124695   6.769   5.985   3.317 -1.6894  2.5634 -0.9968
 1068TIP3    H224696   6.671   5.898   3.242 -0.2833  0.0626  0.0087
 1069TIP3   OH224697   3.071   3.436   2.999  0.2487 -0.0594 -0.2965
 1069TIP3    H124698   3.166   3.447   2.999  0.2509 -0.0789 -0.2724
 1069TIP3    H224699   3.046   3.445   2.907  0.1533  0.9526 -0.1756
 1070TIP3   OH224700   2.129   5.661   1.006 -0.3941  0.2662 -0.3968
 1070TIP3    H124701   2.199   5.696   0.950  0.4737 -0.5045  0.1746
 1070TIP3    H224702   2.065   5.626   0.945  1.0221 -1.4890 -0.9497
 1071TIP3   OH224703   0.731   3.029   0.433  0.5256 -0.4151 -0.4107
 1071TIP3    H124704   0.730   3.107   0.377  2.0086  0.6750  1.0267
 1071TIP3    H224705   0.809   2.981   0.406  0.4068 -0.6585 -0.3180
 1072TIP3   OH224706   6.578   1.570  14.854  0.4581  0.6703  0.4130
 1072TIP3    H124707   6.580   1.598  14.762  0.5758  1.1192  0.5506
 1072TIP3    H224708   6.566   1.651  14.903 -1.3310  0.2508  0.7016
 1073TIP3   OH224709   1.592   6.380   0.133 -0.1128 -0.7326 -0.1880
 1073TIP3    H124710   1.515   6.401   0.186 -1.0765  0.6161 -2.0221
 1073TIP3    H224711   1.563   6.309   0.076  0.4748 -1.2275  0.1280
 1074TIP3   OH224712   0.961   1.711   4.008  0.1214 -0.4004  0.5991
 1074TIP3    H124713   0.977   1.806   4.003  0.1153 -0.4461 -0.3773
 1074TIP3    H224714   0.876   1.699   3.966 -0.1324 -0.7760  1.2228
 1075TIP3   OH224715   6.510   4.101  15.806  0.5911 -0.0818 -0.1885
 1075TIP3    H124716   6.467   4.017  15.786  0.0191 -0.1065  1.1007
 1075TIP3    H224717   6.600   4.077  15.827  0.5557 -0.3111 -0.2864
 1076TIP3   OH224718   6.658   0.572   3.959  0.0346 -0.3147 -0.0327
 1076TIP3    H124719   6.635   0.492   4.006  0.1778 -1.0440 -1.2140
 1076TIP3    H224720   6.707   0.543   3.883  0.9706  0.9625  0.0580
 1077TIP3   OH224721   4.334   6.410  12.669  0.2101 -0.1416  0.2834
 1077TIP3    H124722   4.428   6.426  12.654 -0.5933  1.6889 -3.5232
 1077TIP3    H224723   4.319   6.322  12.635  0.5104 -0.3552  0.7001
 1078TIP3   OH224724   5.490   2.727  14.336 -0.5051  0.5415 -0.0808
 1078TIP3    H124725   5.527   2.699  14.252  0.4334 -1.9913  1.1124
 1078TIP3    H224726   5.558   2.780  14.377 -1.1035  2.0819 -1.0451
 1079TIP3   OH224727   2.736   6.710  15.619  0.4822 -0.4701 -0.5506
 1079TIP3    H124728   2.830   6.689  15.626  0.6597  0.2983 -0.6151
 1079TIP3    H224729   2.733   6.805  15.614 -0.4693 -0.3456  1.9763
 1080TIP3   OH224730   3.694   0.614   2.006 -0.0245 -0.5187  0.0179
 1080TIP3    H124731   3.708   0.654   1.921  0.8627 -0.2368  0.2960
 1080TIP3    H224732   3.718   0.682   2.069 -0.5776 -0.7551  0.4946
 1081TIP3   OH224733   4.414   4.408  11.523  0.2130  0.2318  0.0408
 1081TIP3    H124734   4.444   4.498  11.533  0.9457  0.1370 -1.3294
 1081TIP3    H224735   4.482   4.365  11.472 -0.9061 -0.6925 -0.6949
 1082TIP3   OH224736   1.444   2.274   1.381 -0.8934 -1.2758  0.0735
 1082TIP3    H124737   1.474   2.252   1.293  0.3793  2.2243 -0.4741
 1082TIP3    H224738   1.354   2.304   1.368  0.0974  1.6387 -0.5142
 1083TIP3   OH224739   0.383   6.635   5.725 -0.0363  0.0787  0.0528
 1083TIP3    H124740   0.312   6.597   5.776  1.6647 -2.2561  0.7500
 1083TIP3    H224741   0.384   6.727   5.751 -1.3547 -0.3316  1.6800
 1084TIP3   OH224742   2.224   2.556   4.432  0.4095 -0.1674  0.2228
 1084TIP3    H124743   2.130   2.541   4.442  0.8547 -2.7166  0.9064
 1084TIP3    H224744   2.257   2.554   4.522  1.3587 -1.0118 -0.1476
 1085TIP3   OH224745   1.745   1.258  11.321  0.6492 -0.3399 -0.0147
 1085TIP3    H124746   1.692   1.303  11.256 -4.2279 -3.3813  1.6087
 1085TIP3    H224747   1.746   1.317  11.396 -2.1967 -1.0238  0.6218
 1086TIP3   OH224748   3.869   2.827   4.952  0.5247  0.8249  0.1824
 1086TIP3    H124749   3.903   2.742   4.925 -0.5450  0.8195 -1.1974
 1086TIP3    H224750   3.803   2.806   5.019  3.2600  0.8462  2.9710
 1087TIP3   OH224751   5.183   0.272   3.913 -0.1176 -0.0428  0.1025
 1087TIP3    H124752   5.200   0.249   4.004  1.0365  1.1951  0.2118
 1087TIP3    H224753   5.109   0.332   3.916  0.5963  0.8328  0.3236
 1088TIP3   OH224754   2.758   0.983   4.197 -0.2188 -0.1526  0.0646
 1088TIP3    H124755   2.781   0.938   4.116 -0.7340  1.5276 -1.0312
 1088TIP3    H224756   2.662   0.986   4.197 -0.2184 -0.0485  0.6727
 1089TIP3   OH224757   3.184   0.797   3.754 -0.2687 -0.4860  0.6693
 1089TIP3    H124758   3.227   0.726   3.802 -0.7075 -1.2423 -0.0454
 1089TIP3    H224759   3.237   0.808   3.675 -1.5334 -1.5981 -0.3376
 1090TIP3   OH224760   6.487   0.894   2.332 -0.0989  0.3762  0.1454
 1090TIP3    H124761   6.565   0.941   2.362  1.4062 -1.2117 -1.1804
 1090TIP3    H224762   6.514   0.802   2.328 -1.3483  0.0660 -2.3911
 1091TIP3   OH224763   0.997   4.593  13.833 -0.8166 -0.5381 -0.1110
 1091TIP3    H124764   0.915   4.558  13.868  0.1294 -1.7104  1.0020
 1091TIP3    H224765   1.018   4.667  13.889 -0.6476 -0.8044  0.1804
 1092TIP3   OH224766   0.585   5.309  14.934 -0.2762  0.0501  0.0650
 1092TIP3    H124767   0.648   5.305  14.862  1.2600  0.1971  1.3733
 1092TIP3    H224768   0.501   5.286  14.894  0.3545  1.1872 -1.9927
 1093TIP3   OH224769   3.628   1.808   2.895  0.2989 -0.0570 -0.3031
 1093TIP3    H124770   3.660   1.897   2.909 -0.0580  0.2780 -1.5943
 1093TIP3    H224771   3.561   1.816   2.827  2.0114 -1.6522 -2.2237
 1094TIP3   OH224772   5.364   3.410   0.287  0.1251 -0.7595 -0.3566
 1094TIP3    H124773   5.343   3.338   0.228  0.6990 -1.3846  0.1974
 1094TIP3    H224774   5.279   3.439   0.321 -0.0403 -1.7494  0.0847
 1095TIP3   OH224775   3.534   0.762  11.075  0.5231 -0.1073 -0.1624
 1095TIP3    H124776   3.548   0.783  10.982 -0.4464  1.7358  0.0850
 1095TIP3    H224777   3.564   0.672  11.084  1.2373 -0.0855 -2.1359
 1096TIP3   OH224778   0.729   2.711  12.884  0.0120  0.5117 -0.1358
 1096TIP3    H124779   0.647   2.701  12.837  0.6222 -0.8891 -0.9462
 1096TIP3    H224780   0.706   2.707  12.976 -0.5286 -2.5524 -0.3740
 1097TIP3   OH224781   5.616   2.913   5.086 -0.4406  0.2093 -0.1432
 1097TIP3    H124782   5.663   2.931   5.004 -0.7042 -0.3646 -0.4211
 1097TIP3    H224783   5.646   2.981   5.146 -1.3006  1.4933 -1.1388
 1098TIP3   OH224784   4.543   3.012   1.681  0.5227 -0.4792 -0.0271
 1098TIP3    H124785   4.636   2.991   1.684  1.0386  1.7070 -0.2214
 1098TIP3    H224786   4.514   2.977   1.596  1.6702  0.7805 -0.9680
 1099TIP3   OH224787   2.741   4.925   3.278  0.0697 -0.3888  0.0316
 1099TIP3    H124788   2.811   4.933   3.342 -0.1735 -2.6891  0.6465
 1099TIP3    H224789   2.783   4.886   3.201 -0.4895 -1.6397  0.3523
 1100TIP3   OH224790   6.521   2.426   1.262 -0.0261  0.4034 -0.2374
 1100TIP3    H124791   6.556   2.341   1.236 -1.2236  0.0442 -0.7095
 1100TIP3    H224792   6.428   2.409   1.280  0.3182  1.0401  2.3983
 1101TIP3   OH224793   2.186   6.699   0.134 -0.0658 -0.1631 -0.2948
 1101TIP3    H124794   2.102   6.658   0.116 -1.0411  1.9574 -0.7894
 1101TIP3    H224795   2.182   6.721   0.228 -0.7382  1.3607 -0.6653
 1102TIP3   OH224796   3.261   0.937  16.202  0.5904 -0.3699 -0.5486
 1102TIP3    H124797   3.171   0.955  16.229  0.1208 -1.7121 -1.1620
 1102TIP3    H224798   3.312   0.944  16.283  0.1207  1.4962 -0.3972
 1103TIP3   OH224799   2.045   4.807   4.048  0.5373  0.2674  0.0617
 1103TIP3    H124800   1.952   4.807   4.071  0.5532 -0.1260  0.1306
 1103TIP3    H224801   2.048   4.849   3.962  0.6641  3.3425  1.4754
 1104TIP3   OH224802   1.849   1.597  16.824  0.7441  0.4278  0.2762
 1104TIP3    H124803   1.930   1.630  16.862  0.7594 -0.9359  1.4794
 1104TIP3    H224804   1.817   1.669  16.769  2.8031  0.9407 -0.2968
 1105TIP3   OH224805   3.496   1.723   5.620 -0.2660  0.0446 -0.3106
 1105TIP3    H124806   3.568   1.734   5.558 -1.4777 -1.4088 -2.0253
 1105TIP3    H224807   3.441   1.800   5.607  0.4420  0.6593  0.2924
 1106TIP3   OH224808   5.067   2.439  14.374  0.1009 -0.0352 -0.1227
 1106TIP3    H124809   5.156   2.432  14.411 -0.6203 -2.5970  1.2666
 1106TIP3    H224810   5.014   2.470  14.447 -0.3630  0.3293 -0.6139
 1107TIP3   OH224811   2.376   1.332   0.277 -0.0047  0.2215  0.5378
 1107TIP3    H124812   2.447   1.284   0.235  0.1892  0.1169  0.9800
 1107TIP3    H224813   2.365   1.289   0.362 -0.8489 -0.0059  0.3212
 1108TIP3   OH224814   3.849   6.515   4.425  0.3372 -0.3376 -0.1573
 1108TIP3    H124815   3.849   6.450   4.355  3.3373  0.4237 -0.9605
 1108TIP3    H224816   3.773   6.570   4.407 -1.7191 -3.0399  0.0244
 1109TIP3   OH224817   0.608   0.603   4.431  0.1164 -0.5782  0.2976
 1109TIP3    H124818   0.523   0.639   4.406  1.5870  2.4386 -0.5422
 1109TIP3    H224819   0.612   0.614   4.526 -1.5544 -3.3715  0.7511
 1110TIP3   OH224820   6.450   0.827   6.009  0.1985  0.4812 -0.2609
 1110TIP3    H124821   6.438   0.749   6.063 -0.3233  0.7134 -0.0397
 1110TIP3    H224822   6.508   0.883   6.061  0.7414  0.1574 -0.5106
 1111TIP3   OH224823   0.481   5.325   5.076  0.1813  0.0079 -0.2852
 1111TIP3    H124824   0.470   5.404   5.024 -0.2445  0.5496  0.6251
 1111TIP3    H224825   0.559   5.341   5.129  0.6851 -0.5909 -0.8414
 1112TIP3   OH224826   0.180   1.841   1.801  0.4282 -0.2276 -0.6447
 1112TIP3    H124827   0.123   1.865   1.727  0.0154  0.1961 -0.1919
 1112TIP3    H224828   0.241   1.914   1.808 -1.4210  1.1657  1.3343
 1113TIP3   OH224829   2.829   6.527  13.920 -0.0030  0.0617 -0.1256
 1113TIP3    H124830   2.821   6.455  13.857 -2.1909  0.1564  0.0006
 1113TIP3    H224831   2.913   6.567  13.900 -0.0117 -0.8139 -2.0418
 1114TIP3   OH224832   5.938   2.418  14.114 -0.2408  0.4745 -0.2613
 1114TIP3    H124833   5.925   2.389  14.204  1.9534 -0.4609 -0.2278
 1114TIP3    H224834   5.883   2.496  14.106 -1.4564 -0.1659  1.4794
 1115TIP3   OH224835   3.665   1.798  13.516  0.1730 -0.0910  0.1378
 1115TIP3    H124836   3.631   1.767  13.600  2.0830 -1.0369  0.5781
 1115TIP3    H224837   3.632   1.887  13.509  0.5595  0.2516  2.2247
 1116TIP3   OH224838   6.361   2.843   3.704 -0.6971 -0.2825 -0.2176
 1116TIP3    H124839   6.278   2.835   3.656 -0.9527 -0.2625  0.2219
 1116TIP3    H224840   6.336   2.871   3.792 -0.1550  0.6234 -0.3437
 1117TIP3   OH224841   1.197   1.529   6.403  0.0885  0.0714  0.2730
 1117TIP3    H124842   1.216   1.623   6.402 -0.8944  0.2624 -2.2064
 1117TIP3    H224843   1.108   1.522   6.369  0.1203 -1.7566  0.5459
 1118TIP3   OH224844   3.625   4.638  15.463 -0.2352 -0.0336 -0.3993
 1118TIP3    H124845   3.682   4.711  15.438 -0.9388  1.0379  1.0408
 1118TIP3    H224846   3.557   4.635  15.396  0.4352 -0.0961 -1.0810
 1119TIP3   OH224847   5.007   4.375  15.849 -0.1929  0.6533  0.6146
 1119TIP3    H124848   4.938   4.434  15.820 -0.5727 -0.0863  0.0001
 1119TIP3    H224849   4.977   4.288  15.824  0.9582  0.3238  0.3413
 1120TIP3   OH224850   5.668   5.306   0.514  0.2212  0.0626  0.2124
 1120TIP3    H124851   5.667   5.402   0.518  1.7057  0.0492  1.2656
 1120TIP3    H224852   5.629   5.285   0.429 -3.0755  1.4732  1.3383
 1121TIP3   OH224853   4.978   3.502  12.237  0.0713 -0.3248 -0.4840
 1121TIP3    H124854   4.981   3.561  12.312  0.2699 -1.2292  0.2341
 1121TIP3    H224855   4.988   3.559  12.161 -0.4437  0.6371  0.1564
 1122TIP3   OH224856   4.282   2.623   3.050  0.1263 -0.0101  0.1334
 1122TIP3    H124857   4.238   2.549   3.008  0.4993 -0.2406  0.1490
 1122TIP3    H224858   4.226   2.645   3.125 -0.6364  0.5131 -0.5677
 1123TIP3   OH224859   0.125   4.603   3.709 -0.4118  0.3022 -0.1915
 1123TIP3    H124860   0.182   4.532   3.738  1.2014  2.2606  1.5217
 1123TIP3    H224861   0.127   4.597   3.613  0.9884 -0.9610 -0.1007
 1124TIP3   OH224862   1.770   0.053   2.368 -0.1399  0.0067 -0.0198
 1124TIP3    H124863   1.764  -0.006   2.293 -0.0788  0.1953 -0.1755
 1124TIP3    H224864   1.837   0.015   2.425 -0.0765 -0.0555 -0.1361
 1125TIP3   OH224865   1.284   1.669   4.519 -0.3406 -0.1236  0.7359
 1125TIP3    H124866   1.354   1.616   4.558 -0.6015 -1.4550 -0.5777
 1125TIP3    H224867   1.302   1.668   4.425 -1.5103  0.4329  0.4958
 1126TIP3   OH224868   5.188   4.714  13.583  0.1744  0.1942  0.3220
 1126TIP3    H124869   5.169   4.676  13.669  0.2227 -2.8163 -0.9385
 1126TIP3    H224870   5.271   4.676  13.558 -0.2567  0.3912 -1.4490
 1127TIP3   OH224871   5.615   4.828  15.427  0.2993  0.0481  0.2925
 1127TIP3    H124872   5.664   4.878  15.362  0.7807  0.8669  1.2695
 1127TIP3    H224873   5.657   4.849  15.510 -0.8833 -0.2754  0.9887
 1128TIP3   OH224874   5.177   0.600   0.046  0.3134  0.3918  0.6709
 1128TIP3    H124875   5.094   0.640   0.073 -1.3325 -2.2927 -0.1413
 1128TIP3    H224876   5.158   0.506   0.044  2.0396  0.0235 -3.9550
 1129TIP3   OH224877   1.148   3.093  11.079  0.3780  0.1754 -0.0951
 1129TIP3    H124878   1.053   3.096  11.085  0.3070 -0.8203 -0.4529
 1129TIP3    H224879   1.178   3.174  11.119 -0.5603 -0.1484  1.2747
 1130TIP3   OH224880   0.102   5.076  13.415 -0.3790 -0.1871  0.0095
 1130TIP3    H124881   0.090   5.163  13.452 -1.2095 -0.3877  0.2187
 1130TIP3    H224882   0.196   5.071  13.396 -0.2217  0.5191  0.5712
 1131TIP3   OH224883   4.179   6.258   1.895  0.1291  0.3337  0.5157
 1131TIP3    H124884   4.186   6.314   1.818  0.7449  0.6312  0.7856
 1131TIP3    H224885   4.258   6.277   1.945 -0.3606  0.2691  1.3099
 1132TIP3   OH224886   5.634   4.626   5.156 -0.5473  0.6580  0.6770
 1132TIP3    H124887   5.630   4.644   5.062 -1.3438  0.8164  0.7434
 1132TIP3    H224888   5.728   4.619   5.174 -0.4246 -1.2791 -0.4974
 1133TIP3   OH224889   5.312   1.045  14.413 -0.1460 -0.3302 -0.3524
 1133TIP3    H124890   5.401   1.055  14.379 -0.5781  0.9129 -1.1460
 1133TIP3    H224891   5.321   1.060  14.507  0.4638 -0.0767 -0.4438
 1134TIP3   OH224892   1.696   2.198   5.020  0.1488 -0.1657 -0.6044
 1134TIP3    H124893   1.706   2.190   4.926  2.1911 -1.5601 -0.3042
 1134TIP3    H224894   1.743   2.278   5.043 -1.0681  0.6344 -0.8527
 1135TIP3   OH224895   0.106   5.295   1.033 -0.2410 -0.1144  0.1203
 1135TIP3    H124896   0.149   5.311   0.949 -1.0898  0.2819 -0.2448
 1135TIP3    H224897   0.178   5.286   1.095  0.3696  1.8382 -0.2605
 1136TIP3   OH224898   4.125   0.017  16.975  0.4074 -0.5384  0.2474
 1136TIP3    H124899   4.039   0.060  16.974  0.6427 -0.0836 -2.1624
 1136TIP3    H224900   4.154   0.025  17.066 -1.2108  1.0987  0.6557
 1137TIP3   OH224901   5.102   1.083  13.333  0.5106 -0.1437 -0.0902
 1137TIP3    H124902   5.070   1.048  13.250  0.7097 -2.2253  0.6731
 1137TIP3    H224903   5.191   1.113  13.314  0.9792 -1.6533 -0.4024
 1138TIP3   OH224904   5.960   0.534  12.129 -0.3605 -0.1096 -0.0640
 1138TIP3    H124905   5.919   0.563  12.047  0.4116  0.6272 -0.2024
 1138TIP3    H224906   6.025   0.602  12.148  0.4470 -1.0031  0.4093
 1139TIP3   OH224907   6.007   4.352   5.339 -0.1727  0.0717 -0.4984
 1139TIP3    H124908   6.103   4.349   5.341 -0.1917  0.1589  1.1187
 1139TIP3    H224909   5.980   4.303   5.416 -1.3668  2.2277  0.5113
 1140TIP3   OH224910   1.980   3.745  14.879 -0.2061  0.0698  0.1865
 1140TIP3    H124911   2.068   3.734  14.844 -0.4275 -0.2752 -0.2722
 1140TIP3    H224912   1.922   3.725  14.805 -0.6561  1.5094  0.1346
 1141TIP3   OH224913   5.256   6.025   0.067 -0.3470 -0.7391 -0.5396
 1141TIP3    H124914   5.185   5.965   0.044 -0.5982 -0.6525  0.0021
 1141TIP3    H224915   5.306   6.034  -0.014 -0.3755 -1.5818 -0.6642
 1142TIP3   OH224916   3.557   6.426   3.196 -0.4391  0.1544  0.1833
 1142TIP3    H124917   3.626   6.405   3.258  0.6740  1.8406 -0.4663
 1142TIP3    H224918   3.505   6.493   3.241 -0.6546  0.1210 -0.0184
 1143TIP3   OH224919   5.912   1.207  16.039 -0.8566 -0.0247  0.0918
 1143TIP3    H124920   5.909   1.168  16.127  0.2241 -0.7926 -0.1971
 1143TIP3    H224921   5.867   1.143  15.983 -1.4007  0.3891  0.0495
 1144TIP3   OH224922   0.086   0.010  13.258 -0.3786 -0.1867 -0.3654
 1144TIP3    H124923   0.008   0.038  13.305 -0.0048  0.4500 -0.1196
 1144TIP3    H224924   0.159   0.042  13.310  0.0837 -2.5918  0.5058
 1145TIP3   OH224925   6.142   3.290  14.482  0.6020 -0.2138  0.3040
 1145TIP3    H124926   6.190   3.212  14.454  1.3097 -0.1457  1.3123
 1145TIP3    H224927   6.107   3.327  14.401  2.1535 -0.3352 -0.4382
 1146TIP3   OH224928   5.996   4.706  13.374  0.0430 -0.7503 -0.0643
 1146TIP3    H124929   6.045   4.744  13.448  0.7059 -2.8112  0.6023
 1146TIP3    H224930   6.032   4.750  13.297  1.8327 -1.0578  0.5617
 1147TIP3   OH224931   6.146   0.376   1.894 -0.1133 -0.3769 -0.8806
 1147TIP3    H124932   6.191   0.300   1.857  0.2545  0.6619 -2.6279
 1147TIP3    H224933   6.169   0.374   1.987  0.9511 -1.6552 -1.1475
 1148TIP3   OH224934   4.886   5.174   5.526  0.2665  0.4352 -0.4808
 1148TIP3    H124935   4.973   5.174   5.567  0.4192 -0.0839 -0.7999
 1148TIP3    H224936   4.836   5.237   5.578  0.6418  0.2512  0.1195
 1149TIP3   OH224937   0.098   3.748  16.747  0.0548  0.2964 -0.4983
 1149TIP3    H124938   0.110   3.769  16.839  1.7158 -1.1394 -0.3609
 1149TIP3    H224939   0.003   3.741  16.735 -0.1870  1.0159  0.9564
 1150TIP3   OH224940   2.683   0.492   2.151  0.4375 -0.2143 -0.6661
 1150TIP3    H124941   2.629   0.568   2.127  1.4476  0.8708  0.4017
 1150TIP3    H224942   2.754   0.493   2.086  1.0847  0.4527  0.0449
 1151TIP3   OH224943   0.717   6.184  14.422  0.2464  0.1128 -0.1297
 1151TIP3    H124944   0.723   6.239  14.343 -0.3467 -0.2012 -0.3949
 1151TIP3    H224945   0.689   6.244  14.490  3.2003  0.9496  0.4392
 1152TIP3   OH224946   6.668   6.056   0.231  0.5605  0.7022  0.1572
 1152TIP3    H124947   6.651   5.962   0.226 -2.6921  1.3188 -1.3675
 1152TIP3    H224948   6.736   6.064   0.299 -0.4284 -2.5624  1.6375
 1153TIP3   OH224949   5.295   6.241   5.664 -0.3410  0.5507  0.5347
 1153TIP3    H124950   5.241   6.221   5.741  1.1513 -1.1658  1.1840
 1153TIP3    H224951   5.380   6.266   5.700  0.0857  0.6566 -0.5240
 1154TIP3   OH224952   6.583   2.586  11.936 -0.1860  0.5117  0.2879
 1154TIP3    H124953   6.604   2.640  12.013 -0.8435 -0.9729  1.5439
 1154TIP3    H224954   6.542   2.647  11.875 -0.1720  1.6160  1.3530
 1155TIP3   OH224955   0.972   5.234  14.935  1.1451 -0.5396  0.4398
 1155TIP3    H124956   1.045   5.290  14.960  1.4624 -0.6039 -0.3176
 1155TIP3    H224957   0.977   5.159  14.993 -0.2276  0.9346  2.5497
 1156TIP3   OH224958   0.250   6.128  13.258  0.1862  0.4535 -0.2454
 1156TIP3    H124959   0.243   6.219  13.229  2.0333  0.2581 -1.4410
 1156TIP3    H224960   0.222   6.128  13.349  2.1913  2.6300  0.4175
 1157TIP3   OH224961   2.229   2.172  11.403  0.6301  0.1075 -0.1465
 1157TIP3    H124962   2.280   2.219  11.338 -1.0189  1.1283 -0.7222
 1157TIP3    H224963   2.191   2.098  11.355  2.3503 -1.2592  0.5159
 1158TIP3   OH224964   0.911   6.258   5.546 -0.1458 -0.2013 -0.4567
 1158TIP3    H124965   0.874   6.347   5.551 -0.4940 -0.3261 -0.7652
 1158TIP3    H224966   1.003   6.272   5.522 -0.1217  0.0915 -0.1901
 1159TIP3   OH224967   1.239   5.592   3.037  0.4008 -0.4030 -0.2424
 1159TIP3    H124968   1.160   5.606   2.983 -1.0000 -1.6293  1.4255
 1159TIP3    H224969   1.295   5.536   2.984 -0.1802 -0.1286 -1.1530
 1160TIP3   OH224970   2.976   3.812   0.643  0.3582 -0.2693  0.1975
 1160TIP3    H124971   3.065   3.847   0.645  0.5222 -0.7206  1.5458
 1160TIP3    H224972   2.988   3.717   0.642 -0.1122 -0.3402  0.9236
 1161TIP3   OH224973   1.806   3.264   3.801  0.4323 -0.4356 -0.1796
 1161TIP3    H124974   1.750   3.188   3.789  1.0338 -0.6073 -2.2609
 1161TIP3    H224975   1.892   3.236   3.768  0.6699  1.1091 -0.9450
 1162TIP3   OH224976   2.163   6.195   0.096 -0.7187  0.3321 -0.3364
 1162TIP3    H124977   2.142   6.136   0.024 -1.3525 -0.9218  0.8489
 1162TIP3    H224978   2.208   6.268   0.055 -0.2473 -0.8058 -1.8846
 1163TIP3   OH224979   0.155   0.151   4.976  0.2033  0.1789 -0.1777
 1163TIP3    H124980   0.165   0.210   5.051  1.6663  1.1316 -1.1099
 1163TIP3    H224981   0.067   0.170   4.944  0.6866  1.9521 -0.5317
 1164TIP3   OH224982   4.444   3.055  14.077  0.2634 -0.4331  0.1158
 1164TIP3    H124983   4.412   3.144  14.060 -1.2062 -0.7897  0.9072
 1164TIP3    H224984   4.408   3.003  14.006  2.6132 -0.0935 -1.3571
 1165TIP3   OH224985   0.500   5.760  11.557 -0.0353 -0.2108  0.4151
 1165TIP3    H124986   0.447   5.831  11.520 -0.6328 -0.3499  0.9884
 1165TIP3    H224987   0.590   5.785  11.538 -0.3426 -0.4255 -1.3627
 1166TIP3   OH224988   0.550   1.808   0.124  0.3332 -0.0772 -0.7828
 1166TIP3    H124989   0.472   1.779   0.172  0.1461 -0.3251 -1.2308
 1166TIP3    H224990   0.575   1.890   0.166 -0.0486 -0.1021 -0.5032
 1167TIP3   OH224991   0.073   1.263   6.317 -0.0880 -0.3230 -0.4841
 1167TIP3    H124992  -0.016   1.260   6.350 -0.2355  1.1526 -0.6924
 1167TIP3    H224993   0.110   1.343   6.354  0.2858  0.4638 -2.4760
 1168TIP3   OH224994   2.428   0.915  11.158  0.4791  0.8771  0.1005
 1168TIP3    H124995   2.472   0.839  11.195  1.4088  1.4215  0.1439
 1168TIP3    H224996   2.405   0.889  11.069 -2.3199 -0.6592  1.2211
 1169TIP3   OH224997   1.396   3.053  12.855 -0.7774 -0.7355  0.3278
 1169TIP3    H124998   1.415   3.095  12.939  1.7551 -1.4546  0.1579
 1169TIP3    H224999   1.426   3.115  12.789 -0.1953 -1.3428  0.0151
 1170TIP3   OH225000   1.581   1.211  14.704 -0.6337 -0.1602  0.1030
 1170TIP3    H125001   1.663   1.197  14.751 -0.1195  1.8700 -0.1558
 1170TIP3    H225002   1.577   1.140  14.641 -0.2918 -1.6993  1.7672
 1171TIP3   OH225003   2.502   4.985   2.861  0.5827  0.1555  0.2695
 1171TIP3    H125004   2.553   5.019   2.935  1.5410  0.9145 -0.7325
 1171TIP3    H225005   2.486   5.061   2.806  0.1881 -0.4775 -0.4975
 1172TIP3   OH225006   3.228   1.932  11.083  0.1877  0.2102 -0.2564
 1172TIP3    H125007   3.228   2.008  11.141 -1.6999  1.2651 -1.6041
 1172TIP3    H225008   3.272   1.961  11.004 -0.5777 -0.0736 -0.7971
 1173TIP3   OH225009   3.889   3.306  17.181 -0.1346  0.5199  0.2093
 1173TIP3    H125010   3.969   3.256  17.191 -0.3779  0.2880  1.0098
 1173TIP3    H225011   3.852   3.312  17.269 -1.7767 -0.6597 -0.3714
 1174TIP3   OH225012   6.535   6.800  12.068 -0.2863  0.1575 -0.6189
 1174TIP3    H125013   6.464   6.753  12.024  0.0599  1.8211 -3.1128
 1174TIP3    H225014   6.612   6.745  12.055 -0.4691 -0.0323 -0.9075
 1175TIP3   OH225015   2.217   3.085   0.215 -0.5004  1.2569  0.1020
 1175TIP3    H125016   2.307   3.068   0.242 -0.5704  2.5612  1.2335
 1175TIP3    H225017   2.164   3.035   0.277 -0.5410 -0.7181 -1.4929
 1176TIP3   OH225018   6.193   4.910   3.376  0.6695 -0.5287  0.1511
 1176TIP3    H125019   6.147   4.952   3.448  1.9041  0.3085  0.4786
 1176TIP3    H225020   6.160   4.820   3.375 -1.7534  0.3354 -0.3335
 1177TIP3   OH225021   5.156   3.593   6.070  0.0658 -0.1714 -0.1791
 1177TIP3    H125022   5.149   3.601   6.165 -0.1698 -0.8268 -0.1422
 1177TIP3    H225023   5.074   3.633   6.038  0.1378  0.0353 -0.1086
 1178TIP3   OH225024   4.259   5.370  17.271 -0.2154  0.2342 -0.4725
 1178TIP3    H125025   4.322   5.438  17.246 -0.2218  0.3266 -0.2423
 1178TIP3    H225026   4.286   5.343  17.359 -1.6930  1.7175  0.4862
 1179TIP3   OH225027   5.763   4.733  13.725 -0.0461 -0.0630 -0.1080
 1179TIP3    H125028   5.673   4.749  13.754  0.1452  1.5392 -0.3770
 1179TIP3    H225029   5.781   4.803  13.662  1.1200 -0.8385 -0.6486
 1180TIP3   OH225030   2.506   1.647   3.159 -0.1843  0.6536 -0.1145
 1180TIP3    H125031   2.459   1.659   3.077 -1.5348  2.7922  0.9202
 1180TIP3    H225032   2.528   1.554   3.160  0.0808  0.6413 -2.9897
 1181TIP3   OH225033   4.210   2.667   4.829 -0.1703  0.3003  0.1837
 1181TIP3    H125034   4.185   2.760   4.827  0.3691  0.4965  1.8335
 1181TIP3    H225035   4.209   2.640   4.737 -0.7758  1.8232 -0.2732
 1182TIP3   OH225036   3.709   5.412  12.153 -0.7084 -0.4424 -0.0348
 1182TIP3    H125037   3.781   5.408  12.090 -0.6457  0.5472 -0.0421
 1182TIP3    H225038   3.631   5.388  12.103 -1.0875  2.8935 -1.2133
 1183TIP3   OH225039   0.905   2.121   6.362 -0.1177 -0.2625  0.0429
 1183TIP3    H125040   0.856   2.093   6.438 -0.1915 -2.4550 -0.7644
 1183TIP3    H225041   0.969   2.051   6.347 -0.5515 -0.2212 -2.2916
 1184TIP3   OH225042   6.415   0.407  16.496  0.0140  0.2957 -0.3268
 1184TIP3    H125043   6.332   0.372  16.529  0.1375 -0.5623 -0.9171
 1184TIP3    H225044   6.452   0.336  16.444 -0.2402  1.6484 -2.4283
 1185TIP3   OH225045   2.435   0.079   3.427  0.1885  0.0587  0.2182
 1185TIP3    H125046   2.475   0.016   3.368  2.7315  0.1347  1.8312
 1185TIP3    H225047   2.424   0.033   3.510 -0.2013  0.9900  0.7019
 1186TIP3   OH225048   0.832   2.401  15.400 -0.3233  0.1870  0.0492
 1186TIP3    H125049   0.774   2.416  15.325 -0.5984  1.3465  0.4769
 1186TIP3    H225050   0.776   2.357  15.464 -0.7018  1.1541  0.3971
 1187TIP3   OH225051   2.278   0.508   2.510 -0.3730  0.4004 -0.2423
 1187TIP3    H125052   2.343   0.519   2.580 -0.3506  1.2291 -0.3894
 1187TIP3    H225053   2.212   0.450   2.548 -0.2125  0.6121  0.3635
 1188TIP3   OH225054   5.810   4.828   1.149  0.6641 -0.0506 -0.7849
 1188TIP3    H125055   5.807   4.796   1.239 -0.5365 -2.8532 -1.7748
 1188TIP3    H225056   5.731   4.794   1.108  1.5138  0.6367 -3.1094
 1189TIP3   OH225057   5.705   3.057  11.174 -0.2203 -0.2465 -0.1887
 1189TIP3    H125058   5.714   3.008  11.255  0.4616 -0.0343 -0.1362
 1189TIP3    H225059   5.692   3.147  11.201 -0.5491 -0.2582 -0.3039
 1190TIP3   OH225060   2.635   4.145  14.167 -0.0114 -0.0900  0.0705
 1190TIP3    H125061   2.639   4.098  14.084  0.1423 -1.2965  0.7486
 1190TIP3    H225062   2.721   4.185  14.177 -0.9808  2.5262 -1.7528
 1191TIP3   OH225063   2.263   5.682  13.707 -0.4557  0.0564  0.6434
 1191TIP3    H125064   2.296   5.679  13.617 -3.3768  0.2814 -0.4842
 1191TIP3    H225065   2.253   5.590  13.732 -2.2186 -0.0002 -0.2566
 1192TIP3   OH225066   2.509   6.153   0.532 -0.1553  0.5491  0.3772
 1192TIP3    H125067   2.445   6.159   0.461 -0.5549  1.0767  0.7824
 1192TIP3    H225068   2.458   6.128   0.609  0.4993 -1.5515  0.1635
 1193TIP3   OH225069   2.237   1.095   5.067  0.6074 -0.0956  0.2071
 1193TIP3    H125070   2.164   1.152   5.044  0.6564  0.1311  0.6087
 1193TIP3    H225071   2.304   1.113   5.002 -0.2668 -1.4258 -1.1149
 1194TIP3   OH225072   5.532   2.368  11.669  0.0792 -0.4245 -0.0583
 1194TIP3    H125073   5.518   2.292  11.613 -0.5184 -0.8076  0.5919
 1194TIP3    H225074   5.540   2.442  11.609 -1.5074 -0.6901 -0.6194
 1195TIP3   OH225075   3.303   2.759   0.823 -0.1899 -0.6740  0.9803
 1195TIP3    H125076   3.389   2.787   0.857  0.2301  2.7665 -2.5514
 1195TIP3    H225077   3.320   2.677   0.777  1.2518  0.0063  0.2701
 1196TIP3   OH225078   1.693   1.164   0.282 -0.1759  0.4805 -0.2214
 1196TIP3    H125079   1.722   1.155   0.372  0.5907  0.9331 -0.4171
 1196TIP3    H225080   1.772   1.148   0.230 -0.8266 -0.7659 -0.8451
 1197TIP3   OH225081   5.536   3.109  16.183  0.6489  0.1116 -0.1504
 1197TIP3    H125082   5.478   3.044  16.144 -0.3913  0.5729  0.5996
 1197TIP3    H225083   5.587   3.060  16.248 -0.5813  0.1577  0.8630
 1198TIP3   OH225084   4.844   3.412  16.626 -0.6418 -0.1644  0.0887
 1198TIP3    H125085   4.790   3.457  16.561 -0.0176 -1.3488 -1.2935
 1198TIP3    H225086   4.811   3.322  16.626  0.9985 -0.7799 -0.4270
 1199TIP3   OH225087   0.548   5.894   3.110 -0.6071 -0.5728 -0.2463
 1199TIP3    H125088   0.531   5.872   3.202  2.8155  3.5638  1.5709
 1199TIP3    H225089   0.496   5.973   3.094 -0.5943 -0.8367 -1.6732
 1200TIP3   OH225090   4.081   1.230  12.222  0.2527 -0.0725  0.0182
 1200TIP3    H125091   4.112   1.150  12.179  1.2164  0.4740 -0.3133
 1200TIP3    H225092   3.988   1.213  12.239  0.4035 -1.1886 -0.2175
 1201TIP3   OH225093   1.546   0.247  15.945 -0.1122  0.1121 -0.3521
 1201TIP3    H125094   1.585   0.285  16.023 -4.0743 -0.6110  2.1381
 1201TIP3    H225095   1.590   0.163  15.934  1.7949  1.0603 -0.0288
 1202TIP3   OH225096   5.267   0.590   1.077 -0.1270  0.5151 -0.1452
 1202TIP3    H125097   5.311   0.670   1.105  1.0948  0.2602 -1.3085
 1202TIP3    H225098   5.308   0.521   1.131 -1.5847  0.7186  1.2765
 1203TIP3   OH225099   5.333   4.199  13.132  0.3860 -0.1695 -0.1470
 1203TIP3    H125100   5.320   4.121  13.078  1.5226 -0.8775  0.5738
 1203TIP3    H225101   5.386   4.258  13.077 -0.2337 -0.0222 -0.5844
 1204TIP3   OH225102   6.237   6.725  14.218 -0.1332 -0.1614 -0.1880
 1204TIP3    H125103   6.272   6.759  14.301  0.8801 -1.5992 -0.0056
 1204TIP3    H225104   6.258   6.632  14.220  0.3182 -0.1244 -2.2676
 1205TIP3   OH225105   5.712   6.292   2.272 -0.5423 -0.2009  0.3309
 1205TIP3    H125106   5.632   6.344   2.273 -0.2324  0.3216  3.6147
 1205TIP3    H225107   5.684   6.205   2.301  0.1370  0.0892  1.8731
 1206TIP3   OH225108   3.810   1.976  16.326 -0.0449 -0.1601  0.1564
 1206TIP3    H125109   3.733   1.941  16.372  0.4134 -0.3233  0.8120
 1206TIP3    H225110   3.822   2.063  16.363  0.4365 -0.3634  0.4779
 1207TIP3   OH225111   3.063   1.296   0.899 -0.1929 -0.4818 -0.9051
 1207TIP3    H125112   3.095   1.380   0.867 -0.4269 -0.9385 -2.3525
 1207TIP3    H225113   3.142   1.246   0.920 -0.0605  0.4903  1.0411
 1208TIP3   OH225114   0.135   4.447  12.028 -0.4788  0.1859 -0.0067
 1208TIP3    H125115   0.084   4.464  12.107  0.1847 -1.5292  0.8127
 1208TIP3    H225116   0.192   4.374  12.051 -1.0748 -1.0972 -2.4469
 1209TIP3   OH225117   1.049   3.736  12.652 -0.7167  0.0011 -0.4164
 1209TIP3    H125118   1.137   3.747  12.687 -0.0733 -1.8102 -1.3937
 1209TIP3    H225119   1.018   3.653  12.691 -0.0987 -1.9019 -3.7815
 1210TIP3   OH225120   0.812   3.334   4.810 -0.1079  0.3699 -0.2309
 1210TIP3    H125121   0.872   3.403   4.782  0.2944  0.5369  0.9982
 1210TIP3    H225122   0.798   3.281   4.731  1.0575  0.7690 -0.7261
 1211TIP3   OH225123   0.338   3.726  14.654  0.0250 -0.4449 -0.2610
 1211TIP3    H125124   0.396   3.731  14.729  2.7946 -2.2606 -2.2058
 1211TIP3    H225125   0.333   3.815  14.621  0.9946 -0.1262  0.4491
 1212TIP3   OH225126   2.081   4.427   4.313  0.2239  0.1433 -0.1796
 1212TIP3    H125127   2.084   4.462   4.224 -0.7854  0.1431 -0.2211
 1212TIP3    H225128   2.143   4.354   4.312  0.2657  0.1813 -0.8640
 1213TIP3   OH225129   0.174   4.230  11.592  0.9620 -0.1188 -0.1996
 1213TIP3    H125130   0.079   4.220  11.585  1.0263 -0.9096  0.0479
 1213TIP3    H225131   0.189   4.324  11.583  0.4546 -0.3123 -3.8406
 1214TIP3   OH225132   3.318   0.020  15.307 -0.0027  0.0824  0.0053
 1214TIP3    H125133   3.344  -0.031  15.230 -3.1471 -0.0688 -1.0461
 1214TIP3    H225134   3.291  -0.046  15.371 -0.8723  0.3089 -0.1243
 1215TIP3   OH225135   0.166   1.716   5.606  0.9197  0.4089 -0.1342
 1215TIP3    H125136   0.169   1.677   5.693 -1.7905 -0.2895 -0.3103
 1215TIP3    H225137   0.135   1.646   5.549  2.3681  0.9471 -1.6280
 1216TIP3   OH225138   0.713   5.495  16.203 -1.1335  0.2474 -0.1137
 1216TIP3    H125139   0.678   5.507  16.291  0.3698  2.4498  0.2283
 1216TIP3    H225140   0.802   5.463  16.216 -1.2006 -0.2542 -0.8525
 1217TIP3   OH225141   5.555   5.836   2.098 -0.0037 -0.1457  0.5202
 1217TIP3    H125142   5.532   5.907   2.157 -0.4056 -0.2501  0.4923
 1217TIP3    H225143   5.566   5.878   2.013 -1.1210 -0.2390  0.3204
 1218TIP3   OH225144   4.500   4.813   1.147 -0.3552  0.2115  0.4482
 1218TIP3    H125145   4.431   4.790   1.086  2.5186 -2.6075 -1.9415
 1218TIP3    H225146   4.482   4.761   1.225 -1.1081 -0.2565 -0.0329
 1219TIP3   OH225147   5.857   1.490  14.649  0.4184  0.4873  0.1350
 1219TIP3    H125148   5.925   1.439  14.604  0.6093  0.4056  0.5146
 1219TIP3    H225149   5.837   1.440  14.728  0.4395  0.8749  0.3906
 1220TIP3   OH225150   4.711   1.953   5.713  0.2775 -0.0804 -0.4330
 1220TIP3    H125151   4.657   1.990   5.782  0.5919 -3.0187  1.4911
 1220TIP3    H225152   4.787   1.917   5.759  1.0495 -1.1084 -2.4277
 1221TIP3   OH225153   0.334   5.243   3.062 -0.5060 -0.1160 -0.2390
 1221TIP3    H125154   0.425   5.234   3.090 -1.0264 -0.6404  1.3397
 1221TIP3    H225155   0.296   5.156   3.075 -1.4303  0.2857 -0.1735
 1222TIP3   OH225156   3.931   3.849   1.114 -0.3175  0.0563 -0.0928
 1222TIP3    H125157   3.984   3.815   1.042 -1.6177 -0.3232 -0.8815
 1222TIP3    H225158   3.975   3.818   1.193  0.5385 -0.4019 -0.7435
 1223TIP3   OH225159   5.417   1.715   3.403  0.1930  0.2417 -0.2516
 1223TIP3    H125160   5.442   1.622   3.395  1.9064  0.5938  0.6891
 1223TIP3    H225161   5.493   1.763   3.370 -0.5441  1.3204 -0.3981
 1224TIP3   OH225162   1.336   0.913  15.486  0.0206 -0.4162  0.0723
 1224TIP3    H125163   1.327   1.007  15.503 -2.5709 -0.2136 -2.0890
 1224TIP3    H225164   1.312   0.872  15.569  2.2229  0.7806  1.3774
 1225TIP3   OH225165   1.406   3.263   3.813  0.0965  0.2056  0.2394
 1225TIP3    H125166   1.418   3.213   3.733 -0.6046  0.1489  0.1626
 1225TIP3    H225167   1.458   3.217   3.879  0.1641 -0.1149 -0.0381
 1226TIP3   OH225168   3.993   2.171   1.548 -0.0033 -0.0734  0.4491
 1226TIP3    H125169   4.020   2.085   1.515 -3.5056 -1.0862  0.0013
 1226TIP3    H225170   3.942   2.209   1.477 -1.2072  0.9873  1.8542
 1227TIP3   OH225171   1.099   0.337   1.726  0.1375  0.2459  0.5212
 1227TIP3    H125172   1.156   0.405   1.691 -0.6983  1.1094  0.7970
 1227TIP3    H225173   1.012   0.378   1.726 -0.1600 -0.3831  1.8813
 1228TIP3   OH225174   2.206   2.603  11.678 -0.0777  0.0888 -0.5850
 1228TIP3    H125175   2.174   2.513  11.673  1.8949 -0.7382  0.7565
 1228TIP3    H225176   2.286   2.603  11.625 -0.5397  1.2934 -1.3107
 1229TIP3   OH225177   3.365   2.579  12.387 -0.3814  0.1138  0.2178
 1229TIP3    H125178   3.374   2.626  12.304  2.7343  1.8742  1.4764
 1229TIP3    H225179   3.285   2.615  12.426 -1.1865  0.1647 -1.4217
 1230TIP3   OH225180   3.668   2.168   3.151  0.0979  0.1973  0.0950
 1230TIP3    H125181   3.687   2.162   3.244  0.9110 -0.5838 -0.1167
 1230TIP3    H225182   3.649   2.260   3.136 -1.1622  0.1367  1.2456
 1231TIP3   OH225183   2.687   5.877   4.814 -0.2040  0.2491  0.2117
 1231TIP3    H125184   2.611   5.922   4.849 -0.6174  0.4686 -0.9546
 1231TIP3    H225185   2.669   5.784   4.829 -0.4085  0.3378  0.5150
 1232TIP3   OH225186   6.335   6.738  11.869 -0.4222 -0.7657 -0.3729
 1232TIP3    H125187   6.314   6.713  11.779 -1.8564  0.3155 -0.3514
 1232TIP3    H225188   6.329   6.834  11.869  1.4814 -0.6251  0.4040
 1233TIP3   OH225189   2.200   1.748  13.651 -0.5314 -0.0226 -0.0272
 1233TIP3    H125190   2.204   1.666  13.601  0.0968 -1.0141  1.5860
 1233TIP3    H225191   2.282   1.792  13.630 -0.1206 -0.5898  0.3469
 1234TIP3   OH225192   6.714   5.639   1.169  0.8363 -0.3488  0.0531
 1234TIP3    H125193   6.657   5.582   1.119  3.1376 -0.7946 -2.1422
 1234TIP3    H225194   6.706   5.725   1.127 -1.2135  0.5888  2.2176
 1235TIP3   OH225195   2.178   0.154   2.515 -0.0918 -0.1240 -0.4950
 1235TIP3    H125196   2.181   0.131   2.608  0.6279  0.0105 -0.4846
 1235TIP3    H225197   2.118   0.090   2.476 -0.3820 -0.1847  0.0610
 1236TIP3   OH225198   4.323   5.968   1.910 -0.5440 -0.2159 -0.5127
 1236TIP3    H125199   4.385   6.041   1.908  1.3820 -1.7866  0.9214
 1236TIP3    H225200   4.310   5.946   1.817  2.6411 -1.1592 -0.7973
 1237TIP3   OH225201   4.747   5.576  11.877  0.2455 -0.7664 -0.3409
 1237TIP3    H125202   4.737   5.542  11.966 -0.1792  1.5488  0.5269
 1237TIP3    H225203   4.661   5.565  11.837  0.3820 -1.6172 -0.4179
 1238TIP3   OH225204   3.615   5.779   4.124 -0.1148  0.3940  0.4362
 1238TIP3    H125205   3.611   5.822   4.210  1.0610  1.1700  0.1186
 1238TIP3    H225206   3.535   5.726   4.120 -0.5222  0.8833  1.7262
 1239TIP3   OH225207   3.557   3.923   5.437 -0.1691 -0.2693  0.2225
 1239TIP3    H125208   3.526   3.941   5.349  1.1268 -1.9168 -0.5867
 1239TIP3    H225209   3.648   3.952   5.437 -0.8645  2.1155  1.8068
 1240TIP3   OH225210   4.732   5.343   2.731  0.1644 -0.4681 -0.5309
 1240TIP3    H125211   4.763   5.432   2.747  0.8709 -0.8526  0.2512
 1240TIP3    H225212   4.682   5.320   2.809 -1.5942 -0.0773 -1.5300
 1241TIP3   OH225213   0.100   5.624  12.530  0.3811 -0.0803 -0.1643
 1241TIP3    H125214   0.138   5.597  12.446  0.1084 -0.1837 -0.2532
 1241TIP3    H225215   0.055   5.706  12.510  0.3339 -0.0935 -0.1121
 1242TIP3   OH225216   6.174   2.063   0.154 -0.2000 -0.3289 -0.3448
 1242TIP3    H125217   6.206   2.056   0.064  1.3327 -1.8866  0.2971
 1242TIP3    H225218   6.205   2.149   0.184  0.5072 -0.4128 -0.8317
 1243TIP3   OH225219   3.840   2.162  16.892 -0.3819  0.0494  0.3426
 1243TIP3    H125220   3.860   2.186  16.983 -0.5604  0.8167  0.1758
 1243TIP3    H225221   3.753   2.121  16.897  0.5215 -1.8568  0.8239
 1244TIP3   OH225222   5.009   3.754  13.031 -0.5883 -0.6184 -0.2656
 1244TIP3    H125223   4.941   3.700  12.991 -0.5622  0.7231 -2.1660
 1244TIP3    H225224   5.081   3.752  12.968  0.1075  0.1441  0.5041
 1245TIP3   OH225225   2.008   2.392  11.908  0.1891 -0.1506  0.6541
 1245TIP3    H125226   2.093   2.361  11.937  0.8167  1.4307  0.5796
 1245TIP3    H225227   1.994   2.473  11.958 -1.0277 -0.1131  0.2751
 1246TIP3   OH225228   4.459   1.003   1.087  0.4046 -0.3987  0.7805
 1246TIP3    H125229   4.384   0.979   1.142  0.3253 -2.3294 -0.1398
 1246TIP3    H225230   4.423   1.005   0.998  1.2593 -0.5518  0.4325
 1247TIP3   OH225231   6.527   3.311  13.656 -0.2081  0.1353  0.2654
 1247TIP3    H125232   6.484   3.253  13.720 -0.0770  1.8464  1.9566
 1247TIP3    H225233   6.587   3.254  13.609 -1.9644 -1.6426  0.0930
 1248TIP3   OH225234   4.806   0.349  14.437 -0.1610  0.0334 -0.1024
 1248TIP3    H125235   4.823   0.266  14.480  0.2555 -1.0915 -2.3677
 1248TIP3    H225236   4.885   0.401  14.451  0.3306 -0.6668 -0.3031
 1249TIP3   OH225237   5.439   3.660   1.604  0.3819 -0.7718  0.0059
 1249TIP3    H125238   5.430   3.697   1.516 -1.2109 -0.3007  0.3360
 1249TIP3    H225239   5.348   3.644   1.631  0.8963 -1.3778  1.3611
 1250TIP3   OH225240   0.945   2.967  15.931 -0.4531 -0.4180 -0.0018
 1250TIP3    H125241   0.976   3.054  15.957 -2.8303  0.3929  0.2451
 1250TIP3    H225242   0.914   2.979  15.841  0.9466 -1.4861 -0.6458
 1251TIP3   OH225243   2.833   0.596  15.057  0.2881 -0.4139 -0.5050
 1251TIP3    H125244   2.868   0.512  15.088  3.5861  0.2744 -2.1940
 1251TIP3    H225245   2.779   0.573  14.981  0.4325 -1.0760 -0.4103
 1252TIP3   OH225246   1.063   2.300   4.074  0.2221  0.4649  0.1942
 1252TIP3    H125247   1.152   2.275   4.051 -0.2307  0.1848 -1.3181
 1252TIP3    H225248   1.043   2.374   4.016 -0.3320  0.8824  0.9109
 1253TIP3   OH225249   5.551   2.551   5.920 -0.2754 -0.6798 -0.3044
 1253TIP3    H125250   5.565   2.625   5.861 -1.8349  0.8391  1.1574
 1253TIP3    H225251   5.461   2.523   5.903 -0.8379 -0.0436  1.5055
 1254TIP3   OH225252   5.173   4.278  16.066 -0.1924  0.4730 -0.2640
 1254TIP3    H125253   5.086   4.240  16.075  0.7522 -1.9021 -0.5514
 1254TIP3    H225254   5.182   4.337  16.140 -1.5559 -0.2689  0.5070
 1255TIP3   OH225255   4.796   4.360   3.574  0.5087 -0.0521 -0.2388
 1255TIP3    H125256   4.811   4.454   3.582  1.0398 -0.1666  0.1484
 1255TIP3    H225257   4.754   4.350   3.489 -2.3901  0.8601  1.0162
 1256TIP3   OH225258   1.994   2.446  15.457 -0.1803 -0.4541 -0.2939
 1256TIP3    H125259   1.926   2.512  15.443  0.8183  0.4097 -1.1698
 1256TIP3    H225260   1.970   2.405  15.540 -2.3239 -0.8603 -1.0692
 1257TIP3   OH225261   2.681   1.804   3.420  0.0326  0.3161  0.5243
 1257TIP3    H125262   2.742   1.877   3.421 -0.0970  0.4309  1.8325
 1257TIP3    H225263   2.733   1.729   3.451 -0.2358  0.1971  0.6933
 1258TIP3   OH225264   5.400   1.870  15.949 -0.5997 -0.5243 -0.3914
 1258TIP3    H125265   5.346   1.926  16.005 -0.9391  0.1480 -1.3770
 1258TIP3    H225266   5.398   1.784  15.991 -1.2410 -0.1363  0.3665
 1259TIP3   OH225267   1.303   3.556   4.185  0.3020 -0.2174 -0.0932
 1259TIP3    H125268   1.368   3.558   4.255 -1.2782 -3.0720  1.5785
 1259TIP3    H225269   1.355   3.545   4.105  1.9545 -1.5592  1.1139
 1260TIP3   OH225270   3.562   4.819  11.802 -0.2475  0.5781  0.4273
 1260TIP3    H125271   3.487   4.867  11.835 -1.0625 -0.1598 -0.3331
 1260TIP3    H225272   3.583   4.859  11.718  0.6434  1.2235  0.9453
 1261TIP3   OH225273   4.711   1.632  10.754 -0.1530 -0.2110  0.6188
 1261TIP3    H125274   4.752   1.581  10.685 -0.5746 -1.3077  1.1695
 1261TIP3    H225275   4.780   1.643  10.820  0.4286  1.3434 -0.2272
 1262TIP3   OH225276   4.664   5.140   6.172 -0.6197  0.1490  0.7180
 1262TIP3    H125277   4.604   5.122   6.244 -0.9417 -1.2394  0.1198
 1262TIP3    H225278   4.744   5.094   6.195 -0.6815 -0.1951  0.2647
 1263TIP3   OH225279   3.646   3.151   0.793 -0.0969 -0.0558  0.6725
 1263TIP3    H125280   3.668   3.060   0.775  2.4899  0.8701 -1.1281
 1263TIP3    H225281   3.652   3.160   0.888  0.2021 -1.5993  0.7971
 1264TIP3   OH225282   0.858   5.733  14.091 -0.2329  0.3628 -0.4918
 1264TIP3    H125283   0.870   5.641  14.071  0.1948  0.1912  0.5325
 1264TIP3    H225284   0.765   5.750  14.072 -0.1529 -0.1140 -1.2992
 1265TIP3   OH225285   1.772   0.157   2.640 -0.2196  0.0275 -0.3197
 1265TIP3    H125286   1.705   0.096   2.671  0.2272  0.6851  2.0530
 1265TIP3    H225287   1.827   0.172   2.717 -0.1836  3.2574 -0.9332
 1266TIP3   OH225288   6.558   4.287  11.924 -0.7868  0.0345  0.3330
 1266TIP3    H125289   6.522   4.295  12.012  1.6366 -0.8890  1.4527
 1266TIP3    H225290   6.648   4.319  11.932 -1.0607  1.5931 -2.2110
 1267TIP3   OH225291   3.619   1.115  11.970  0.1452 -0.3246  0.1741
 1267TIP3    H125292   3.585   1.156  12.049 -1.2294 -0.3143 -0.4095
 1267TIP3    H225293   3.624   1.022  11.992  0.2824 -0.2551  0.4436
 1268TIP3   OH225294   4.434   0.714   2.195  0.5322  0.1201 -0.6156
 1268TIP3    H125295   4.349   0.697   2.153  0.1581  1.6593 -0.5121
 1268TIP3    H225296   4.442   0.646   2.262  0.3796 -1.3623 -2.0679
 1269TIP3   OH225297   4.343   6.423   0.059  0.9022 -0.3016  0.5200
 1269TIP3    H125298   4.316   6.428  -0.033 -2.0811 -1.0369  1.3081
 1269TIP3    H225299   4.426   6.375   0.057  0.8747 -0.3064 -1.7890
 1270TIP3   OH225300   5.743   2.827   2.088 -0.2293  0.4815 -0.1867
 1270TIP3    H125301   5.746   2.921   2.072  1.6951  0.8651  2.1089
 1270TIP3    H225302   5.829   2.806   2.124 -0.8844 -2.0237  0.0179
 1271TIP3   OH225303   6.119   3.214  15.088 -0.0213  0.1627  0.3296
 1271TIP3    H125304   6.027   3.223  15.062  0.0169  1.1123  0.5024
 1271TIP3    H225305   6.167   3.264  15.022  0.3203  0.1939  0.6019
 1272TIP3   OH225306   1.368   5.220   5.013  0.4183 -0.6484 -0.5164
 1272TIP3    H125307   1.429   5.203   5.085 -0.5892 -0.6657  0.3391
 1272TIP3    H225308   1.421   5.210   4.934  1.6873  0.0056  0.2384
 1273TIP3   OH225309   4.767   3.560  11.422 -0.0538  0.2475  0.8104
 1273TIP3    H125310   4.785   3.581  11.513 -0.0293  0.1265  0.8335
 1273TIP3    H225311   4.680   3.520  11.423 -1.2733  2.7668  0.4402
 1274TIP3   OH225312   0.434   1.906  14.639  0.1177 -0.0542  0.2643
 1274TIP3    H125313   0.438   1.999  14.617  0.9390 -0.2043 -0.2559
 1274TIP3    H225314   0.356   1.874  14.593  0.2100  0.2404 -0.0988
 1275TIP3   OH225315   5.680   4.945  11.820 -0.7325  0.6401  0.0876
 1275TIP3    H125316   5.763   4.899  11.810 -1.2312 -0.0596 -0.8577
 1275TIP3    H225317   5.669   4.954  11.915 -0.4954 -0.9482  0.2795
 1276TIP3   OH225318   1.659   1.549   6.184 -0.6351  0.1116  0.2785
 1276TIP3    H125319   1.711   1.541   6.264 -0.8405 -0.0866  0.3915
 1276TIP3    H225320   1.570   1.529   6.211 -0.9827  1.6799  0.3507
 1277TIP3   OH225321   3.341   4.179  11.257 -0.2176 -0.0378  0.0396
 1277TIP3    H125322   3.256   4.144  11.228 -0.1489  0.8564 -1.3493
 1277TIP3    H225323   3.324   4.214  11.344 -1.6891  1.4329 -0.7864
 1278TIP3   OH225324   4.715   0.174  14.774 -0.0512 -0.0815 -0.1717
 1278TIP3    H125325   4.776   0.149  14.704 -0.0947 -0.1712 -0.1782
 1278TIP3    H225326   4.770   0.176  14.853  0.0488  0.2726 -0.2520
 1279TIP3   OH225327   5.546   2.907   6.017  0.7191 -0.0725  0.3492
 1279TIP3    H125328   5.557   2.859   5.935 -0.0979 -0.0527  0.2313
 1279TIP3    H225329   5.489   2.852   6.070 -0.6730  1.0160  0.0031
 1280TIP3   OH225330   4.944   2.328  15.446 -0.3244  0.5874  0.0447
 1280TIP3    H125331   4.882   2.327  15.373  0.9194  1.8689 -1.0593
 1280TIP3    H225332   5.023   2.287  15.411  0.1964  0.9960  0.7299
 1281TIP3   OH225333   0.097   5.366  15.771  0.0773 -0.8146 -0.3363
 1281TIP3    H125334   0.127   5.446  15.726 -0.7574 -0.8959 -1.0490
 1281TIP3    H225335   0.172   5.306  15.766  0.7687 -0.0224  0.3514
 1282TIP3   OH225336   6.468   4.731  16.662 -0.3412 -0.2004  0.2129
 1282TIP3    H125337   6.391   4.698  16.709  0.0453 -0.2869  0.7889
 1282TIP3    H225338   6.514   4.653  16.633  0.6042 -0.1824  1.6227
 1283TIP3   OH225339   1.003   2.703   3.596 -0.7395 -0.1153  0.1025
 1283TIP3    H125340   0.981   2.642   3.666 -0.3409 -1.2271 -0.7242
 1283TIP3    H225341   0.919   2.740   3.569 -0.9600 -0.1456  0.7473
 1284TIP3   OH225342   5.210   6.288  11.417  0.7576  0.0502  0.3371
 1284TIP3    H125343   5.176   6.376  11.431 -1.7506 -1.1676  2.3500
 1284TIP3    H225344   5.169   6.260  11.334  0.6070  0.3596  0.3069
 1285TIP3   OH225345   3.741   3.613  16.206 -0.5019  0.5939 -0.6791
 1285TIP3    H125346   3.749   3.549  16.276 -0.9954 -0.5354 -1.6249
 1285TIP3    H225347   3.686   3.570  16.140 -2.9519  2.9391 -0.2582
 1286TIP3   OH225348   3.281   6.269   4.116 -0.1807  0.1363 -0.7196
 1286TIP3    H125349   3.208   6.253   4.057  0.1504 -0.1674 -1.0499
 1286TIP3    H225350   3.358   6.242   4.067  0.0642 -0.4460 -0.0231
 1287TIP3   OH225351   2.088   4.952  11.653 -0.2357  0.0659 -0.1504
 1287TIP3    H125352   2.084   4.901  11.734 -1.6591  0.2364 -0.0994
 1287TIP3    H225353   2.181   4.954  11.631 -0.0603 -1.8214  0.3139
 1288TIP3   OH225354   3.197   2.736   1.416 -0.1624 -0.2063  0.6034
 1288TIP3    H125355   3.107   2.705   1.405 -0.7437  1.0255  1.7799
 1288TIP3    H225356   3.191   2.803   1.484  1.6424 -0.0772  0.6493
 1289TIP3   OH225357   5.115   4.172   4.172 -0.1294 -0.5345 -0.4024
 1289TIP3    H125358   5.065   4.233   4.226 -0.0976 -0.4985 -0.4135
 1289TIP3    H225359   5.199   4.216   4.159  0.0121 -0.7226 -0.1353
 1290TIP3   OH225360   5.590   6.273  11.592 -0.1073 -0.6107  0.6561
 1290TIP3    H125361   5.664   6.225  11.631  1.0954  0.6400 -0.0327
 1290TIP3    H225362   5.620   6.295  11.504 -0.5186  1.6393  1.0531
 1291TIP3   OH225363   6.677   6.491  11.553 -0.2952  0.3695 -0.3847
 1291TIP3    H125364   6.772   6.487  11.564 -0.5129 -1.2193  0.9688
 1291TIP3    H225365   6.658   6.422  11.489 -0.4195  1.5032 -1.5983
 1292TIP3   OH225366   5.150   6.225   5.888  0.6621  0.7682 -0.7034
 1292TIP3    H125367   5.151   6.246   5.981  0.3407 -1.0245 -0.2770
 1292TIP3    H225368   5.066   6.259   5.857 -0.3468 -0.7994  0.2083
 1293TIP3   OH225369   3.179   2.635  14.022  0.2318 -0.4626 -0.5797
 1293TIP3    H125370   3.187   2.586  13.941 -0.7495 -0.1843 -0.8522
 1293TIP3    H225371   3.269   2.663  14.042  0.9136 -2.9012 -0.0503
 1294TIP3   OH225372   2.194   5.210  12.574 -0.0529 -0.2268  0.2140
 1294TIP3    H125373   2.198   5.116  12.588 -0.3677 -0.2839 -0.0756
 1294TIP3    H225374   2.284   5.240  12.581 -0.0459 -0.4479  1.0239
 1295TIP3   OH225375   3.300   5.347  12.523  0.1180  0.3959 -0.1650
 1295TIP3    H125376   3.261   5.260  12.528 -2.3368  1.3051 -2.1241
 1295TIP3    H225377   3.334   5.353  12.434  2.0003  0.7773  0.5611
 1296TIP3   OH225378   4.510   1.896  16.173  0.1160  0.7802 -0.1772
 1296TIP3    H125379   4.424   1.877  16.134  0.6708  0.2208 -1.1450
 1296TIP3    H225380   4.546   1.966  16.120  0.8601  0.0353 -0.6772
 1297TIP3   OH225381   6.626   4.223   5.302 -0.9075  0.1853  0.3505
 1297TIP3    H125382   6.535   4.241   5.280 -0.9221 -0.8727 -0.4561
 1297TIP3    H225383   6.635   4.128   5.293  0.1910  0.2472  0.7284
 1298TIP3   OH225384   6.694   1.423  13.767  0.2214  0.3180 -0.4797
 1298TIP3    H125385   6.642   1.407  13.689  1.1676  2.3600 -1.5776
 1298TIP3    H225386   6.774   1.371  13.754 -0.1229 -0.2586 -0.3100
 1299TIP3   OH225387   2.427   4.697  14.894  0.2722 -0.1527 -0.6642
 1299TIP3    H125388   2.475   4.668  14.971  1.4218 -1.1021 -1.7069
 1299TIP3    H225389   2.475   4.774  14.863 -0.2417  0.2834 -0.3830
 1300TIP3   OH225390   0.323   2.354   0.415 -0.4849 -0.2549  0.0029
 1300TIP3    H125391   0.244   2.356   0.469 -0.2414 -1.7893  0.4610
 1300TIP3    H225392   0.292   2.367   0.325 -1.1341  0.2474  0.3048
 1301TIP3   OH225393   6.172   5.206   1.767 -0.4047 -0.2819 -0.0196
 1301TIP3    H125394   6.116   5.196   1.844  0.7925  1.0457  1.0539
 1301TIP3    H225395   6.122   5.166   1.696 -2.3074  0.0493  1.0902
 1302TIP3   OH225396   3.384   1.468   5.706  0.0707 -0.1422 -0.4813
 1302TIP3    H125397   3.429   1.551   5.722 -2.2578  1.1682 -0.4342
 1302TIP3    H225398   3.361   1.436   5.793 -2.3053  1.0770 -0.6277
 1303TIP3   OH225399   4.248   4.512   1.237 -0.1444  0.0163 -0.2687
 1303TIP3    H125400   4.193   4.461   1.296  1.2501 -0.6211  0.5045
 1303TIP3    H225401   4.188   4.574   1.195 -1.5828 -1.2350 -0.0853
 1304TIP3   OH225402   4.752   2.596  14.760  0.3371  0.5393  0.5516
 1304TIP3    H125403   4.767   2.690  14.766 -0.1287  0.6493 -0.0475
 1304TIP3    H225404   4.657   2.587  14.751  0.5853  0.1495 -2.1048
 1305TIP3   OH225405   2.494   2.271   1.297 -0.4680 -0.6341  0.1926
 1305TIP3    H125406   2.474   2.196   1.354  1.3984 -1.1226  0.2414
 1305TIP3    H225407   2.585   2.291   1.315  0.3644 -1.1882 -3.0661
 1306TIP3   OH225408   3.932   4.560   3.525  0.0238  0.5865 -0.5052
 1306TIP3    H125409   3.881   4.497   3.474  0.9398 -0.8153  0.2646
 1306TIP3    H225410   3.946   4.633   3.465  0.5509 -0.7545 -2.0781
 1307TIP3   OH225411   6.277   0.691   2.512  0.4455  0.2915  0.2142
 1307TIP3    H125412   6.256   0.784   2.502 -1.9154 -0.4061 -1.7481
 1307TIP3    H225413   6.245   0.669   2.599  1.3359  1.3621  0.8409
 1308TIP3   OH225414   6.619   6.030   1.323 -0.9854  1.0423  0.4074
 1308TIP3    H125415   6.659   6.114   1.303  0.0953  0.4988  0.2245
 1308TIP3    H225416   6.693   5.971   1.337 -1.6927 -0.2977 -1.2418
 1309TIP3   OH225417   1.275   6.812  14.517  0.3058  0.0918  0.3019
 1309TIP3    H125418   1.280   6.765  14.601  1.6158  0.1639  0.2645
 1309TIP3    H225419   1.291   6.745  14.451  1.0858  0.3870  0.1936
 1310TIP3   OH225420   0.187   5.838  13.462  0.3626  0.4150 -0.4968
 1310TIP3    H125421   0.251   5.806  13.398  1.5512  2.0386 -0.1753
 1310TIP3    H225422   0.240   5.865  13.537 -0.8427  0.4568  0.3505
 1311TIP3   OH225423   1.814   5.342  11.491 -0.3424 -0.2554  0.4579
 1311TIP3    H125424   1.798   5.253  11.520  0.7251 -0.6684 -0.1975
 1311TIP3    H225425   1.880   5.376  11.551 -0.5226 -0.0002  0.5183
 1312TIP3   OH225426   0.953   1.941  11.664  0.4753 -0.2897 -0.0270
 1312TIP3    H125427   0.994   1.867  11.618  0.4245  0.9609 -2.1537
 1312TIP3    H225428   0.982   1.932  11.755  1.4291 -2.2511 -0.4977
 1313TIP3   OH225429   1.897   5.307  13.444 -0.2777  0.7636 -0.4154
 1313TIP3    H125430   1.926   5.347  13.362  0.6154 -2.8166 -1.9778
 1313TIP3    H225431   1.977   5.268  13.481 -0.9542  1.0370  1.3836
 1314TIP3   OH225432   1.550   1.462   0.590 -0.5158 -0.5855  0.6314
 1314TIP3    H125433   1.555   1.465   0.494 -1.4252 -3.7769  0.4438
 1314TIP3    H225434   1.642   1.456   0.618 -0.2911 -0.6257 -0.0816
 1315TIP3   OH225435   0.412   4.716   0.171  0.0035  0.1700 -0.2800
 1315TIP3    H125436   0.406   4.743   0.263 -0.5318 -1.9985  0.3503
 1315TIP3    H225437   0.503   4.689   0.160 -0.4573 -1.6813  0.2540
 1316TIP3   OH225438   5.377   2.270  16.768  0.4868 -0.0942 -0.4357
 1316TIP3    H125439   5.311   2.272  16.698 -0.8958  3.4242  0.8435
 1316TIP3    H225440   5.456   2.307  16.728  0.8617 -1.6374 -1.1577
 1317TIP3   OH225441   5.901   6.104  16.672 -0.7550 -0.0630 -0.1026
 1317TIP3    H125442   5.968   6.157  16.716  1.7169 -0.6249 -3.0341
 1317TIP3    H225443   5.908   6.018  16.713  0.1129 -0.0203 -0.1389
 1318TIP3   OH225444   0.095   2.885   6.376  0.5368 -0.4624 -0.2955
 1318TIP3    H125445   0.180   2.883   6.421  1.5020  1.7698 -1.9255
 1318TIP3    H225446   0.102   2.817   6.309  0.1156 -1.9157  1.1006
 1319TIP3   OH225447   3.082   3.204   3.104 -0.2252  0.1726  0.1211
 1319TIP3    H125448   3.015   3.154   3.150  2.0689 -0.4585  2.9004
 1319TIP3    H225449   3.050   3.295   3.107 -0.4779  0.0330  2.3731
 1320TIP3   OH225450   3.217   2.060   1.331 -0.4839 -0.0156  0.6277
 1320TIP3    H125451   3.282   2.129   1.317 -2.3458  1.3336 -1.7499
 1320TIP3    H225452   3.192   2.069   1.423 -0.1993  2.0812  0.5356
 1321TIP3   OH225453   4.451   3.996  10.918 -0.1128  0.4730  0.1147
 1321TIP3    H125454   4.526   4.054  10.928  1.0681 -0.8170 -1.0040
 1321TIP3    H225455   4.489   3.908  10.914 -1.6505 -0.1824 -0.7205
 1322TIP3   OH225456   4.868   4.930   6.708 -0.0900 -0.4740  0.6570
 1322TIP3    H125457   4.799   4.994   6.724  0.6790  0.9601 -1.5430
 1322TIP3    H225458   4.919   4.928   6.788 -3.3151 -2.4401  2.8046
 1323TIP3   OH225459   5.808   6.086  13.131 -0.8595 -0.9375  0.4833
 1323TIP3    H125460   5.883   6.037  13.099 -0.8546 -0.6389  0.0318
 1323TIP3    H225461   5.804   6.163  13.074 -2.0426 -1.3973 -0.0682
 1324TIP3   OH225462   5.329   2.720   1.912 -0.1203  0.2722 -0.2421
 1324TIP3    H125463   5.241   2.709   1.949 -1.2939  1.1950 -2.6163
 1324TIP3    H225464   5.360   2.630   1.899  0.6947 -0.0947  3.6311
 1325TIP3   OH225465   2.885   3.699  17.137 -0.1422  0.2968 -0.1856
 1325TIP3    H125466   2.869   3.609  17.163  0.1541  0.2083 -0.3127
 1325TIP3    H225467   2.911   3.693  17.045 -3.5815  0.7997 -1.2760
 1326TIP3   OH225468   3.060   1.921  12.960  0.6285  0.2058 -0.3208
 1326TIP3    H125469   3.058   1.888  12.870 -0.5175 -0.4415 -0.0732
 1326TIP3    H225470   3.106   1.854  13.009  0.4382  0.1232 -0.2558
 1327TIP3   OH225471   3.166   0.434  16.632 -0.0446  0.4494 -0.3554
 1327TIP3    H125472   3.101   0.455  16.699 -0.2252  0.8201 -0.6476
 1327TIP3    H225473   3.117   0.384  16.566  0.5983 -1.8427  0.8373
 1328TIP3   OH225474   4.846   3.157  14.056 -0.1486 -0.1215 -0.3807
 1328TIP3    H125475   4.932   3.115  14.064 -0.2056 -0.0841  0.5181
 1328TIP3    H225476   4.864   3.251  14.060 -0.1999 -0.1050 -0.5190
 1329TIP3   OH225477   5.796   2.787   3.396 -0.0637 -0.8852  0.2978
 1329TIP3    H125478   5.838   2.872   3.413 -2.6276  0.3231  0.8459
 1329TIP3    H225479   5.856   2.743   3.335  0.5648  1.9593 -1.2438
 1330TIP3   OH225480   3.834   3.031  12.653  0.4368  0.3148  0.6044
 1330TIP3    H125481   3.809   2.953  12.604  0.8449 -1.0668  2.5397
 1330TIP3    H225482   3.818   3.008  12.744  1.1861  2.2716  1.2503
 1331TIP3   OH225483   3.026   2.551   2.505 -0.1910  0.2838 -0.4189
 1331TIP3    H125484   3.073   2.578   2.427  0.6318 -0.4562 -0.1859
 1331TIP3    H225485   3.093   2.547   2.574 -1.1476  2.3364  0.6831
 1332TIP3   OH225486   5.937   2.151   6.792  0.2676 -0.3418  0.0403
 1332TIP3    H125487   5.885   2.097   6.852  1.4769  0.4631  1.8577
 1332TIP3    H225488   6.026   2.118   6.801  0.7395  0.8744 -0.0609
 1333TIP3   OH225489   6.604   4.293  16.151  0.0948  0.0904  0.5074
 1333TIP3    H125490   6.693   4.275  16.120 -0.2793 -0.1250 -0.4530
 1333TIP3    H225491   6.615   4.366  16.212  0.4447  2.7423 -2.6054
 1334TIP3   OH225492   3.320   5.454   0.946  0.0046  0.6484  0.3572
 1334TIP3    H125493   3.341   5.379   0.890 -2.8685  1.3576 -1.7681
 1334TIP3    H225494   3.391   5.516   0.931  1.0109 -0.5522  0.0840
 1335TIP3   OH225495   1.434   2.981  16.312  0.2457  0.0196  0.8093
 1335TIP3    H125496   1.480   3.056  16.273  1.0479  1.2520  3.9523
 1335TIP3    H225497   1.481   2.905  16.278  0.4018  0.9855 -1.2250
 1336TIP3   OH225498   5.519   6.211   3.814 -0.4759  0.6823  0.1643
 1336TIP3    H125499   5.556   6.154   3.747 -0.5368 -0.1901  0.8646
 1336TIP3    H225500   5.424   6.203   3.803 -0.4795  1.6059 -0.5315
 1337TIP3   OH225501   0.743   3.785  10.440  0.7983  0.0464 -0.3230
 1337TIP3    H125502   0.779   3.826  10.361  2.4699 -1.1810 -0.2181
 1337TIP3    H225503   0.684   3.717  10.407 -0.2805  1.0454 -0.4935
 1338TIP3   OH225504   0.548   1.073   0.975  0.1915 -0.0388 -0.0998
 1338TIP3    H125505   0.497   1.082   0.894  0.3780  0.7272 -0.1380
 1338TIP3    H225506   0.639   1.063   0.944  0.3880  1.3009  0.0463
 1339TIP3   OH225507   6.658   0.230  12.019  0.4619  0.0687 -0.3832
 1339TIP3    H125508   6.599   0.289  11.973  0.3521  0.6207  0.4622
 1339TIP3    H225509   6.614   0.145  12.016  0.2346  0.1996 -0.8732
 1340TIP3   OH225510   5.903   3.683   5.360  0.2116  0.1141  0.0865
 1340TIP3    H125511   5.907   3.751   5.292 -0.1454  1.1378  1.0780
 1340TIP3    H225512   5.831   3.626   5.334  0.5064  0.1176 -0.7470
 1341TIP3   OH225513   2.961   3.250  17.211  0.3655 -0.4762  0.4915
 1341TIP3    H125514   2.925   3.317  17.270 -1.4226  1.0713 -2.2289
 1341TIP3    H225515   3.054   3.273  17.204  0.0028  1.0651  0.4525
 1342TIP3   OH225516   4.088   4.152   1.257  0.4539  0.2368  0.0890
 1342TIP3    H125517   4.049   4.072   1.292 -1.9741  0.4231 -2.0223
 1342TIP3    H225518   4.053   4.223   1.310  1.1554  0.0650  0.7872
 1343TIP3   OH225519   1.007   1.882  16.186  0.4797  0.1742 -0.2908
 1343TIP3    H125520   0.983   1.942  16.116  0.1892 -0.5945 -0.8567
 1343TIP3    H225521   0.923   1.857  16.226  0.5254 -0.4898 -0.5946
 1344TIP3   OH225522   1.526   2.521   5.248  0.5085  0.2004  0.5961
 1344TIP3    H125523   1.503   2.532   5.155  0.3988 -1.4181  0.4234
 1344TIP3    H225524   1.622   2.517   5.249  0.5380  0.8779  0.6310
 1345TIP3   OH225525   5.535   0.442  15.789 -0.5011 -0.3877 -0.0852
 1345TIP3    H125526   5.620   0.441  15.746 -0.4502 -0.7787  0.0262
 1345TIP3    H225527   5.496   0.526  15.763 -0.1630 -0.2944 -0.2899
 1346TIP3   OH225528   0.692   3.007  12.845  0.5294 -0.4452 -0.2940
 1346TIP3    H125529   0.695   2.911  12.844 -0.7782 -0.5009 -1.9505
 1346TIP3    H225530   0.680   3.029  12.937 -2.4657 -2.0534 -0.2141
 1347TIP3   OH225531   4.312   1.960  14.698  0.0866 -0.0217  0.2240
 1347TIP3    H125532   4.243   1.921  14.753 -0.7641  1.8045  0.4676
 1347TIP3    H225533   4.390   1.956  14.753 -0.7300  1.6621  1.5626
 1348TIP3   OH225534   1.744   1.490  16.501  0.6923  0.5643  0.7453
 1348TIP3    H125535   1.764   1.420  16.439  0.6641  1.1106  0.1169
 1348TIP3    H225536   1.828   1.535  16.514  0.2549  1.7599 -0.5320
 1349TIP3   OH225537   0.499   0.468   5.815 -0.5109  0.3723  0.1644
 1349TIP3    H125538   0.514   0.374   5.803 -2.6274  0.0554 -0.2980
 1349TIP3    H225539   0.477   0.476   5.908 -0.8739  0.3260  0.0833
 1350TIP3   OH225540   0.875   5.504  11.082 -0.0367 -0.4825  0.3127
 1350TIP3    H125541   0.862   5.597  11.063 -0.7594 -0.5775  0.3401
 1350TIP3    H225542   0.816   5.458  11.023 -0.7598 -0.8615  1.3191
 1351TIP3   OH225543   4.457   4.958  16.784 -0.3154 -0.1090 -0.2282
 1351TIP3    H125544   4.365   4.962  16.761 -1.3156 -1.8758  3.1895
 1351TIP3    H225545   4.475   4.866  16.799  1.3529  0.4609  1.6095
 1352TIP3   OH225546   2.866   3.671   6.435 -0.2541 -0.0138  0.3439
 1352TIP3    H125547   2.777   3.678   6.401 -0.4922 -0.1672  0.9189
 1352TIP3    H225548   2.922   3.686   6.359 -0.7658  0.7603  0.1042
 1353TIP3   OH225549   3.386   2.573  12.788 -0.2525 -0.3691 -0.0844
 1353TIP3    H125550   3.458   2.578  12.724  0.2864 -0.5783  0.5022
 1353TIP3    H225551   3.335   2.653  12.773  0.7055  0.3016  0.2170
 1354TIP3   OH225552   2.820   0.787   3.076  0.3531 -0.0337  0.1245
 1354TIP3    H125553   2.735   0.828   3.089  1.3444  1.8377  0.8471
 1354TIP3    H225554   2.823   0.717   3.142 -0.7615 -0.3734 -0.1712
 1355TIP3   OH225555   6.153   2.806  11.802 -0.1839 -0.0126  0.2765
 1355TIP3    H125556   6.143   2.900  11.817 -0.0004 -0.0777  0.7959
 1355TIP3    H225557   6.105   2.765  11.874 -1.0385 -0.3214 -0.4547
 1356TIP3   OH225558   2.177   1.442  11.084 -0.0777 -0.6797 -0.5036
 1356TIP3    H125559   2.250   1.415  11.029 -1.3121 -2.6064 -1.2770
 1356TIP3    H225560   2.203   1.418  11.172  1.0488  0.5087 -0.5016
 1357TIP3   OH225561   0.230   4.298   3.813 -0.1352  0.3629 -0.6402
 1357TIP3    H125562   0.195   4.246   3.886 -1.6746  0.0958 -1.5490
 1357TIP3    H225563   0.320   4.316   3.838 -0.9385  1.1645  1.8296
 1358TIP3   OH225564   4.552   3.038   6.662 -0.1187 -0.1521 -0.2022
 1358TIP3    H125565   4.598   2.977   6.603  2.1241  2.4792 -1.3026
 1358TIP3    H225566   4.617   3.060   6.728  0.0447  3.0178 -1.3173
 1359TIP3   OH225567   4.028   3.804   2.713 -0.5157 -0.2374  0.1318
 1359TIP3    H125568   4.077   3.844   2.641 -0.7956 -1.5726 -0.8232
 1359TIP3    H225569   3.981   3.877   2.754  0.6782  0.7334 -0.2139
 1360TIP3   OH225570   6.005   1.488   5.822  0.0776  0.4811  0.1756
 1360TIP3    H125571   6.096   1.463   5.842 -0.0890  0.8703  1.4892
 1360TIP3    H225572   5.990   1.567   5.874 -1.1786  0.1330  0.3587
 1361TIP3   OH225573   0.207   6.719  16.204 -0.3301 -0.4315 -0.6564
 1361TIP3    H125574   0.181   6.780  16.273 -1.6423 -1.6326 -0.0608
 1361TIP3    H225575   0.297   6.695  16.226 -0.8801 -1.1360  0.9057
 1362TIP3   OH225576   3.596   4.126   6.045  0.5968  0.4169 -0.0756
 1362TIP3    H125577   3.500   4.119   6.043  0.6953 -1.0197 -0.7178
 1362TIP3    H225578   3.613   4.216   6.072 -0.9379  0.1892  1.7955
 1363TIP3   OH225579   5.641   3.647  15.602  0.1056  0.1560 -0.4483
 1363TIP3    H125580   5.644   3.677  15.693  1.3993  0.5751 -0.6216
 1363TIP3    H225581   5.610   3.724  15.554 -1.9979 -0.4907 -0.2084
 1364TIP3   OH225582   6.668   2.932   6.558  0.4637 -0.4126  0.7256
 1364TIP3    H125583   6.760   2.942   6.534 -0.2314  0.3729 -1.7536
 1364TIP3    H225584   6.639   3.021   6.577 -0.1230 -0.4818  0.1731
 1365TIP3   OH225585   1.328   1.945   4.439 -0.4994  0.2204  0.2308
 1365TIP3    H125586   1.415   1.905   4.448  0.8486  3.0447  0.4329
 1365TIP3    H225587   1.293   1.947   4.528  1.1090  2.9872  0.8579
 1366TIP3   OH225588   2.151   4.768  15.819  0.0469  0.0010  0.2064
 1366TIP3    H125589   2.149   4.757  15.914 -0.8161  2.0922  0.4637
 1366TIP3    H225590   2.062   4.797  15.796  0.4072  0.0749 -1.1646
 1367TIP3   OH225591   2.966   5.107   1.290  1.2866  0.0157  0.3216
 1367TIP3    H125592   2.948   5.027   1.241 -0.8354  0.3009  0.5846
 1367TIP3    H225593   2.929   5.177   1.235  0.4133  0.5059  1.5177
 1368TIP3   OH225594   5.241   0.009   5.546 -0.3934  0.6981  0.0188
 1368TIP3    H125595   5.301  -0.065   5.561  0.5528  0.9981 -2.0944
 1368TIP3    H225596   5.298   0.086   5.548 -0.9772  1.1426 -0.3748
 1369TIP3   OH225597   6.149   3.804  16.291  0.0355  0.1314 -0.0125
 1369TIP3    H125598   6.239   3.772  16.296  0.1769  0.6515  1.0051
 1369TIP3    H225599   6.095   3.726  16.304  0.3392 -0.1974 -0.7285
 1370TIP3   OH225600   0.753   0.041  11.415  0.5830 -0.1935 -0.6982
 1370TIP3    H125601   0.734  -0.031  11.354  0.1043  0.5379 -1.4331
 1370TIP3    H225602   0.839   0.073  11.388  0.9778 -0.7503 -0.1078
 1371TIP3   OH225603   3.923   6.597  11.501 -0.5808 -0.0908  0.1113
 1371TIP3    H125604   3.835   6.582  11.535  0.6525 -3.1932  2.2200
 1371TIP3    H225605   3.945   6.517  11.454  1.3726  0.3496  0.2187
 1372TIP3   OH225606   4.569   3.586  11.682  0.3248  0.4565  0.0320
 1372TIP3    H125607   4.541   3.497  11.661 -0.9941  0.6491  0.8620
 1372TIP3    H225608   4.587   3.584  11.776 -1.2771  1.4405  0.3791
 1373TIP3   OH225609   0.096   5.258   2.617  0.3977  0.4420  0.0855
 1373TIP3    H125610   0.185   5.252   2.581  0.4690 -1.0814  0.4654
 1373TIP3    H225611   0.109   5.284   2.708  0.4614  0.1695  0.1552
 1374TIP3   OH225612   0.653   1.143   2.130 -0.3088  0.1728 -0.4185
 1374TIP3    H125613   0.568   1.182   2.108  0.6716  1.4910 -1.9363
 1374TIP3    H225614   0.701   1.142   2.047  1.7462  0.8784  0.7416
 1375TIP3   OH225615   5.851   5.448   1.517  0.3900 -0.2152 -0.2440
 1375TIP3    H125616   5.825   5.378   1.577 -0.1717 -0.0162 -0.2517
 1375TIP3    H225617   5.914   5.406   1.458  1.8062 -0.1353  1.1591
 1376TIP3   OH225618   4.772   2.092   3.836 -0.1846  0.8074  0.3598
 1376TIP3    H125619   4.845   2.133   3.882 -1.1263  2.3282  0.5354
 1376TIP3    H225620   4.790   2.110   3.743  0.3753 -0.0276  0.3008
 1377TIP3   OH225621   5.664   3.505   4.622 -0.3078 -0.0581  0.1794
 1377TIP3    H125622   5.658   3.600   4.629 -0.0956  0.1025 -1.5644
 1377TIP3    H225623   5.581   3.478   4.583  0.8400 -0.2366 -2.2432
 1378TIP3   OH225624   1.597   3.696  15.788  0.6244  0.3067  0.4166
 1378TIP3    H125625   1.582   3.768  15.849  0.6682  0.9059 -0.2797
 1378TIP3    H225626   1.575   3.731  15.702  0.9041 -0.4258  0.0339
 1379TIP3   OH225627   1.226   1.120   5.425  0.6272  0.6426 -0.8084
 1379TIP3    H125628   1.279   1.190   5.387  1.3396  0.7208  0.2976
 1379TIP3    H225629   1.184   1.161   5.501  2.3628 -0.5360  0.8524
 1380TIP3   OH225630   6.782   4.165   4.289  0.7786  0.5184 -0.2708
 1380TIP3    H125631   6.721   4.098   4.258 -1.0989  1.3235  1.5703
 1380TIP3    H225632   6.863   4.117   4.307 -0.2549 -1.1047  0.1912
 1381TIP3   OH225633   4.880   0.142   0.525 -0.1663  0.4370  0.3891
 1381TIP3    H125634   4.972   0.146   0.498 -0.5151 -1.0276 -1.1716
 1381TIP3    H225635   4.883   0.130   0.619  1.3135 -1.8443  0.0892
 1382TIP3   OH225636   2.290   0.922   4.001 -0.8873 -0.0929 -0.1832
 1382TIP3    H125637   2.218   0.862   3.984 -1.9700  1.2199 -0.3189
 1382TIP3    H225638   2.248   0.999   4.041  0.5537  0.3014  0.6090
 1383TIP3   OH225639   2.832   6.240  10.644  0.3624 -0.2975  0.1427
 1383TIP3    H125640   2.923   6.262  10.664  0.2077 -1.3206  1.9904
 1383TIP3    H225641   2.780   6.301  10.697 -0.0431 -0.4069 -0.1224
 1384TIP3   OH225642   2.530   5.814  12.644 -0.0008  0.0632  0.2864
 1384TIP3    H125643   2.525   5.852  12.732 -2.8330  0.8613 -0.1678
 1384TIP3    H225644   2.454   5.756  12.639  0.9073 -1.0286 -1.1715
 1385TIP3   OH225645   5.037   5.008  14.936  0.3784 -0.0702  0.4222
 1385TIP3    H125646   5.057   4.948  15.008 -0.0241  0.1946  0.7584
 1385TIP3    H225647   5.071   4.965  14.858  0.6477 -0.4481  0.7487
 1386TIP3   OH225648   2.506   3.668   4.053  0.1606 -0.3395 -0.5791
 1386TIP3    H125649   2.478   3.756   4.027  0.5289 -0.1212 -0.2456
 1386TIP3    H225650   2.599   3.665   4.028  0.3723 -0.3282  0.1794
 1387TIP3   OH225651   5.971   5.098   2.542  0.0397 -0.2706  0.5249
 1387TIP3    H125652   5.944   5.008   2.526  2.5207 -1.0625  0.5799
 1387TIP3    H225653   6.065   5.100   2.521  0.3515  1.9328  1.8730
 1388TIP3   OH225654   0.579   2.486   3.417  0.1502 -0.2924 -0.1459
 1388TIP3    H125655   0.612   2.396   3.422  0.2637 -0.2597 -0.3150
 1388TIP3    H225656   0.613   2.519   3.334 -0.2780 -0.2481 -0.3075
 1389TIP3   OH225657   1.433   4.763  15.779 -0.1117  0.4399  0.1498
 1389TIP3    H125658   1.377   4.828  15.820 -3.6668 -0.5491 -2.8226
 1389TIP3    H225659   1.467   4.807  15.701 -1.8334 -0.9044 -1.4016
 1390TIP3   OH225660   2.426   0.659   0.310 -0.3924 -0.0009 -0.0618
 1390TIP3    H125661   2.349   0.604   0.296 -0.4875  0.6606 -2.2015
 1390TIP3    H225662   2.472   0.660   0.226  1.2117  0.7545  0.7879
 1391TIP3   OH225663   6.373   5.796   5.457  0.0614  0.0978 -0.1300
 1391TIP3    H125664   6.416   5.811   5.541 -2.0565  0.4512  0.9406
 1391TIP3    H225665   6.371   5.701   5.447 -0.5485  0.0186  0.7043
 1392TIP3   OH225666   0.607   2.897  12.334 -0.1330  0.6300 -0.0267
 1392TIP3    H125667   0.609   2.894  12.238 -1.4115  0.3334 -0.0508
 1392TIP3    H225668   0.599   2.990  12.354 -1.4381  0.5785 -0.2562
 1393TIP3   OH225669   0.463   4.500  12.009  0.5481 -0.3869 -0.4000
 1393TIP3    H125670   0.406   4.559  11.959 -0.2378  0.9667  2.0141
 1393TIP3    H225671   0.551   4.534  11.994 -0.0107  2.3725  2.0883
 1394TIP3   OH225672   1.742   1.958   5.437  0.1262 -0.3688 -0.7493
 1394TIP3    H125673   1.806   1.953   5.365 -2.2722  0.1030 -2.9895
 1394TIP3    H225674   1.715   2.050   5.438  0.9913 -0.1268  1.5529
 1395TIP3   OH225675   4.098   5.335  14.350 -0.2158  0.2792 -0.1910
 1395TIP3    H125676   4.036   5.298  14.412 -0.6315  1.0940 -0.1041
 1395TIP3    H225677   4.122   5.262  14.293 -0.2452 -0.3426  0.5915
 1396TIP3   OH225678   6.616   3.173  11.770  0.5968 -0.1540  0.2549
 1396TIP3    H125679   6.538   3.164  11.715  0.3518  0.1327  0.5549
 1396TIP3    H225680   6.633   3.267  11.772 -0.2265 -0.0156  1.8163
 1397TIP3   OH225681   5.449   2.743   2.633 -0.2052 -0.3980  0.0545
 1397TIP3    H125682   5.438   2.835   2.607 -0.7672 -0.4074  0.2654
 1397TIP3    H225683   5.482   2.700   2.554 -0.2429 -0.0790 -0.1358
 1398TIP3   OH225684   5.080   1.525  11.546  0.0461 -0.1998  0.4183
 1398TIP3    H125685   5.047   1.564  11.465  1.9590 -0.5123 -0.5555
 1398TIP3    H225686   5.053   1.433  11.542  1.5093 -0.6007 -0.6677
 1399TIP3   OH225687   0.514   2.632   5.073  0.0562  0.0834 -0.4884
 1399TIP3    H125688   0.485   2.561   5.015 -0.3385  2.1788 -2.9313
 1399TIP3    H225689   0.607   2.642   5.055  0.0604  0.3657 -0.3062
 1400TIP3   OH225690   3.542   4.049   1.830  0.6729  0.2027  0.2708
 1400TIP3    H125691   3.632   4.082   1.828  0.3135  1.1428 -2.2987
 1400TIP3    H225692   3.544   3.971   1.775 -0.4410  1.3502 -1.4814
 1401TIP3   OH225693   0.692   2.910   5.556  0.2673 -0.1431  0.0302
 1401TIP3    H125694   0.618   2.920   5.497  0.4189  0.2317 -0.0988
 1401TIP3    H225695   0.699   2.816   5.571  0.7971 -0.3157 -1.2786
 1402TIP3   OH225696   1.250   0.324  14.243 -0.7488  0.0611 -0.3290
 1402TIP3    H125697   1.342   0.300  14.234 -1.2463 -1.9997 -0.1733
 1402TIP3    H225698   1.251   0.419  14.257  1.4658 -0.2329  1.7117
 1403TIP3   OH225699   1.018   4.354   2.275  0.0031  0.4384  0.0490
 1403TIP3    H125700   1.107   4.369   2.307 -0.0189  0.8358 -0.0696
 1403TIP3    H225701   1.025   4.274   2.223  0.4806  0.9412 -0.6878
 1404TIP3   OH225702   3.710   5.229  16.008  0.3702 -0.2992 -0.1529
 1404TIP3    H125703   3.743   5.217  16.097 -1.7130 -1.0999  0.5519
 1404TIP3    H225704   3.714   5.324  15.993 -0.2993 -0.0511  1.2146
 1405TIP3   OH225705   4.368   2.124   5.863  0.6788 -0.4416 -0.0094
 1405TIP3    H125706   4.342   2.037   5.831  2.5820 -0.9502 -0.2113
 1405TIP3    H225707   4.462   2.117   5.880  0.6201  1.2317  1.1495
 1406TIP3   OH225708   5.420   5.211   0.021  0.7150  0.0243  0.6037
 1406TIP3    H125709   5.443   5.295  -0.021 -0.7778  0.9512  1.5976
 1406TIP3    H225710   5.489   5.151  -0.008  1.1161  1.2687 -1.1549
 1407TIP3   OH225711   5.232   1.285   2.526 -0.0867 -0.5182  0.4264
 1407TIP3    H125712   5.295   1.345   2.485  0.8226 -2.2652 -0.8213
 1407TIP3    H225713   5.276   1.199   2.523 -2.0816 -1.5670  0.5469
 1408TIP3   OH225714   0.113   1.785   5.981 -1.3313  0.7548 -0.6110
 1408TIP3    H125715   0.159   1.703   5.995 -1.1270  0.5076 -2.5564
 1408TIP3    H225716   0.106   1.824   6.068  0.2512 -0.4244  0.0661
 1409TIP3   OH225717   4.904   5.920  12.609 -0.0074 -0.1208  0.0804
 1409TIP3    H125718   4.899   5.888  12.699  0.6843  2.0373  0.9285
 1409TIP3    H225719   4.991   5.960  12.603 -0.8142  1.5194 -0.9262
 1410TIP3   OH225720   2.568   1.259  17.188  0.2151 -0.7004  0.1867
 1410TIP3    H125721   2.596   1.175  17.225  0.4623 -0.4555  0.5612
 1410TIP3    H225722   2.551   1.241  17.096  0.5538 -1.0963  0.2010
 1411TIP3   OH225723   4.976   1.138   5.867  0.0683  0.3500 -0.0240
 1411TIP3    H125724   5.005   1.227   5.889  0.9852  0.5071 -1.7547
 1411TIP3    H225725   4.895   1.151   5.818 -0.5083  0.1607  0.8851
 1412TIP3   OH225726   1.772   1.153   1.078 -0.4493 -0.3814 -0.2400
 1412TIP3    H125727   1.751   1.074   1.129  1.2810 -0.1590  0.8794
 1412TIP3    H225728   1.720   1.222   1.120 -2.3857 -0.9768 -1.5593
 1413TIP3   OH225729   4.443   3.423  16.323  0.7238  0.1611 -0.0219
 1413TIP3    H125730   4.528   3.379  16.328  0.3266 -0.4349  1.6034
 1413TIP3    H225731   4.385   3.372  16.380 -0.6240  0.8077 -0.7761
 1414TIP3   OH225732   4.621   2.853  13.550  0.1757  0.1698 -0.3362
 1414TIP3    H125733   4.572   2.849  13.467 -0.7514  0.6371  0.1861
 1414TIP3    H225734   4.614   2.764  13.585  0.8341 -0.1141 -0.9034
 1415TIP3   OH225735   0.040   5.275   2.900  0.2909 -0.2118 -0.3397
 1415TIP3    H125736  -0.036   5.325   2.869 -0.1178 -1.4099 -1.3365
 1415TIP3    H225737   0.003   5.208   2.957  0.7707  0.2307  0.4938
 1416TIP3   OH225738   4.985   6.665   0.163  0.3566 -0.2450 -0.2510
 1416TIP3    H125739   4.930   6.623   0.097 -0.4722 -0.6526  0.7069
 1416TIP3    H225740   5.074   6.660   0.126  0.1886 -2.2584 -0.4437
 1417TIP3   OH225741   0.055   1.154  11.572 -0.1399  0.5172  0.4492
 1417TIP3    H125742   0.149   1.176  11.576 -0.2770  1.0371  0.8597
 1417TIP3    H225743   0.052   1.073  11.521  0.3944  1.3919 -1.0045
 1418TIP3   OH225744   3.966   1.696   1.540 -0.4184  0.0454  0.3560
 1418TIP3    H125745   3.893   1.728   1.488  0.0431  2.2832  1.0422
 1418TIP3    H225746   3.926   1.673   1.624 -0.6784 -0.7879  0.0090
 1419TIP3   OH225747   6.732   0.337  14.155  0.1132  0.4561  0.0954
 1419TIP3    H125748   6.808   0.314  14.209  0.2200 -0.9429 -0.6420
 1419TIP3    H225749   6.760   0.415  14.107  0.7855  0.4211  0.4264
 1420TIP3   OH225750   6.227   1.222   5.654  0.5794 -0.1182 -0.2908
 1420TIP3    H125751   6.153   1.245   5.598  0.1672 -0.3898  0.1504
 1420TIP3    H225752   6.220   1.281   5.729  0.5400 -0.4632 -0.0220
 1421TIP3   OH225753   0.173   4.068   1.636 -0.3197  0.0831 -0.1171
 1421TIP3    H125754   0.197   3.986   1.594 -0.8605 -1.6422  2.7838
 1421TIP3    H225755   0.082   4.082   1.612 -0.7423 -1.1006  0.7360
 1422TIP3   OH225756   0.367   0.013  11.354  0.0726  0.6376 -0.0738
 1422TIP3    H125757   0.328  -0.052  11.412  0.8045  0.8177  0.6167
 1422TIP3    H225758   0.297   0.035  11.292 -1.4169  2.0691  2.0693
 1423TIP3   OH225759   2.892   4.954  11.334 -0.0013 -0.2702 -0.2688
 1423TIP3    H125760   2.979   4.915  11.327  0.6634  1.1510 -0.1685
 1423TIP3    H225761   2.908   5.048  11.333 -1.4920  0.0066  0.3462
 1424TIP3   OH225762   4.798   6.029  14.319  0.1926  0.0716  0.5904
 1424TIP3    H125763   4.760   5.942  14.330  2.4458 -1.2903 -1.9413
 1424TIP3    H225764   4.722   6.087  14.311 -1.3299 -1.7556  1.5005
 1425TIP3   OH225765   0.014   0.079   0.207 -0.0548  0.2234 -0.2045
 1425TIP3    H125766  -0.064   0.047   0.162 -0.8128  0.4157  0.9419
 1425TIP3    H225767   0.067   0.119   0.138 -1.9182  1.9354 -0.7064
 1426TIP3   OH225768   1.510   0.530   1.628  0.6699 -0.0025 -0.3888
 1426TIP3    H125769   1.463   0.610   1.651  0.4037  0.5714 -2.7719
 1426TIP3    H225770   1.493   0.470   1.700 -1.4391  1.1554  0.1017
 1427TIP3   OH225771   3.214   0.367  11.762 -0.5122 -0.3898 -0.5974
 1427TIP3    H125772   3.304   0.390  11.740 -0.2157 -0.7054  0.2547
 1427TIP3    H225773   3.162   0.443  11.735 -0.1075 -0.5581 -1.8968
 1428TIP3   OH225774   4.388   1.581  12.709 -0.3973 -0.2798  0.2103
 1428TIP3    H125775   4.321   1.609  12.647  0.6497  0.7296 -0.4909
 1428TIP3    H225776   4.385   1.647  12.778 -0.3981 -0.4568  0.3801
 1429TIP3   OH225777   2.038   1.023   1.653 -0.6098 -0.1214 -0.3643
 1429TIP3    H125778   1.984   0.981   1.720 -0.4537  1.4986  0.8018
 1429TIP3    H225779   1.979   1.035   1.579 -1.3538 -0.0495  0.2305
 1430TIP3   OH225780   3.629   1.052  14.466 -0.3533  0.0646  0.4763
 1430TIP3    H125781   3.565   0.985  14.491  0.2610 -0.4026  0.8076
 1430TIP3    H225782   3.634   1.110  14.541 -1.3401  0.8427 -0.0443
 1431TIP3   OH225783   6.479   0.973   6.973  0.3405 -0.0263 -0.3303
 1431TIP3    H125784   6.443   0.884   6.974  2.6035 -0.9733 -1.2983
 1431TIP3    H225785   6.527   0.979   6.891 -0.3601  2.3560 -0.6187
 1432TIP3   OH225786   5.325   1.811  12.727 -0.6803 -0.0100  0.1863
 1432TIP3    H125787   5.300   1.830  12.818 -0.2632 -1.0230  0.5115
 1432TIP3    H225788   5.335   1.716  12.724 -1.5277 -0.0599 -1.1370
 1433TIP3   OH225789   3.378   0.160   3.546  0.5379 -0.0544  0.2980
 1433TIP3    H125790   3.431   0.239   3.541  1.1540 -0.4438  0.5349
 1433TIP3    H225791   3.424   0.105   3.610 -1.2716  0.4362  2.0613
 1434TIP3   OH225792   4.964   6.374  12.038  0.0194  0.1426  0.1963
 1434TIP3    H125793   5.036   6.415  12.085 -0.5790  1.0892  0.2904
 1434TIP3    H225794   4.910   6.447  12.007 -0.7477 -0.5473 -0.1151
 1435TIP3   OH225795   1.562   0.017  16.196 -0.2792 -0.5504  0.3918
 1435TIP3    H125796   1.508   0.085  16.237 -1.8939 -1.7234  0.2692
 1435TIP3    H225797   1.504  -0.025  16.133  0.8052 -1.7787  0.1794
 1436TIP3   OH225798   1.323   2.045  16.710 -0.5367 -0.0632  0.1418
 1436TIP3    H125799   1.234   2.028  16.681 -0.6834 -1.0516  1.1477
 1436TIP3    H225800   1.337   1.985  16.783  1.3533 -0.7684 -0.7455
 1437TIP3   OH225801   3.606   4.507   0.936 -0.0057 -0.5158  0.0194
 1437TIP3    H125802   3.679   4.448   0.918 -0.0598 -0.8189  0.7950
 1437TIP3    H225803   3.555   4.463   1.004  1.4792  1.6786  2.6363
 1438TIP3   OH225804   3.390   2.696   1.730 -0.1714  0.5568  0.2833
 1438TIP3    H125805   3.332   2.635   1.776  0.1859  0.7756  1.0271
 1438TIP3    H225806   3.335   2.734   1.662 -0.1255 -1.3675 -0.8741
 1439TIP3   OH225807   3.379   4.023  14.812  0.3208 -0.4216  0.3610
 1439TIP3    H125808   3.465   4.058  14.790 -0.9135  1.6513 -1.3753
 1439TIP3    H225809   3.347   4.080  14.882 -0.2688 -0.2033 -0.0764
 1440TIP3   OH225810   3.353   5.652  14.704 -0.7733 -0.4464  1.0026
 1440TIP3    H125811   3.382   5.569  14.742  0.0505 -0.2703  0.7754
 1440TIP3    H225812   3.333   5.708  14.779  0.7733 -0.1227  1.1897
 1441TIP3   OH225813   1.002   4.739  12.833 -0.2743 -0.3806 -0.9304
 1441TIP3    H125814   0.952   4.715  12.911  0.1958  1.5445 -0.0012
 1441TIP3    H225815   1.045   4.658  12.807  1.2348 -0.6371  2.0559
 1442TIP3   OH225816   2.305   1.458   0.856 -0.6303  0.4127 -0.3526
 1442TIP3    H125817   2.355   1.505   0.790 -2.0818  1.6635 -0.5872
 1442TIP3    H225818   2.255   1.393   0.806  0.3776 -0.5133 -0.1708
 1443TIP3   OH225819   0.704   2.731  16.343 -0.0375  0.4609 -0.4539
 1443TIP3    H125820   0.766   2.783  16.291  0.2942  0.3982 -0.1226
 1443TIP3    H225821   0.653   2.684  16.278  0.1030  0.6947 -0.7388
 1444TIP3   OH225822   4.397   5.530   2.181  0.6885  0.0897  0.1532
 1444TIP3    H125823   4.303   5.523   2.192  0.8037  0.9047  1.8929
 1444TIP3    H225824   4.409   5.596   2.113 -0.0092 -1.2729 -1.3093
 1445TIP3   OH225825   3.193   5.368   1.305  0.2527  0.4190 -0.0775
 1445TIP3    H125826   3.122   5.324   1.351  0.2935  0.1123 -0.3127
 1445TIP3    H225827   3.272   5.345   1.355  0.0620  1.6086  0.8050
 1446TIP3   OH225828   2.767   1.830   3.804 -0.2824  0.8668 -0.8340
 1446TIP3    H125829   2.736   1.783   3.727  1.4572 -0.7270 -0.6044
 1446TIP3    H225830   2.833   1.891   3.771 -0.0600  0.6965 -0.7112
 1447TIP3   OH225831   0.290   2.817  12.084  0.2214  0.1310 -0.1820
 1447TIP3    H125832   0.237   2.815  12.164  0.0120  0.9211 -0.3010
 1447TIP3    H225833   0.352   2.888  12.097  0.2175  0.2360 -0.7074
 1448TIP3   OH225834   0.869   2.323   1.452  0.1244  0.0224 -0.2654
 1448TIP3    H125835   0.876   2.272   1.371  1.8227  0.0220 -0.1314
 1448TIP3    H225836   0.790   2.376   1.440 -0.4201 -1.0143 -1.3290
 1449TIP3   OH225837   1.789   0.097  14.609  0.0720  0.5498  0.2780
 1449TIP3    H125838   1.703   0.116  14.570 -0.1130 -0.6321  0.0973
 1449TIP3    H225839   1.849   0.100  14.535  0.3491  2.3576  0.5586
 1450TIP3   OH225840   2.507   3.073   3.823  0.4009  0.3860 -0.2171
 1450TIP3    H125841   2.431   3.130   3.825  1.6121  2.1162 -1.8056
 1450TIP3    H225842   2.578   3.126   3.859  1.1758 -0.7241 -0.0675
 1451TIP3   OH225843   2.030   6.580   4.651 -0.0728  0.1531 -0.0172
 1451TIP3    H125844   1.985   6.626   4.581 -0.0769  0.1965  0.0136
 1451TIP3    H225845   2.020   6.637   4.727 -3.5775 -1.7755  1.0492
 1452TIP3   OH225846   6.093   3.024   2.353 -0.2925  0.4191 -0.6025
 1452TIP3    H125847   6.072   3.011   2.261  1.6372 -0.5686 -0.9412
 1452TIP3    H225848   6.165   2.962   2.370 -1.5356 -0.4122  1.9269
 1453TIP3   OH225849   0.381   2.521  17.079 -0.5412  0.1307  0.2912
 1453TIP3    H125850   0.323   2.519  17.155 -0.3492 -0.1508  0.4278
 1453TIP3    H225851   0.452   2.580  17.105 -1.7744  2.0690 -0.5880
 1454TIP3   OH225852   2.023   6.813   6.194 -0.4785  0.2478  1.0748
 1454TIP3    H125853   1.993   6.903   6.191 -0.1714  0.3712  1.5863
 1454TIP3    H225854   1.988   6.773   6.115 -0.9949  0.6953  1.0739
 1455TIP3   OH225855   0.943   6.707   3.566 -0.1923 -0.8230 -0.1698
 1455TIP3    H125856   0.898   6.709   3.651 -0.9786  0.5774 -0.6024
 1455TIP3    H225857   0.878   6.670   3.506 -0.4227  0.2528 -0.5944
 1456TIP3   OH225858   2.595   4.303   0.650 -0.1754  0.0203  0.5969
 1456TIP3    H125859   2.628   4.381   0.606  0.6822 -1.0556 -0.7357
 1456TIP3    H225860   2.521   4.275   0.597  1.2044 -1.5969 -0.5427
 1457TIP3   OH225861   3.923   1.633  17.097  0.1941  0.6149 -0.3927
 1457TIP3    H125862   3.868   1.639  17.176 -0.8445  1.3374 -1.1556
 1457TIP3    H225863   3.948   1.724  17.079  1.2177  0.3434 -0.3465
 1458TIP3   OH225864   4.526   1.411   5.356  0.6478  0.1562 -0.0866
 1458TIP3    H125865   4.444   1.365   5.342  0.3269  0.4774  0.6911
 1458TIP3    H225866   4.585   1.345   5.393  1.6989 -0.8601 -3.4301
 1459TIP3   OH225867   5.435   1.244  15.300  0.6151 -0.1058 -0.1305
 1459TIP3    H125868   5.507   1.200  15.345 -0.8731 -0.8911  1.5783
 1459TIP3    H225869   5.427   1.329  15.344  0.8201  0.1862 -0.6530
 1460TIP3   OH225870   2.435   5.582  13.534  0.3377 -0.3332 -0.5281
 1460TIP3    H125871   2.455   5.492  13.559  2.0522  1.1060  3.7810
 1460TIP3    H225872   2.520   5.620  13.512  0.2802  1.2980  1.7835
 1461TIP3   OH225873   3.728   4.741  13.114 -0.1717  0.1874 -0.3772
 1461TIP3    H125874   3.703   4.784  13.196  1.6014  0.9149 -0.2006
 1461TIP3    H225875   3.821   4.762  13.103 -0.0400 -1.0766 -1.8553
 1462TIP3   OH225876   5.743   2.992  13.744 -0.4403 -0.0167 -0.0530
 1462TIP3    H125877   5.823   3.030  13.708 -1.8856  0.6084 -2.7975
 1462TIP3    H225878   5.694   3.067  13.777 -0.4319 -0.2496  0.4845
 1463TIP3   OH225879   1.715   4.193  12.420 -0.2052  0.5196  0.1471
 1463TIP3    H125880   1.671   4.238  12.492 -1.5213  0.8884 -0.8680
 1463TIP3    H225881   1.647   4.136  12.383  1.0889 -1.3604  0.6090
 1464TIP3   OH225882   6.482   5.598  14.349  0.0883  0.6515  0.4194
 1464TIP3    H125883   6.578   5.605  14.344  0.3092 -1.7108  1.0918
 1464TIP3    H225884   6.452   5.627  14.263  1.4403  0.9349  0.0279
 1465TIP3   OH225885   0.689   4.130  12.554  0.2677 -0.4630 -1.2872
 1465TIP3    H125886   0.636   4.199  12.515  2.1734  0.9868 -1.3846
 1465TIP3    H225887   0.719   4.079  12.479 -1.2214 -1.4875 -1.2094
 1466TIP3   OH225888   4.575   1.793  14.171  0.4157  0.7926 -0.2431
 1466TIP3    H125889   4.489   1.830  14.191  0.6615  0.2158  2.0147
 1466TIP3    H225890   4.559   1.731  14.101 -1.2361 -0.1888  0.9664
 1467TIP3   OH225891   5.993   4.562   4.932 -0.0477 -0.1538  0.2772
 1467TIP3    H125892   5.982   4.584   5.025 -0.7114  0.4188  0.0652
 1467TIP3    H225893   6.066   4.499   4.931  0.4809  0.4395  1.1019
 1468TIP3   OH225894   2.180   5.866  13.926  0.0708 -0.1074  0.0606
 1468TIP3    H125895   2.232   5.809  13.870 -0.1728 -0.2707 -0.0039
 1468TIP3    H225896   2.168   5.816  14.007 -1.6816 -0.9281 -0.6667
 1469TIP3   OH225897   0.067   0.100   2.268 -0.0320 -0.6115  0.3164
 1469TIP3    H125898   0.119   0.048   2.207  0.9740  0.1884  0.4857
 1469TIP3    H225899  -0.013   0.048   2.281  1.2662 -2.4879  1.0744
 1470TIP3   OH225900   1.479   0.181  17.102  0.1424  0.2594 -0.4437
 1470TIP3    H125901   1.567   0.215  17.090 -0.3577  0.6426 -3.6434
 1470TIP3    H225902   1.484   0.090  17.072 -0.6885  0.5239 -1.4303
 1471TIP3   OH225903   1.277   3.867  13.927 -0.6445  0.0334 -0.3743
 1471TIP3    H125904   1.319   3.953  13.933  0.8011 -0.6883 -0.1167
 1471TIP3    H225905   1.185   3.887  13.909 -0.3190  1.6362 -0.3170
 1472TIP3   OH225906   1.874   0.641  12.211 -0.2083  0.6474  0.0956
 1472TIP3    H125907   1.955   0.691  12.222 -0.6587  1.0779  1.6386
 1472TIP3    H225908   1.823   0.692  12.147  0.6726  0.4576 -0.7549
 1473TIP3   OH225909   4.833   0.542   1.239 -0.8019 -0.1606  0.0289
 1473TIP3    H125910   4.898   0.612   1.238  0.3899 -1.2621  0.3793
 1473TIP3    H225911   4.753   0.584   1.205  0.2715  0.9885 -1.1317
 1474TIP3   OH225912   2.730   5.416   1.076  0.4199 -0.1236  0.5959
 1474TIP3    H125913   2.651   5.400   1.128 -0.2622 -2.3032 -1.0218
 1474TIP3    H225914   2.775   5.331   1.075  1.4269  0.4170 -0.6815
 1475TIP3   OH225915   2.805   4.859   4.197 -0.5065 -0.5611  0.4497
 1475TIP3    H125916   2.757   4.940   4.217 -0.6671 -0.4190 -0.4550
 1475TIP3    H225917   2.851   4.878   4.115  0.8593 -0.8079  1.1429
 1476TIP3   OH225918   4.917   6.225   1.618 -0.4016  0.0975 -0.0244
 1476TIP3    H125919   4.957   6.197   1.536 -0.9385 -0.4449 -0.1002
 1476TIP3    H225920   4.972   6.186   1.686  0.9705  1.8323 -0.1060
 1477TIP3   OH225921   4.682   0.824  17.264 -0.5788 -0.3126 -0.2658
 1477TIP3    H125922   4.613   0.759  17.278  0.6252 -1.3909  0.8102
 1477TIP3    H225923   4.636   0.908  17.266 -2.0168 -1.0638 -0.7012
 1478TIP3   OH225924   5.186   0.381  13.916  0.3382  0.2147 -0.5515
 1478TIP3    H125925   5.129   0.304  13.905 -0.8839  1.3123 -2.1185
 1478TIP3    H225926   5.248   0.376  13.844  0.6535  0.3723 -0.2935
 1479TIP3   OH225927   5.484   0.829   3.283  0.6475 -0.1500  0.0750
 1479TIP3    H125928   5.551   0.809   3.218  1.8910  1.3715  0.8494
 1479TIP3    H225929   5.495   0.763   3.351  0.3363 -0.8292 -0.5295
 1480TIP3   OH225930   4.862   4.365  16.299  0.8607 -0.4710 -0.2340
 1480TIP3    H125931   4.775   4.349  16.337 -0.5348  0.8487 -2.7484
 1480TIP3    H225932   4.923   4.322  16.359 -1.4699 -0.7700  1.9809
 1481TIP3   OH225933   5.358   5.560  15.476 -0.3116 -0.5329  0.1768
 1481TIP3    H125934   5.304   5.513  15.412 -1.6891  0.7134  0.4055
 1481TIP3    H225935   5.429   5.499  15.496  0.4628 -0.7418 -2.9409
 1482TIP3   OH225936   5.412   2.383   1.210 -0.2985 -0.4051 -0.1570
 1482TIP3    H125937   5.360   2.463   1.201 -0.5436 -0.3079  2.0290
 1482TIP3    H225938   5.348   2.312   1.202 -0.3002 -0.3634 -0.5497
 1483TIP3   OH225939   3.016   4.885  17.278 -0.2098 -0.4817  0.1882
 1483TIP3    H125940   2.941   4.843  17.321  1.5370 -2.1913  1.6173
 1483TIP3    H225941   3.092   4.854  17.327  1.5695  0.0004 -2.2166
 1484TIP3   OH225942   6.216   3.152   3.862 -0.1211 -0.0248 -0.0259
 1484TIP3    H125943   6.174   3.108   3.788 -0.8448  2.2631 -1.0391
 1484TIP3    H225944   6.297   3.104   3.876 -0.8507 -1.6209 -1.1127
 1485TIP3   OH225945   6.198   5.197  16.468 -0.1048 -0.6436  0.0442
 1485TIP3    H125946   6.291   5.215  16.455 -0.1222 -1.1158 -0.7666
 1485TIP3    H225947   6.193   5.102  16.475 -0.5776 -0.6514 -0.3688
 1486TIP3   OH225948   3.218   6.208   3.221 -0.3236  0.1012  0.0437
 1486TIP3    H125949   3.131   6.246   3.207  0.1040  0.4635 -1.7413
 1486TIP3    H225950   3.232   6.214   3.315 -1.7130  1.1740  0.1970
 1487TIP3   OH225951   0.630   2.306  15.838  0.0913  0.2898 -0.1793
 1487TIP3    H125952   0.676   2.353  15.768  0.9446 -0.7540 -0.3391
 1487TIP3    H225953   0.663   2.216  15.832 -0.5018 -0.0167  0.9839
 1488TIP3   OH225954   1.040   4.575  14.639  0.4201  0.7152 -0.0773
 1488TIP3    H125955   1.088   4.643  14.592  0.9423  0.3581 -0.0669
 1488TIP3    H225956   1.107   4.511  14.663 -0.1337  0.0067 -0.4210
 1489TIP3   OH225957   2.060   5.778   1.757  0.1886  0.0745 -0.4493
 1489TIP3    H125958   2.075   5.712   1.690  0.7341  0.0001 -0.2582
 1489TIP3    H225959   2.091   5.860   1.718  1.0261 -0.0630 -0.0899
 1490TIP3   OH225960   0.654   3.406  14.807  0.0406 -0.4638 -0.3697
 1490TIP3    H125961   0.625   3.415  14.716 -1.3015  1.1782  0.2030
 1490TIP3    H225962   0.600   3.335  14.842 -1.1508  0.4954 -0.2015
 1491TIP3   OH225963   5.683   4.490  13.259  0.4148 -0.5224 -0.1611
 1491TIP3    H125964   5.685   4.426  13.330  5.1601 -0.8393 -0.4353
 1491TIP3    H225965   5.717   4.444  13.183  1.8780  1.7121 -0.9078
 1492TIP3   OH225966   2.208   5.042   0.888 -0.2649  0.1967 -0.3474
 1492TIP3    H125967   2.278   4.981   0.863  1.4766  2.5453 -1.4829
 1492TIP3    H225968   2.184   5.086   0.806 -0.5709  1.9189  0.6302
 1493TIP3   OH225969   6.672   2.785  14.907 -0.1093 -0.3341 -0.1915
 1493TIP3    H125970   6.678   2.787  15.003  0.5941 -1.6711 -0.2032
 1493TIP3    H225971   6.715   2.866  14.879  0.6650 -0.4728  0.5780
 1494TIP3   OH225972   6.351   1.592  12.499  0.3706 -0.3397  0.0870
 1494TIP3    H125973   6.385   1.677  12.469 -1.3998  0.8910  1.4398
 1494TIP3    H225974   6.428   1.544  12.528  1.2895  1.1732  0.1960
 1495TIP3   OH225975   3.832   0.300  11.278 -0.2590 -0.3318 -0.2279
 1495TIP3    H125976   3.880   0.226  11.315  0.0054  0.0553  0.2151
 1495TIP3    H225977   3.813   0.274  11.188  2.4009  0.2254 -1.0026
 1496TIP3   OH225978   0.582   4.108  16.590  0.1303 -0.3227 -0.3515
 1496TIP3    H125979   0.508   4.048  16.572 -0.9160  0.9709 -0.4202
 1496TIP3    H225980   0.580   4.120  16.685 -1.9737  2.4660 -0.6783
 1497TIP3   OH225981   4.315   5.657  14.322 -0.7651  0.3250 -0.2881
 1497TIP3    H125982   4.328   5.641  14.416  0.3208  0.3121 -0.4354
 1497TIP3    H225983   4.224   5.686  14.315 -1.0396 -0.2849  0.6941
 1498TIP3   OH225984   2.846   3.573   4.297 -0.0941 -0.1098 -0.0320
 1498TIP3    H125985   2.809   3.543   4.213  2.7580 -0.9719 -1.0280
 1498TIP3    H225986   2.899   3.649   4.274 -0.6477  0.6739  1.2613
 1499TIP3   OH225987   3.551   1.492  11.679  0.8350  0.1010 -0.1535
 1499TIP3    H125988   3.459   1.503  11.701  0.6896  0.5022 -0.9253
 1499TIP3    H225989   3.575   1.406  11.715  0.3153  0.2501  0.5397
 1500TIP3   OH225990   2.865   1.263  13.614 -0.0373  0.5563 -0.3470
 1500TIP3    H125991   2.819   1.312  13.546 -0.8711  0.1369 -0.0992
 1500TIP3    H225992   2.943   1.315  13.633  0.0993  0.7773 -1.4760
 1501TIP3   OH225993   6.376   6.033   6.865  0.1970 -0.3528  0.0994
 1501TIP3    H125994   6.350   6.081   6.787  0.9415 -1.7667 -1.0347
 1501TIP3    H225995   6.298   5.983   6.890 -0.8231  1.9307  1.7169
 1502TIP3   OH225996   6.080   2.696  15.398 -0.2729 -0.7396  0.2574
 1502TIP3    H125997   6.000   2.710  15.348 -0.9923 -2.8541  0.7437
 1502TIP3    H225998   6.104   2.605  15.380  1.9045 -0.2218  0.3109
 1503TIP3   OH225999   6.338   6.689  12.303 -0.0656  0.2414 -0.7564
 1503TIP3    H126000   6.433   6.686  12.310 -0.1528  1.0785  0.9981
 1503TIP3    H226001   6.320   6.772  12.259 -0.0837  1.3690  1.3334
 1504TIP3   OH226002   3.830   2.544  11.065  0.0741 -0.4163  0.2073
 1504TIP3    H126003   3.867   2.508  10.984 -3.8778 -0.9464 -1.5379
 1504TIP3    H226004   3.797   2.468  11.112 -0.9229  0.1672  0.4860
 1505TIP3   OH226005   5.717   4.039  17.156 -0.0899 -0.7019  0.2415
 1505TIP3    H126006   5.740   3.946  17.155 -1.2212 -0.9793 -1.4556
 1505TIP3    H226007   5.639   4.046  17.101  0.2613  1.3192 -0.0533
 1506TIP3   OH226008   4.904   6.329  13.274  0.2127  0.5914  0.7291
 1506TIP3    H126009   4.922   6.374  13.191 -1.5723  0.8973  0.4880
 1506TIP3    H226010   4.936   6.389  13.341 -0.2900  1.3052  0.3367
 1507TIP3   OH226011   3.209   4.721  16.180  0.2501 -0.3237  0.0921
 1507TIP3    H126012   3.173   4.715  16.268  0.5728  0.1152  0.2533
 1507TIP3    H226013   3.208   4.814  16.159  1.5076 -0.2737  0.1932
 1508TIP3   OH226014   5.742   6.036  17.046  0.3892  0.6435 -0.4118
 1508TIP3    H126015   5.835   6.056  17.036 -0.0755  1.8475 -2.3903
 1508TIP3    H226016   5.732   5.949  17.007  0.6248  0.6502 -0.4876
 1509TIP3   OH226017   5.866   0.321   1.818  0.0860 -0.0361  0.2045
 1509TIP3    H126018   5.944   0.369   1.844 -0.7725  1.6275 -0.2193
 1509TIP3    H226019   5.895   0.265   1.746  0.7282  1.1169 -0.4417
 1510TIP3   OH226020   1.581   0.911   0.666  0.5875  0.1382 -0.4185
 1510TIP3    H126021   1.494   0.874   0.680  1.1324 -0.6038  1.1673
 1510TIP3    H226022   1.573   1.002   0.694 -0.2569  0.7193 -2.4848
 1511TIP3   OH226023   3.384   0.657  11.542  0.2028 -0.0060 -0.0894
 1511TIP3    H126024   3.398   0.702  11.458 -1.4794  0.4016 -0.1579
 1511TIP3    H226025   3.393   0.726  11.608  1.5403 -0.3298  0.0892
 1512TIP3   OH226026   6.309   2.489  15.975 -0.4782 -0.1220  0.6267
 1512TIP3    H126027   6.284   2.403  15.941 -0.2444  0.2827 -0.5929
 1512TIP3    H226028   6.233   2.544  15.958  0.2037  0.4419 -0.5682
 1513TIP3   OH226029   1.622   4.018   4.281 -0.4719  0.0883  0.1482
 1513TIP3    H126030   1.550   3.979   4.331  0.0663 -0.7928  0.2349
 1513TIP3    H226031   1.594   4.011   4.190 -0.6570  0.0724  0.2056
 1514TIP3   OH226032   5.953   3.943  11.755  0.5135 -0.1065  0.1980
 1514TIP3    H126033   5.862   3.919  11.740  1.1317 -3.6741  1.7613
 1514TIP3    H226034   5.955   3.971  11.847  1.2248 -1.3894  0.5881
 1515TIP3   OH226035   6.010   6.410  12.534 -0.1294 -0.6558 -0.0731
 1515TIP3    H126036   6.056   6.419  12.451  0.0102 -1.3290 -0.0720
 1515TIP3    H226037   5.998   6.500  12.565  0.8976 -0.4695 -0.2218
 1516TIP3   OH226038   0.976   5.114  11.750 -0.0904 -0.1558 -0.1148
 1516TIP3    H126039   1.003   5.175  11.819  1.4241  0.7686 -1.5174
 1516TIP3    H226040   1.055   5.065  11.729 -0.8334 -1.2340 -0.4034
 1517TIP3   OH226041   6.569   1.800  15.016 -0.0517  0.4962  0.0320
 1517TIP3    H126042   6.647   1.852  15.036  0.9278 -1.7057  2.2420
 1517TIP3    H226043   6.527   1.786  15.100  1.1774 -4.4444  0.0336
 1518TIP3   OH226044   2.318   1.696   3.835 -0.0389 -0.1347  0.1366
 1518TIP3    H126045   2.363   1.765   3.786 -0.1392 -0.5290 -0.5282
 1518TIP3    H226046   2.350   1.615   3.796 -1.4399 -0.4133 -0.4636
 1519TIP3   OH226047   2.792   1.650   5.558  0.4506 -0.7106  0.6428
 1519TIP3    H126048   2.742   1.676   5.480  1.4731 -0.1962  0.1415
 1519TIP3    H226049   2.805   1.732   5.606  1.5987 -0.6816  0.2935
 1520TIP3   OH226050   6.049   3.415  16.545  0.1949 -0.2090  0.9680
 1520TIP3    H126051   5.992   3.346  16.578  0.6957 -0.7182  0.7829
 1520TIP3    H226052   6.082   3.459  16.624  2.8265 -2.5841  1.2702
 1521TIP3   OH226053   6.515   1.552  13.968  0.0628  0.5908  0.0531
 1521TIP3    H126054   6.515   1.648  13.970  0.3045  0.5863  0.2911
 1521TIP3    H226055   6.541   1.529  13.879 -1.4631  0.7565 -0.4608
 1522TIP3   OH226056   5.006   3.810   5.285 -0.0840 -0.1435 -0.1112
 1522TIP3    H126057   4.978   3.719   5.291 -0.7615 -0.0289 -1.2469
 1522TIP3    H226058   4.955   3.855   5.353 -0.8643 -0.3697 -0.5304
 1523TIP3   OH226059   1.382   5.450   5.503 -0.0645  0.3126  0.3416
 1523TIP3    H126060   1.356   5.541   5.492 -1.7139 -0.3124 -1.3366
 1523TIP3    H226061   1.475   5.453   5.524  0.0091  2.3574 -0.2138
 1524TIP3   OH226062   5.430   3.581   5.417 -0.3363  0.0540 -0.3162
 1524TIP3    H126063   5.365   3.631   5.466  0.9446  1.4638 -0.0377
 1524TIP3    H226064   5.415   3.490   5.443 -0.1333  0.7037  2.1850
 1525TIP3   OH226065   6.479   3.349  14.882 -0.2950 -0.1808 -0.3394
 1525TIP3    H126066   6.384   3.342  14.888 -0.1836 -0.7024  0.9912
 1525TIP3    H226067   6.509   3.261  14.860 -0.1167 -0.0370 -0.6694
 1526TIP3   OH226068   6.625   1.621  12.751 -0.6476  0.2918 -0.2547
 1526TIP3    H126069   6.715   1.606  12.721 -0.1318 -0.0561  1.4065
 1526TIP3    H226070   6.594   1.535  12.780 -1.0591  0.6516  0.3912
 1527TIP3   OH226071   0.260   6.012   2.194  0.2761 -0.6691 -1.0877
 1527TIP3    H126072   0.321   6.041   2.262  0.5291 -0.5060 -1.3816
 1527TIP3    H226073   0.186   5.975   2.242 -0.5054  1.3528 -0.6967
 1528TIP3   OH226074   4.554   1.464   5.032 -0.4592 -0.3512 -0.2033
 1528TIP3    H126075   4.537   1.449   5.125 -0.5583 -0.1467 -0.1879
 1528TIP3    H226076   4.634   1.517   5.031 -1.7584  1.6742 -0.1386
 1529TIP3   OH226077   1.837   0.854   5.383 -0.3757 -0.2616  0.1001
 1529TIP3    H126078   1.854   0.914   5.456 -0.0519  0.8669 -0.8883
 1529TIP3    H226079   1.753   0.814   5.405 -0.4645  0.3476  0.9072
 1530TIP3   OH226080   5.385   5.122  14.776  0.6836  0.2576  0.6648
 1530TIP3    H126081   5.430   5.178  14.839  2.0246  2.9642 -2.5718
 1530TIP3    H226082   5.429   5.138  14.693 -2.2664 -1.7224 -1.4006
 1531TIP3   OH226083   2.736   3.110  13.877  0.1508  0.0612  0.1848
 1531TIP3    H126084   2.672   3.181  13.869 -0.3215 -0.4799 -0.9281
 1531TIP3    H226085   2.686   3.030  13.860  1.0604 -0.3872 -0.4369
 1532TIP3   OH226086   3.697   5.969  13.652  0.6974  0.4310  0.3550
 1532TIP3    H126087   3.786   6.001  13.670  1.2427 -1.4928  1.2183
 1532TIP3    H226088   3.705   5.922  13.570 -0.3746  3.4647 -1.5774
 1533TIP3   OH226089   3.100   2.973  14.617  0.6047  0.6319  0.4028
 1533TIP3    H126090   3.160   2.917  14.667  0.4329  0.7545  0.7454
 1533TIP3    H226091   3.157   3.020  14.556  0.5314 -1.4385 -1.3134
 1534TIP3   OH226092   5.313   5.460  16.239  0.1656 -0.1890  0.0998
 1534TIP3    H126093   5.286   5.376  16.202  0.5929 -0.8392  1.2206
 1534TIP3    H226094   5.248   5.479  16.307  0.3372  0.1563  0.1701
 1535TIP3   OH226095   2.719   5.377   2.092  0.5167  0.4302 -0.6216
 1535TIP3    H126096   2.725   5.291   2.052 -1.6200  0.3141 -0.7280
 1535TIP3    H226097   2.644   5.419   2.049  0.0504  1.4230  1.1006
 1536TIP3   OH226098   3.472   5.389   3.787 -0.0135 -0.7669  0.5122
 1536TIP3    H126099   3.408   5.444   3.742  1.3904  3.8866  3.7973
 1536TIP3    H226100   3.425   5.357   3.864  0.4453 -0.5377  0.8888
 1537TIP3   OH226101   6.331   3.559   2.440  0.1346 -0.5643 -0.4670
 1537TIP3    H126102   6.361   3.468   2.442  1.1366 -0.2343 -0.2301
 1537TIP3    H226103   6.385   3.600   2.372 -0.1798 -0.1028 -0.4373
 1538TIP3   OH226104   3.425   2.504   0.709  0.1932  0.5574  0.9118
 1538TIP3    H126105   3.501   2.556   0.737 -0.1518  0.7382  1.5207
 1538TIP3    H226106   3.462   2.420   0.683  0.9839  1.6921 -1.8196
 1539TIP3   OH226107   3.263   6.177  11.976  0.8189 -0.1564  0.0630
 1539TIP3    H126108   3.194   6.111  11.964  0.3301  0.0416  1.7425
 1539TIP3    H226109   3.280   6.177  12.070  1.5857  1.3414 -0.0721
 1540TIP3   OH226110   3.307   5.628  11.623  0.5744 -0.8882 -0.3587
 1540TIP3    H126111   3.233   5.623  11.683  0.9997 -0.5696  0.1929
 1540TIP3    H226112   3.365   5.556  11.650  1.2940 -0.0674  0.3352
 1541TIP3   OH226113   4.316   3.106  12.217  0.0089  0.6215  0.2543
 1541TIP3    H126114   4.391   3.063  12.177 -0.3715 -1.0015  1.2119
 1541TIP3    H226115   4.337   3.199  12.215  0.5350  0.4861 -2.5423
 1542TIP3   OH226116   5.168   2.586   2.081 -0.5023 -0.1803 -0.0314
 1542TIP3    H126117   5.161   2.546   1.994 -1.1537  0.7179 -0.4058
 1542TIP3    H226118   5.196   2.514   2.138  0.2274 -0.7038 -1.0346
 1543TIP3   OH226119   0.639   3.523  15.106  0.2047 -0.0269 -0.5776
 1543TIP3    H126120   0.568   3.560  15.159  1.1340  1.0226 -0.0347
 1543TIP3    H226121   0.691   3.472  15.168 -0.3929 -1.2656 -1.0896
 1544TIP3   OH226122   5.552   1.289   1.489 -0.0301 -0.0570  0.2035
 1544TIP3    H126123   5.628   1.342   1.513  0.6836 -1.1097  0.3068
 1544TIP3    H226124   5.518   1.331   1.410  1.9395 -0.7826 -1.0819
 1545TIP3   OH226125   1.359   0.408  12.633  0.2771 -0.3063  0.3434
 1545TIP3    H126126   1.278   0.357  12.633 -1.1719  1.8877 -0.2865
 1545TIP3    H226127   1.409   0.374  12.558 -0.9418 -0.3743 -0.4573
 1546TIP3   OH226128   1.418   0.304   5.212  0.6442  0.5741  0.4070
 1546TIP3    H126129   1.414   0.324   5.306 -0.2053  0.0100  0.5003
 1546TIP3    H226130   1.418   0.389   5.169  0.0406  0.8195  0.8878
 1547TIP3   OH226131   4.455   3.522  12.237  0.2947  0.4299  0.5379
 1547TIP3    H126132   4.389   3.527  12.305 -0.7442 -0.3012 -0.3872
 1547TIP3    H226133   4.535   3.495  12.282  0.1149  1.8940  1.7552
 1548TIP3   OH226134   3.473   2.923   3.878  0.4825 -0.2934  0.4031
 1548TIP3    H126135   3.389   2.922   3.922  0.8264 -2.5729  1.0759
 1548TIP3    H226136   3.509   3.010   3.895 -1.5170  0.5340  0.4736
 1549TIP3   OH226137   6.747   6.751   3.703  0.3478 -0.0044 -0.1369
 1549TIP3    H126138   6.836   6.780   3.723  0.8106 -1.6975  0.3809
 1549TIP3    H226139   6.692   6.824   3.730  1.4622  0.3763  1.2046
 1550TIP3   OH226140   0.458   4.527   2.487 -0.2876 -0.3996  0.0655
 1550TIP3    H126141   0.541   4.569   2.510 -1.1424  1.3215  0.0839
 1550TIP3    H226142   0.479   4.434   2.482  1.6461  0.0157  0.0547
 1551TIP3   OH226143   5.900   1.002  11.452  0.0906 -0.1047 -0.5592
 1551TIP3    H126144   5.873   0.990  11.543 -1.4309 -0.9300 -1.1209
 1551TIP3    H226145   5.869   1.090  11.430  0.1634 -0.0358 -0.3913
 1552TIP3   OH226146   1.380   2.401  11.587  0.1117 -0.1113  0.2799
 1552TIP3    H126147   1.422   2.484  11.566  0.1020  0.0797  1.0077
 1552TIP3    H226148   1.286   2.419  11.580  0.1156 -0.1768  0.0272
 1553TIP3   OH226149   3.646   4.033   1.480  0.0670 -0.0335  0.1586
 1553TIP3    H126150   3.558   3.996   1.479 -0.3471  0.8960  1.0134
 1553TIP3    H226151   3.690   3.987   1.551 -0.7821  1.7819  1.9476
 1554TIP3   OH226152   0.055   1.680   0.402 -0.4981  0.0516 -0.1689
 1554TIP3    H126153   0.082   1.590   0.418 -0.2755  0.2470  0.5871
 1554TIP3    H226154  -0.017   1.674   0.339  1.8161 -0.4523 -2.8790
 1555TIP3   OH226155   3.251   5.447   2.397 -0.1361 -0.1726 -0.4299
 1555TIP3    H126156   3.171   5.460   2.347 -1.2728 -3.5565  0.3796
 1555TIP3    H226157   3.272   5.355   2.385  1.2377 -0.3595  2.8457
 1556TIP3   OH226158   1.188   0.725   5.228  0.2239  0.4410 -0.0237
 1556TIP3    H126159   1.176   0.717   5.323 -1.5410  0.2664 -0.2428
 1556TIP3    H226160   1.221   0.814   5.216 -0.7460  0.9121  0.6647
 1557TIP3   OH226161   4.367   0.633  12.921 -0.5678 -0.3181 -0.0248
 1557TIP3    H126162   4.327   0.717  12.900  1.4180  0.6340 -0.1120
 1557TIP3    H226163   4.456   0.639  12.887 -0.1847 -2.2171  0.5468
 1558TIP3   OH226164   5.832   5.090  15.637 -0.6460  0.1206 -0.3926
 1558TIP3    H126165   5.880   5.014  15.604  3.4490  2.7918 -0.9137
 1558TIP3    H226166   5.774   5.115  15.565 -1.5761 -2.0302 -0.4491
 1559TIP3   OH226167   5.615   0.660  16.099 -0.1335  0.5144  0.1605
 1559TIP3    H126168   5.684   0.593  16.097 -0.3932  0.2577 -1.3438
 1559TIP3    H226169   5.535   0.611  16.116  0.0546  0.8204  1.9707
 1560TIP3   OH226170   1.865   6.331   1.423  0.8234  0.4273  0.4339
 1560TIP3    H126171   1.946   6.283   1.410  1.1286  0.4807  2.0933
 1560TIP3    H226172   1.824   6.290   1.499 -0.7235  0.3814 -0.4016
 1561TIP3   OH226173   0.703   5.729  11.340  0.5087 -0.0880  0.2152
 1561TIP3    H126174   0.745   5.811  11.367  1.4384 -0.1435 -1.0666
 1561TIP3    H226175   0.634   5.756  11.280  2.2039 -0.3635 -1.9251
 1562TIP3   OH226176   2.299   1.002   2.214  0.0145  0.4116  0.4877
 1562TIP3    H126177   2.262   0.931   2.267  2.2603 -0.9833  0.2425
 1562TIP3    H226178   2.223   1.042   2.172 -1.3739 -1.3367  1.2575
 1563TIP3   OH226179   1.129   3.080  12.946 -0.0410  0.5250  0.0473
 1563TIP3    H126180   1.089   3.000  12.911 -0.0080 -0.1965  1.6164
 1563TIP3    H226181   1.215   3.085  12.904 -0.3307  0.1151 -0.5923
 1564TIP3   OH226182   3.743   3.842   1.673  0.1571 -0.1406  0.2057
 1564TIP3    H126183   3.834   3.812   1.671  0.1339 -0.1087 -1.4408
 1564TIP3    H226184   3.710   3.810   1.757  1.7277 -0.0235  0.8896
 1565TIP3   OH226185   0.699   3.686   4.285 -0.3874 -0.2178  0.0660
 1565TIP3    H126186   0.678   3.619   4.350 -1.4535 -2.1167 -2.1178
 1565TIP3    H226187   0.709   3.767   4.335 -1.6560 -1.5137  2.5171
 1566TIP3   OH226188   0.511   4.619  16.643  0.5217  0.2080 -0.3611
 1566TIP3    H126189   0.594   4.577  16.620 -0.0037  0.5331 -3.0017
 1566TIP3    H226190   0.450   4.590  16.575 -0.8396  2.1618 -0.0149
 1567TIP3   OH226191   1.136   3.511  11.357 -0.2456  0.2200  0.5445
 1567TIP3    H126192   1.060   3.462  11.387 -0.0198  0.0634  0.8668
 1567TIP3    H226193   1.101   3.572  11.293 -0.3426 -1.2358 -0.8155
 1568TIP3   OH226194   2.313   6.312  14.411 -0.1010  0.5308  0.4283
 1568TIP3    H126195   2.387   6.252  14.405 -1.6625 -1.3205 -0.6539
 1568TIP3    H226196   2.320   6.366  14.332 -0.6965 -0.5863 -0.4015
 1569TIP3   OH226197   2.382   3.758  16.985  0.2094  0.0339  0.0469
 1569TIP3    H126198   2.343   3.754  17.072  2.8169  0.1674  1.2534
 1569TIP3    H226199   2.459   3.703  16.990 -0.4267 -1.1641 -2.6523
 1570TIP3   OH226200   3.459   1.330  16.056  0.0572 -0.3775 -0.4588
 1570TIP3    H126201   3.381   1.339  16.001  0.2465  1.9686 -0.3903
 1570TIP3    H226202   3.431   1.362  16.142  0.1716 -2.6885  0.4743
 1571TIP3   OH226203   0.738   5.594  14.413 -0.2541 -0.1313  0.3134
 1571TIP3    H126204   0.809   5.531  14.421 -0.4446 -0.3031  0.6864
 1571TIP3    H226205   0.678   5.556  14.348 -0.6653 -0.6224  0.9700
 1572TIP3   OH226206   6.713   4.507  15.774 -0.1190  0.0216 -0.2246
 1572TIP3    H126207   6.660   4.586  15.784  1.2830  1.0370 -0.6473
 1572TIP3    H226208   6.669   4.441  15.828 -0.2394  1.6151  1.6570
 1573TIP3   OH226209   0.977   3.184   0.659  0.0769  0.1125  0.5268
 1573TIP3    H126210   0.931   3.167   0.741 -0.2322  0.1123  0.3521
 1573TIP3    H226211   1.060   3.137   0.668 -0.1659 -0.2966  0.6373
 1574TIP3   OH226212   4.620   3.199   0.645 -0.1593  0.1423 -0.2448
 1574TIP3    H126213   4.590   3.110   0.660  1.5561 -0.5579 -0.7699
 1574TIP3    H226214   4.553   3.255   0.684 -1.4913 -1.3593 -0.3370
 1575TIP3   OH226215   5.599   0.284   5.049  0.0234 -0.1429 -0.2654
 1575TIP3    H126216   5.592   0.362   4.995 -0.8152 -0.3652 -0.4719
 1575TIP3    H226217   5.604   0.211   4.987  0.5320 -0.2782 -0.0703
 1576TIP3   OH226218   2.271   4.996   3.885  0.4620 -0.2982 -0.1120
 1576TIP3    H126219   2.195   4.950   3.850  0.0481 -1.8648  2.6864
 1576TIP3    H226220   2.235   5.078   3.919  0.5637  0.3797 -1.5993
 1577TIP3   OH226221   5.307   3.092   1.775 -0.1062 -0.2722 -0.3541
 1577TIP3    H126222   5.371   3.020   1.776  0.1160 -0.0698  0.1000
 1577TIP3    H226223   5.356   3.168   1.807 -0.7348 -0.2430  0.5492
 1578TIP3   OH226224   6.454   6.417  12.093 -0.0995 -0.1347 -0.3034
 1578TIP3    H126225   6.374   6.451  12.052 -0.9235 -0.0590  1.3378
 1578TIP3    H226226   6.468   6.332  12.052 -1.4381 -0.4725 -0.0922
 1579TIP3   OH226227   2.146   0.206  12.514  0.2994 -0.1049  0.0932
 1579TIP3    H126228   2.066   0.167  12.550  0.6661  0.0385  1.0762
 1579TIP3    H226229   2.197   0.131  12.483 -0.3333 -0.1786 -0.8150
 1580TIP3   OH226230   5.036   3.280  13.723  0.1460  0.0758  0.3432
 1580TIP3    H126231   5.122   3.321  13.725  0.4759 -0.6370  2.4429
 1580TIP3    H226232   5.052   3.192  13.688  0.2945 -0.1064  0.8684
 1581TIP3   OH226233   5.903   5.275  14.117 -0.5848 -0.0520  0.0138
 1581TIP3    H126234   5.975   5.292  14.056 -0.3682  2.3065  0.8868
 1581TIP3    H226235   5.947   5.257  14.200 -0.9638  0.7722  0.4030
 1582TIP3   OH226236   2.274   2.343  14.869 -0.0220  0.1174  0.1146
 1582TIP3    H126237   2.204   2.283  14.840  0.3934  0.1417 -0.9621
 1582TIP3    H226238   2.284   2.324  14.962 -1.4194  0.0617  0.2603
 1583TIP3   OH226239   0.611   0.709  11.246  0.2665  0.8651  0.3366
 1583TIP3    H126240   0.677   0.762  11.200 -0.4326  1.3752 -0.1018
 1583TIP3    H226241   0.624   0.730  11.338  1.8065 -0.3040  0.3980
 1584TIP3   OH226242   4.345   6.063  13.909 -0.3535 -0.2350  0.3205
 1584TIP3    H126243   4.399   6.017  13.973  0.4619 -0.2921 -0.4114
 1584TIP3    H226244   4.271   6.005  13.894 -0.4553 -0.3087  1.0648
 1585TIP3   OH226245   2.403   5.178  14.319 -0.3076 -0.4166  0.3509
 1585TIP3    H126246   2.457   5.111  14.278  0.2193  0.3727 -0.2678
 1585TIP3    H226247   2.450   5.260  14.302 -1.9722  0.3479 -0.7084
 1586TIP3   OH226248   6.393   4.015   4.371 -0.4346 -0.4916  0.3172
 1586TIP3    H126249   6.325   3.975   4.425 -0.6833 -1.5907 -0.7989
 1586TIP3    H226250   6.472   3.964   4.390 -0.6250 -1.1746 -0.6803
 1587TIP3   OH226251   6.575   2.307  11.973  0.4173 -0.6866  0.5733
 1587TIP3    H126252   6.587   2.401  11.987  1.9727 -0.8948  0.7563
 1587TIP3    H226253   6.492   2.287  12.017  0.6051  0.4082  1.4614
 1588TIP3   OH226254   4.469   2.582   5.220 -0.6744  0.3643 -0.1434
 1588TIP3    H126255   4.479   2.492   5.251  1.5607 -0.0806 -2.0274
 1588TIP3    H226256   4.422   2.575   5.137  1.7678  0.6587 -1.5962
 1589TIP3   OH226257   1.644   0.010   6.558  0.2160 -0.2333 -0.6365
 1589TIP3    H126258   1.584   0.010   6.483  0.3640 -0.2078 -0.7560
 1589TIP3    H226259   1.694  -0.072   6.549  0.3226 -0.1685 -0.6381
 1590TIP3   OH226260   5.830   2.266  12.284 -0.0217 -0.6097 -0.1007
 1590TIP3    H126261   5.817   2.358  12.261 -2.5721 -0.9079 -0.0216
 1590TIP3    H226262   5.756   2.220  12.244  0.5237 -2.4513  0.9203
 1591TIP3   OH226263   0.932   5.305  12.167  1.0626  0.6053  0.6113
 1591TIP3    H126264   0.901   5.217  12.186 -1.0630  0.8142 -1.6770
 1591TIP3    H226265   1.009   5.292  12.111  0.8269  0.2201  0.3795
 1592TIP3   OH226266   0.915   2.528   5.235  0.4727 -0.3423 -0.8025
 1592TIP3    H126267   0.913   2.474   5.156 -1.7554 -1.7145  0.1498
 1592TIP3    H226268   0.934   2.616   5.203  0.0381 -0.9554 -2.8260
 1593TIP3   OH226269   4.725   6.056  10.761 -0.4657  1.0098 -0.2380
 1593TIP3    H126270   4.647   6.002  10.773  0.5423 -0.5548 -0.5989
 1593TIP3    H226271   4.747   6.048  10.669 -0.1663  1.8696 -0.2514
 1594TIP3   OH226272   0.866   6.328   5.265  0.2703 -0.1859 -0.1971
 1594TIP3    H126273   0.917   6.259   5.223  1.8075  0.2879  0.8768
 1594TIP3    H226274   0.868   6.308   5.358 -1.1575  0.0780 -0.0866
 1595TIP3   OH226275   1.950   4.591   0.626  0.7612 -0.2890 -0.2950
 1595TIP3    H126276   1.991   4.677   0.619  1.1250 -0.3099  1.3889
 1595TIP3    H226277   1.977   4.559   0.712 -2.1278 -0.6194  0.5411
 1596TIP3   OH226278   1.313   2.948  14.960  0.2851  0.0864 -0.0086
 1596TIP3    H126279   1.313   3.017  15.025  0.3310 -0.1096  0.1988
 1596TIP3    H226280   1.404   2.921  14.952  0.1225 -0.7295  0.7421
 1597TIP3   OH226281   6.145   0.566   2.747 -0.1983  0.3107  0.3581
 1597TIP3    H126282   6.154   0.522   2.663 -0.0106  2.2534 -0.6548
 1597TIP3    H226283   6.051   0.562   2.767 -0.6204  2.1539 -1.2135
 1598TIP3   OH226284   1.456   6.120   0.374 -0.1111  0.3800  0.3114
 1598TIP3    H126285   1.400   6.195   0.356  0.8316  0.6397 -1.6007
 1598TIP3    H226286   1.530   6.156   0.422  0.9429  0.8980 -1.6662
 1599TIP3   OH226287   1.028   3.297  12.480 -0.3161  0.7156  0.4665
 1599TIP3    H126288   1.099   3.361  12.487 -0.0445  0.4399  0.2640
 1599TIP3    H226289   0.979   3.323  12.403  0.6983 -0.2121 -0.5052
 1600TIP3   OH226290   1.741   4.247  15.418  0.0932 -0.7478  0.0292
 1600TIP3    H126291   1.692   4.168  15.392 -1.0028 -0.7733  2.0894
 1600TIP3    H226292   1.802   4.217  15.485  2.1280 -0.4728 -1.6610
 1601TIP3   OH226293   5.449   1.747  15.490 -0.1062 -0.6330 -0.0715
 1601TIP3    H126294   5.363   1.782  15.470 -0.0925  0.0754  1.0654
 1601TIP3    H226295   5.496   1.820  15.531  0.7295 -1.2718  0.1237
 1602TIP3   OH226296   2.927   1.162  15.452  0.0726 -0.4335 -0.1227
 1602TIP3    H126297   3.003   1.106  15.470 -0.3146 -1.3915 -1.3836
 1602TIP3    H226298   2.864   1.139  15.521 -0.0661 -1.5475 -0.6047
 1603TIP3   OH226299   1.468   4.793   4.391  0.0195  0.4725  0.6401
 1603TIP3    H126300   1.517   4.711   4.398  0.2741  0.6461  0.9185
 1603TIP3    H226301   1.420   4.786   4.309  1.1360  0.6406 -0.0287
 1604TIP3   OH226302   1.209   3.722  16.714  0.0721 -0.2741 -0.1266
 1604TIP3    H126303   1.292   3.764  16.736 -0.5526  0.4195  0.9198
 1604TIP3    H226304   1.177   3.687  16.797 -0.7910 -0.3401 -0.4826
 1605TIP3   OH226305   0.987   2.541  15.618  0.0368  0.1907 -0.2115
 1605TIP3    H126306   1.041   2.611  15.582  1.9511 -2.1523 -2.0455
 1605TIP3    H226307   0.942   2.504  15.542  0.9397 -2.1242  0.3336
 1606TIP3   OH226308   0.513   4.289   3.700 -0.0187 -0.2190 -0.0479
 1606TIP3    H126309   0.497   4.370   3.651 -1.1033 -1.0853 -1.1474
 1606TIP3    H226310   0.559   4.233   3.638 -0.2418 -0.8391  0.3518
 1607TIP3   OH226311   2.979   1.103   4.705 -0.0642 -0.1055 -0.0626
 1607TIP3    H126312   3.020   1.183   4.738 -1.7448  0.5261  0.5548
 1607TIP3    H226313   2.982   1.111   4.610  3.0513 -1.0313 -0.1225
 1608TIP3   OH226314   4.156   2.917   1.743 -0.4679 -0.2855  0.5314
 1608TIP3    H126315   4.098   2.992   1.731 -0.7950 -0.4915  0.8144
 1608TIP3    H226316   4.220   2.925   1.673 -0.8559 -0.0722  0.1999
 1609TIP3   OH226317   3.708   0.410  15.038 -0.1582 -0.5763  0.3956
 1609TIP3    H126318   3.615   0.419  15.061 -0.2078 -0.5161  0.1638
 1609TIP3    H226319   3.708   0.360  14.957 -0.0319  0.4176 -0.2109
 1610TIP3   OH226320   1.695   2.869  16.774  0.1665  0.0006 -0.2176
 1610TIP3    H126321   1.706   2.947  16.721 -1.3624  0.4206  0.0619
 1610TIP3    H226322   1.769   2.870  16.835 -0.8861  2.2715  1.0656
 1611TIP3   OH226323   2.489   3.920  12.296 -0.9399 -0.0484  0.3902
 1611TIP3    H126324   2.438   3.957  12.224  0.4434  2.2366  0.5372
 1611TIP3    H226325   2.580   3.939  12.273 -0.1692 -3.1863  0.6215
 1612TIP3   OH226326   5.636   6.782   5.820 -0.1809 -0.1907  0.5563
 1612TIP3    H126327   5.722   6.786   5.861  0.0424  2.6425 -0.0877
 1612TIP3    H226328   5.639   6.847   5.750 -2.4822 -0.8423 -0.2089
 1613TIP3   OH226329   0.329   5.271   5.319 -0.1612 -0.2767 -1.0623
 1613TIP3    H126330   0.277   5.193   5.297 -0.5624 -0.0389 -0.9683
 1613TIP3    H226331   0.341   5.316   5.235  1.5784 -1.3507 -1.3974
 1614TIP3   OH226332   3.357   5.864   5.721  0.0825 -0.3949 -0.2552
 1614TIP3    H126333   3.422   5.793   5.724  2.4273  1.6800 -0.0257
 1614TIP3    H226334   3.344   5.888   5.813  0.5837  0.5935 -0.4436
 1615TIP3   OH226335   2.063   5.779   3.818  0.4320  0.4892  0.0481
 1615TIP3    H126336   2.053   5.867   3.854 -0.4866  0.0412  0.9145
 1615TIP3    H226337   1.975   5.743   3.816  0.9839 -1.0472  1.3977
 1616TIP3   OH226338   0.213   3.450   3.119 -0.8736 -0.1356  0.0932
 1616TIP3    H126339   0.275   3.410   3.181  0.9355 -0.1090 -1.6341
 1616TIP3    H226340   0.194   3.536   3.156  0.8227  0.2026  0.2119
 1617TIP3   OH226341   5.830   0.890  13.758  0.1047 -0.0099  0.1140
 1617TIP3    H126342   5.742   0.856  13.742  0.6629 -2.0053  1.0922
 1617TIP3    H226343   5.816   0.981  13.784 -1.6742 -0.3417  0.3752
 1618TIP3   OH226344   1.142   0.565  16.016 -0.1312  0.1373 -0.0038
 1618TIP3    H126345   1.186   0.495  15.967  0.3445  0.6854 -0.3569
 1618TIP3    H226346   1.201   0.640  16.010  0.1271  0.1032  1.7369
 1619TIP3   OH226347   0.819   0.341  12.621  0.4386 -0.0023  0.5868
 1619TIP3    H126348   0.739   0.394  12.614 -0.1854 -0.7577  1.8608
 1619TIP3    H226349   0.814   0.281  12.546 -0.1322  0.0263  0.6013
 1620TIP3   OH226350   3.766   3.479   6.716  0.2281 -0.2070  0.4544
 1620TIP3    H126351   3.694   3.474   6.653 -0.6672 -0.1474  1.4373
 1620TIP3    H226352   3.738   3.423   6.788  0.8579  0.3722  1.1590
 1621TIP3   OH226353   3.667   6.230   4.435 -0.2768 -0.3188  0.1566
 1621TIP3    H126354   3.659   6.272   4.349  0.5417 -0.4370  0.0222
 1621TIP3    H226355   3.586   6.254   4.480 -0.8191 -0.4436 -0.7285
 1622TIP3   OH226356   4.192   4.361  16.480 -0.2176 -0.3691  0.1649
 1622TIP3    H126357   4.230   4.350  16.393  0.5676 -1.1607  0.5901
 1622TIP3    H226358   4.207   4.277  16.523 -3.8803 -1.2747 -0.1547
 1623TIP3   OH226359   3.266   0.257   0.228 -0.3054 -0.5924 -0.0321
 1623TIP3    H126360   3.328   0.317   0.186 -1.6349 -1.0867 -2.8517
 1623TIP3    H226361   3.180   0.292   0.205 -1.0812 -2.0000  0.6722
 1624TIP3   OH226362   6.116   2.873  11.513 -0.0677  0.3739 -0.6768
 1624TIP3    H126363   6.132   2.841  11.602 -2.6142  2.8721  0.7781
 1624TIP3    H226364   6.125   2.968  11.520 -0.1902  0.5906 -3.1298
 1625TIP3   OH226365   0.039   4.694  16.456  0.8384  0.0369 -0.2727
 1625TIP3    H126366  -0.035   4.756  16.450 -0.2685 -1.2515 -0.0859
 1625TIP3    H226367   0.079   4.713  16.541 -0.5754 -0.6837  0.5684
 1626TIP3   OH226368   5.481   3.983  17.039  0.4006  0.0868  0.0121
 1626TIP3    H126369   5.520   3.916  16.983  0.4928 -0.6868  0.9886
 1626TIP3    H226370   5.392   3.994  17.004  0.7209  0.1810 -0.7776
 1627TIP3   OH226371   4.722   5.780   5.417  0.3409 -0.3416  0.8813
 1627TIP3    H126372   4.782   5.707   5.402  2.0588  1.3712 -0.9075
 1627TIP3    H226373   4.767   5.837   5.479 -0.4380 -0.1691  1.3014
 1628TIP3   OH226374   2.572   4.083   3.957 -0.0772  0.0395  0.0578
 1628TIP3    H126375   2.523   4.140   4.016 -1.6340 -0.5362 -0.6619
 1628TIP3    H226376   2.597   4.139   3.884 -1.4694 -0.1406 -0.5725
 1629TIP3   OH226377   6.792   2.328   4.079 -0.3011  0.0655 -0.3314
 1629TIP3    H126378   6.787   2.419   4.109  0.0581 -0.4682  1.4664
 1629TIP3    H226379   6.886   2.311   4.070 -0.2817 -0.5621  0.8505
 1630TIP3   OH226380   4.737   5.308   3.948  0.3017 -0.4231  0.2871
 1630TIP3    H126381   4.648   5.344   3.946  0.8820  1.0162 -0.2769
 1630TIP3    H226382   4.755   5.286   3.857  0.9808  0.4457  0.2097
 1631TIP3   OH226383   0.398   3.519  14.046 -0.0950 -0.1948 -0.4364
 1631TIP3    H126384   0.359   3.532  13.960 -0.4965 -1.5455 -0.4591
 1631TIP3    H226385   0.475   3.577  14.046 -1.1125  1.2016 -1.0108
 1632TIP3   OH226386   4.098   4.399  10.596  0.5113  0.3375  0.3712
 1632TIP3    H126387   4.159   4.461  10.557  1.9560 -0.5607  1.1413
 1632TIP3    H226388   4.138   4.313  10.580 -0.5960 -0.2659  0.8132
 1633TIP3   OH226389   2.776   6.170   3.427  0.1621 -0.2001  0.2652
 1633TIP3    H126390   2.705   6.153   3.366 -0.8999  0.6534  1.2328
 1633TIP3    H226391   2.803   6.083   3.458  1.7601 -0.7448 -2.5273
 1634TIP3   OH226392   5.842   1.620   2.517 -0.6719  0.0795  0.4768
 1634TIP3    H126393   5.836   1.534   2.473 -2.3953 -0.1298  1.0722
 1634TIP3    H226394   5.841   1.599   2.610 -1.4434  0.7574  0.6275
 1635TIP3   OH226395   6.195   3.707   2.946  0.4090  0.4536 -0.3720
 1635TIP3    H126396   6.268   3.653   2.976  1.0464  0.8675 -1.1449
 1635TIP3    H226397   6.171   3.668   2.861  1.5028  1.9537 -1.3914
 1636TIP3   OH226398   0.472   3.285   5.655  0.1814 -0.2448 -0.1315
 1636TIP3    H126399   0.488   3.294   5.561 -0.0743  0.0569 -0.1501
 1636TIP3    H226400   0.558   3.295   5.696  0.0292  1.5352 -0.2106
 1637TIP3   OH226401   3.905   5.403   5.723  0.0057  0.0795 -0.3165
 1637TIP3    H126402   3.822   5.420   5.767 -0.9783 -0.4782 -1.9258
 1637TIP3    H226403   3.933   5.317   5.756  0.4540  0.7016  0.9608
 1638TIP3   OH226404   2.731   1.000  17.019  0.2850  0.0542  0.3255
 1638TIP3    H126405   2.649   1.050  17.016 -0.9347 -1.9240 -0.2545
 1638TIP3    H226406   2.737   0.967  17.108  0.5462  0.3660  0.4214
 1639TIP3   OH226407   4.682   3.842   4.195 -0.7330  0.3452 -0.2736
 1639TIP3    H126408   4.601   3.887   4.172  0.4226  2.0132 -1.2168
 1639TIP3    H226409   4.751   3.894   4.153  0.9409 -0.1572  1.7530
 1640TIP3   OH226410   3.726   0.468   2.324  0.8395  0.1099  0.2389
 1640TIP3    H126411   3.700   0.430   2.240 -0.6596 -0.1237  0.7870
 1640TIP3    H226412   3.673   0.547   2.332  2.3073  1.0993  0.1407
 1641TIP3   OH226413   3.883   5.997  15.086 -0.3795 -0.4717 -0.1193
 1641TIP3    H126414   3.841   5.998  15.000 -1.0083 -0.9825  0.1778
 1641TIP3    H226415   3.972   5.968  15.069 -0.9967 -2.2638 -0.3899
 1642TIP3   OH226416   2.617   3.236  16.613 -0.0072 -0.5749 -0.4924
 1642TIP3    H126417   2.689   3.212  16.670  0.8469  0.0927 -1.2824
 1642TIP3    H226418   2.645   3.207  16.526  0.0897  1.2891 -1.1060
 1643TIP3   OH226419   5.370   3.715   0.384  0.6023 -0.0436 -0.4102
 1643TIP3    H126420   5.339   3.636   0.339 -2.3164 -0.8294  2.7581
 1643TIP3    H226421   5.290   3.761   0.409  2.1872  1.8238  1.3844
 1644TIP3   OH226422   5.058   0.676   2.454  0.0681  0.3099 -0.0502
 1644TIP3    H126423   5.096   0.738   2.517  1.7576  1.2669 -1.9184
 1644TIP3    H226424   4.986   0.725   2.413 -0.3781  0.0497  0.4233
 1645TIP3   OH226425   3.930   2.267   5.084 -0.1597 -0.0894 -0.4205
 1645TIP3    H126426   3.918   2.297   4.994  1.6880  0.7744 -0.4155
 1645TIP3    H226427   3.991   2.330   5.122 -2.9996  1.1545  2.2963
 1646TIP3   OH226428   1.221   2.121   1.523 -0.2180 -0.1333  0.8107
 1646TIP3    H126429   1.303   2.169   1.515  0.4118 -1.2241  0.6299
 1646TIP3    H226430   1.221   2.060   1.449 -2.4266  1.6692 -0.7352
 1647TIP3   OH226431   2.525   5.698  15.348  0.0875  0.1189  0.5357
 1647TIP3    H126432   2.446   5.679  15.398 -0.5270  1.0511 -0.0507
 1647TIP3    H226433   2.539   5.620  15.294  0.6979 -0.8496  2.0524
 1648TIP3   OH226434   2.492   0.908   4.239  0.4581  0.7094 -0.3302
 1648TIP3    H126435   2.435   0.904   4.162  1.8937  0.7916 -1.4346
 1648TIP3    H226436   2.478   0.825   4.284 -1.9236  1.5105  0.4590
 1649TIP3   OH226437   3.221   5.733  15.924 -0.0021 -0.3544  0.5219
 1649TIP3    H126438   3.132   5.764  15.939 -0.6168 -2.4496  1.3567
 1649TIP3    H226439   3.217   5.684  15.842  0.6320  0.4969 -0.0255
 1650TIP3   OH226440   6.110   2.512   5.762 -0.2593  0.0011  0.5556
 1650TIP3    H126441   6.097   2.420   5.741  0.7407 -0.0990  0.3431
 1650TIP3    H226442   6.039   2.533   5.822 -0.8802 -0.7319  0.0860
 1651TIP3   OH226443   0.729   2.029   6.681 -0.0392  0.3532 -0.0409
 1651TIP3    H126444   0.766   1.966   6.618  1.0342  0.2038  0.7304
 1651TIP3    H226445   0.672   1.976   6.737 -0.7467  0.4301 -0.6832
 1652TIP3   OH226446   6.414   2.795  14.277  0.6360 -0.0618  0.3023
 1652TIP3    H126447   6.363   2.771  14.200 -0.9149  1.8136  0.7007
 1652TIP3    H226448   6.429   2.712  14.323  0.6644 -1.0483 -1.4533
 1653TIP3   OH226449   1.229   4.229  16.299 -0.0577  0.7471 -0.3820
 1653TIP3    H126450   1.225   4.152  16.356  0.2848  0.7138 -0.3992
 1653TIP3    H226451   1.138   4.254  16.285 -0.2118 -0.2581 -1.1968
 1654TIP3   OH226452   3.889   1.171  13.047  0.1700  0.2191  0.1933
 1654TIP3    H126453   3.880   1.086  13.006  0.7230  0.5102 -0.5450
 1654TIP3    H226454   3.800   1.196  13.072  0.1676 -1.1857  1.6596
 1655TIP3   OH226455   2.930   1.379  12.471  0.2778 -0.3533  0.2547
 1655TIP3    H126456   2.838   1.405  12.474  0.4387  0.4222 -0.9654
 1655TIP3    H226457   2.935   1.320  12.395  0.6827 -0.8118  0.6401
 1656TIP3   OH226458   3.755   2.656  12.214 -0.2857  0.5243  0.2082
 1656TIP3    H126459   3.744   2.561  12.223  0.1370  0.3717 -0.8013
 1656TIP3    H226460   3.829   2.665  12.153 -0.4211  1.5018  0.1907
 1657TIP3   OH226461   3.688   3.312   4.378 -0.2602  0.1728  0.0412
 1657TIP3    H126462   3.614   3.370   4.360  1.4203  2.2921 -0.3352
 1657TIP3    H226463   3.693   3.255   4.301 -1.4512  0.0503  0.0456
 1658TIP3   OH226464   4.480   5.548  13.864 -0.3224 -0.9784 -0.5482
 1658TIP3    H126465   4.421   5.622  13.849  1.3599  0.1960 -1.5057
 1658TIP3    H226466   4.503   5.553  13.956 -1.1044 -1.0042 -0.3439
 1659TIP3   OH226467   4.985   4.160  13.975  0.1914 -1.0110  0.4555
 1659TIP3    H126468   4.970   4.248  14.011  0.3524 -1.0288  0.5683
 1659TIP3    H226469   5.075   4.163  13.942  1.3908 -2.1204  3.4115
 1660TIP3   OH226470   5.768   2.590  15.678  0.0736 -0.4563 -0.4693
 1660TIP3    H126471   5.860   2.608  15.692  0.0721 -1.9928  1.8379
 1660TIP3    H226472   5.722   2.657  15.729 -0.0470 -0.4129 -0.6373
 1661TIP3   OH226473   2.527   0.770  13.459 -0.2391  0.1446 -0.3304
 1661TIP3    H126474   2.436   0.743  13.477 -1.1845  1.3435 -3.0370
 1661TIP3    H226475   2.575   0.688  13.453 -1.6160 -0.6262 -1.1536
 1662TIP3   OH226476   1.842   5.635  16.172 -0.1906 -0.0096 -0.1976
 1662TIP3    H126477   1.851   5.565  16.237 -1.4515  0.6957  0.7674
 1662TIP3    H226478   1.888   5.602  16.095  0.7577 -1.1435  0.8296
 1663TIP3   OH226479   2.574   0.579  11.685  0.2085  0.4885  0.3183
 1663TIP3    H126480   2.646   0.609  11.739  0.3952  1.2738 -0.3464
 1663TIP3    H226481   2.616   0.529  11.614 -0.0688 -0.9866  1.1707
 1664TIP3   OH226482   2.082   2.694   5.010  0.1857 -0.2364 -0.1451
 1664TIP3    H126483   2.036   2.689   4.926 -0.5079  2.3253  0.0583
 1664TIP3    H226484   2.014   2.677   5.076  0.0612  0.9384  0.0357
 1665TIP3   OH226485   3.634   1.207  12.738  0.3200 -0.7187  0.5306
 1665TIP3    H126486   3.655   1.262  12.814 -0.9621  0.3180  0.1397
 1665TIP3    H226487   3.714   1.157  12.723  1.8106  1.6262  0.3942
 1666TIP3   OH226488   5.874   6.616   0.199  0.3713  0.3093  0.1663
 1666TIP3    H126489   5.924   6.556   0.254 -0.3187 -1.4950 -1.1586
 1666TIP3    H226490   5.829   6.560   0.136  0.5348  2.2722 -1.7612
 1667TIP3   OH226491   4.761   2.681  17.093  0.1367  0.5383 -0.1340
 1667TIP3    H126492   4.704   2.606  17.077  1.2417 -0.4050  0.3195
 1667TIP3    H226493   4.787   2.672  17.185 -0.0148  1.6914  0.0373
 1668TIP3   OH226494   1.733   0.316  11.474  0.5249 -0.8131  0.4799
 1668TIP3    H126495   1.643   0.293  11.496  0.2144 -1.3872 -1.3191
 1668TIP3    H226496   1.749   0.275  11.389  1.7039  1.2424 -0.3348
 1669TIP3   OH226497   4.436   3.541   2.005 -1.2621  0.1298 -0.1312
 1669TIP3    H126498   4.465   3.508   1.920  0.3912  0.7495  0.1859
 1669TIP3    H226499   4.343   3.560   1.993 -1.5020 -1.6228 -1.2356
 1670TIP3   OH226500   1.003   5.548   0.416 -0.0861  0.8971 -0.0644
 1670TIP3    H126501   0.933   5.508   0.467 -1.1593 -0.7472 -2.7793
 1670TIP3    H226502   1.066   5.478   0.402  0.3217  1.4037 -0.8147
 1671TIP3   OH226503   0.372   4.093   2.403 -0.2046  0.0448  0.1843
 1671TIP3    H126504   0.461   4.105   2.437 -0.0915  0.0483 -0.1137
 1671TIP3    H226505   0.316   4.102   2.480  0.1032 -0.7158  0.4997
 1672TIP3   OH226506   4.129   3.365   3.390  0.3024  0.2533 -0.2291
 1672TIP3    H126507   4.112   3.431   3.457  1.7162  0.4001  0.0012
 1672TIP3    H226508   4.050   3.364   3.336 -0.6328  0.5247  1.1034
 1673TIP3   OH226509   1.103   5.453  14.049 -0.1382  0.8820  0.5479
 1673TIP3    H126510   1.118   5.408  13.966  0.5583  1.2026  0.4947
 1673TIP3    H226511   1.021   5.501  14.035  0.6465  1.9814 -0.4212
 1674TIP3   OH226512   4.502   3.529  12.786  0.2117  0.0955 -0.0134
 1674TIP3    H126513   4.542   3.616  12.782  0.8796 -0.1897  0.3982
 1674TIP3    H226514   4.534   3.485  12.707  0.2784  0.0432  0.0444
 1675TIP3   OH226515   6.539   2.363  12.519 -0.0932 -0.1680 -0.1048
 1675TIP3    H126516   6.562   2.443  12.471 -0.3146 -1.7541 -2.9930
 1675TIP3    H226517   6.600   2.297  12.487 -0.7240 -1.4731  1.3025
 1676TIP3   OH226518   6.485   6.379   1.409  0.3113  0.0443  0.0299
 1676TIP3    H126519   6.419   6.334   1.463 -0.0216 -1.2745 -1.4335
 1676TIP3    H226520   6.552   6.406   1.471 -0.3611 -0.9069  1.1930
 1677TIP3   OH226521   4.928   6.030   5.268  0.1620  0.0444  0.4081
 1677TIP3    H126522   4.857   6.091   5.248  0.5092  0.2911 -0.0746
 1677TIP3    H226523   4.890   5.968   5.330 -0.0659  1.0133  1.2458
 1678TIP3   OH226524   4.097   1.742  13.227  0.2223 -0.5571 -0.2381
 1678TIP3    H126525   4.067   1.767  13.140  0.2749  0.6137  0.0805
 1678TIP3    H226526   4.186   1.778  13.233 -1.5918  3.8557  2.1850
 1679TIP3   OH226527   1.729   4.410   4.673  0.2984  0.1976  0.6595
 1679TIP3    H126528   1.700   4.366   4.753 -0.3549  2.0997  1.4978
 1679TIP3    H226529   1.811   4.366   4.651 -0.1973 -1.2541  1.6057
 1680TIP3   OH226530   5.885   3.799  12.594  0.1177 -0.1240 -0.2649
 1680TIP3    H126531   5.950   3.851  12.641  0.3549 -1.1937  0.6006
 1680TIP3    H226532   5.935   3.727  12.555 -0.0199  0.8952 -2.4242
 1681TIP3   OH226533   4.771   6.031   4.732 -0.0634  0.3556  0.1509
 1681TIP3    H126534   4.763   6.126   4.728 -1.8855  0.2104 -0.2185
 1681TIP3    H226535   4.739   6.008   4.819  1.5509  0.1723  0.7086
 1682TIP3   OH226536   5.393   2.168  11.515  0.1801  0.4154 -0.0657
 1682TIP3    H126537   5.395   2.146  11.422  4.7624  1.2538 -0.2921
 1682TIP3    H226538   5.362   2.089  11.558  0.0871 -0.6999 -2.1459
 1683TIP3   OH226539   4.133   5.951  14.964 -0.3388  0.5429  0.5775
 1683TIP3    H126540   4.199   6.018  14.979  0.9568 -0.1943 -1.7387
 1683TIP3    H226541   4.169   5.872  15.005 -0.4890  0.5092  0.6467
 1684TIP3   OH226542   4.429   4.158   1.697 -0.2002  0.5355  0.0184
 1684TIP3    H126543   4.386   4.106   1.765  2.1425 -1.4986  0.0100
 1684TIP3    H226544   4.390   4.128   1.615  0.2267 -0.2729  0.1148
 1685TIP3   OH226545   6.173   0.893  17.269  0.2764  0.2121  0.5608
 1685TIP3    H126546   6.157   0.893  17.364  0.5115  0.5133  0.6007
 1685TIP3    H226547   6.257   0.939  17.259 -0.5372  1.6295  0.0799
 1686TIP3   OH226548   3.451   2.536   4.385 -0.3160  0.0269 -0.3524
 1686TIP3    H126549   3.538   2.573   4.398 -1.0061  0.7260  2.6699
 1686TIP3    H226550   3.392   2.611   4.391 -1.2947 -0.7382 -0.2921
 1687TIP3   OH226551   2.499   3.239   2.496  0.6115 -0.2509  0.0409
 1687TIP3    H126552   2.497   3.150   2.530 -2.4803 -0.9999 -1.9330
 1687TIP3    H226553   2.422   3.281   2.533  0.1028  0.5138 -1.8393
 1688TIP3   OH226554   3.481   0.360   5.656  0.3112  0.3728 -0.3104
 1688TIP3    H126555   3.401   0.350   5.707  0.7042  0.4489  0.3229
 1688TIP3    H226556   3.453   0.406   5.576 -0.2285  0.6309  0.0251
 1689TIP3   OH226557   4.134   0.264   5.345  0.0976 -0.2312  0.1426
 1689TIP3    H126558   4.132   0.239   5.253  0.4127 -2.9005  0.8234
 1689TIP3    H226559   4.093   0.190   5.391  0.9335  0.5663  2.2353
 1690TIP3   OH226560   1.385   3.683  14.418  0.0296  0.0054 -0.0099
 1690TIP3    H126561   1.366   3.694  14.325 -1.0287 -1.7595 -0.0303
 1690TIP3    H226562   1.398   3.589  14.429  1.3563  0.3386  1.4194
 1691TIP3   OH226563   5.326   1.235  13.205  0.6125 -0.7999 -0.0025
 1691TIP3    H126564   5.392   1.266  13.267 -0.0734 -0.2734  0.4673
 1691TIP3    H226565   5.280   1.314  13.177 -0.5194 -1.2764  0.4805
 1692TIP3   OH226566   5.001   4.220  16.818 -0.5205 -0.1115 -0.5195
 1692TIP3    H126567   5.069   4.152  16.824 -0.6381 -0.0587  1.5302
 1692TIP3    H226568   5.033   4.291  16.873 -2.6427 -0.4392  1.1992
 1693TIP3   OH226569   3.057   4.143   5.160 -0.1290 -0.1249 -0.0201
 1693TIP3    H126570   3.077   4.081   5.090  1.1688  1.3355 -1.0062
 1693TIP3    H226571   3.079   4.229   5.122  0.4075  0.7132  2.1215
 1694TIP3   OH226572   4.121   5.533   2.978  0.3309 -0.8083 -0.1136
 1694TIP3    H126573   4.100   5.463   3.039  0.9944 -1.5324 -0.7015
 1694TIP3    H226574   4.184   5.588   3.025  0.6154 -1.1997 -0.0323
 1695TIP3   OH226575   4.543   1.878  14.838  0.1966  0.0347  0.3482
 1695TIP3    H126576   4.532   1.911  14.928  1.3060  0.9584  0.1591
 1695TIP3    H226577   4.636   1.855  14.833 -0.2709 -1.8589  0.0379
 1696TIP3   OH226578   3.319   3.875  11.049  0.2167  0.5972  0.3036
 1696TIP3    H126579   3.331   3.951  10.992  2.2824  0.9819  1.2087
 1696TIP3    H226580   3.406   3.835  11.055 -0.0951  0.2108  2.6790
 1697TIP3   OH226581   6.723   2.816   5.909  0.4315 -0.5113  0.1081
 1697TIP3    H126582   6.747   2.876   5.839 -3.3512 -0.5854 -1.3886
 1697TIP3    H226583   6.712   2.872   5.986 -1.4843  0.5217 -0.8852
 1698TIP3   OH226584   5.450   4.564  17.093  0.1034 -0.7140 -0.5127
 1698TIP3    H126585   5.516   4.634  17.088 -0.4863 -0.0881  0.4630
 1698TIP3    H226586   5.467   4.521  17.177  0.1854 -1.4827 -0.9187
 1699TIP3   OH226587   5.308   1.993  10.758  0.0891 -0.1680  0.6375
 1699TIP3    H126588   5.289   2.059  10.692 -1.2504 -0.8030  0.3822
 1699TIP3    H226589   5.223   1.958  10.783  0.7924 -1.9100  0.6681
 1700TIP3   OH226590   5.115   3.314  11.685 -0.3285 -0.2865  0.3879
 1700TIP3    H126591   5.177   3.255  11.642 -0.6226  0.4241 -1.0610
 1700TIP3    H226592   5.105   3.279  11.773  0.0039 -2.0041 -0.2406
 1701TIP3   OH226593   4.186   3.389  10.910  0.3354 -0.7912 -0.0902
 1701TIP3    H126594   4.228   3.417  10.991  3.0500 -0.0928 -1.6968
 1701TIP3    H226595   4.110   3.447  10.902 -0.4543 -1.4193  2.3457
 1702TIP3   OH226596   1.433   5.061   3.066  0.6453 -0.4716 -0.1165
 1702TIP3    H126597   1.470   4.974   3.056  4.5049  0.9440  1.2373
 1702TIP3    H226598   1.457   5.107   2.985  0.4003 -0.0191  0.0621
 1703TIP3   OH226599   2.964   2.470  15.958 -0.2372  0.2956 -0.1220
 1703TIP3    H126600   2.879   2.435  15.986 -1.0778  2.3962  0.0387
 1703TIP3    H226601   3.009   2.492  16.040 -0.1609  0.5887 -0.2396
 1704TIP3   OH226602   2.097   3.890  12.312  0.6218 -0.6715  0.2328
 1704TIP3    H126603   2.125   3.832  12.382  0.7715 -0.7794  0.0828
 1704TIP3    H226604   2.106   3.978  12.349  1.5191 -0.6831  0.0588
 1705TIP3   OH226605   1.570   1.870  12.334  0.1414  0.1142  0.0672
 1705TIP3    H126606   1.650   1.821  12.316 -0.5788  0.1187 -3.6609
 1705TIP3    H226607   1.510   1.806  12.373  0.9681 -0.6216  0.1351
 1706TIP3   OH226608   1.669   1.868  12.890 -0.2704  0.2138  0.0714
 1706TIP3    H126609   1.629   1.845  12.974  1.1805  1.0179  1.0066
 1706TIP3    H226610   1.630   1.807  12.827 -0.6302 -1.0568  1.4987
 1707TIP3   OH226611   0.684   3.006   0.725 -0.1167  0.0058 -1.0112
 1707TIP3    H126612   0.732   2.995   0.644  1.3716  1.1045 -0.2982
 1707TIP3    H226613   0.750   3.026   0.791 -1.2715 -1.1436  0.5385
 1708TIP3   OH226614   0.688   4.301   5.185 -0.2455 -0.5959 -0.0852
 1708TIP3    H126615   0.721   4.261   5.266  0.3202 -0.2471 -0.1397
 1708TIP3    H226616   0.767   4.332   5.140 -0.5979 -0.3500 -0.5347
 1709TIP3   OH226617   6.071   4.560  11.936 -0.3239 -0.3804  0.2839
 1709TIP3    H126618   6.134   4.598  11.997 -0.9665  0.6447  0.3164
 1709TIP3    H226619   6.054   4.629  11.873 -1.8990 -0.4128  0.6391
 1710TIP3   OH226620   2.224   1.281   1.242  0.5294 -0.8975  0.2980
 1710TIP3    H126621   2.214   1.187   1.259 -0.5202 -0.3750  2.9631
 1710TIP3    H226622   2.155   1.301   1.179  1.1316 -2.0158 -0.7281
 1711TIP3   OH226623   5.583   1.218  13.007  0.3193  0.1972  0.4511
 1711TIP3    H126624   5.558   1.250  13.094 -0.8856 -1.9865  0.9440
 1711TIP3    H226625   5.500   1.193  12.966  0.8899  1.1047 -1.3017
 1712TIP3   OH226626   2.664   5.356   6.359 -0.2913  0.3267 -0.0283
 1712TIP3    H126627   2.758   5.358   6.376 -0.0703  2.7397 -1.3508
 1712TIP3    H226628   2.624   5.378   6.444  0.3607  0.4790  0.2394
 1713TIP3   OH226629   3.883   6.141   1.859  0.1875  0.3327 -0.3732
 1713TIP3    H126630   3.805   6.087   1.865  0.9301 -0.9545 -1.8762
 1713TIP3    H226631   3.954   6.084   1.888  0.5590  1.5381  1.1337
 1714TIP3   OH226632   3.056   1.348   4.176  0.0754  0.5451 -0.7311
 1714TIP3    H126633   3.063   1.380   4.085 -1.1790  0.7821 -0.7539
 1714TIP3    H226634   3.093   1.260   4.173  0.6133  0.7833 -1.3491
 1715TIP3   OH226635   4.375   0.596  15.870 -0.7534 -0.0263 -0.4207
 1715TIP3    H126636   4.429   0.523  15.841 -2.0415 -0.5907 -1.4549
 1715TIP3    H226637   4.328   0.562  15.946  1.2133  0.8512  1.2306
 1716TIP3   OH226638   5.619   0.387   1.871  0.1862 -0.3671  0.4013
 1716TIP3    H126639   5.712   0.368   1.861  0.4174  0.1088  1.4952
 1716TIP3    H226640   5.576   0.337   1.802  1.3149 -0.0465 -0.5543
 1717TIP3   OH226641   3.699   4.736  14.325  0.0883  1.1387 -0.4469
 1717TIP3    H126642   3.651   4.769  14.401  3.0191 -0.2564  2.0635
 1717TIP3    H226643   3.696   4.641  14.333  2.7848  1.0155 -0.5293
 1718TIP3   OH226644   4.356   3.676   4.356  0.6828  0.2243  0.2161
 1718TIP3    H126645   4.262   3.671   4.374 -0.3161  3.0859 -3.6487
 1718TIP3    H226646   4.376   3.769   4.356  3.0958 -0.2408 -0.9953
 1719TIP3   OH226647   5.521   6.401  13.249 -0.7407 -0.4389  0.5280
 1719TIP3    H126648   5.475   6.484  13.234 -0.6640 -0.1836  1.6750
 1719TIP3    H226649   5.589   6.400  13.181 -2.4349 -0.8523 -1.2038
 1720TIP3   OH226650   1.235   1.622   3.657  0.3404 -0.8141  0.4413
 1720TIP3    H126651   1.238   1.702   3.709 -0.0010 -0.8668  0.5420
 1720TIP3    H226652   1.275   1.555   3.713  0.5297 -0.7363  0.3985
 1721TIP3   OH226653   4.448   5.961   6.716  0.1279 -0.7539  0.4336
 1721TIP3    H126654   4.369   5.915   6.742 -0.5799  0.2408  0.0889
 1721TIP3    H226655   4.423   6.054   6.717  1.5384 -0.3585  1.2117
 1722TIP3   OH226656   2.146   4.277   1.596 -0.1655 -0.5027 -0.1801
 1722TIP3    H126657   2.085   4.204   1.609 -2.1513  1.0437 -0.5742
 1722TIP3    H226658   2.176   4.299   1.685 -0.6597 -0.8698  0.0791
 1723TIP3   OH226659   5.703   0.093   6.763 -0.2512 -0.0638  0.3945
 1723TIP3    H126660   5.701   0.039   6.842  1.8596 -2.4814 -1.1302
 1723TIP3    H226661   5.780   0.148   6.773 -0.1709 -0.1350  0.1717
 1724TIP3   OH226662   2.336   6.210  16.783  0.3797 -0.2307 -0.3930
 1724TIP3    H126663   2.354   6.170  16.868 -4.8203 -2.0232  0.0463
 1724TIP3    H226664   2.384   6.156  16.720 -1.0206 -3.0431  0.8686
 1725TIP3   OH226665   6.719   3.439   3.085  0.0518  0.1714 -0.1139
 1725TIP3    H126666   6.815   3.443   3.078  0.2688 -4.7012 -1.8012
 1725TIP3    H226667   6.701   3.465   3.176  2.9266  1.1357  0.2490
 1726TIP3   OH226668   4.076   6.436  13.997 -0.0270 -0.5678  0.5618
 1726TIP3    H126669   4.033   6.356  14.029 -1.0676 -0.0148  0.5661
 1726TIP3    H226670   4.051   6.441  13.905  0.4714 -0.5218  0.4267
 1727TIP3   OH226671   3.514   2.084  11.368 -0.3608 -0.2018  0.2762
 1727TIP3    H126672   3.565   2.040  11.300 -1.7466 -0.3232 -0.7161
 1727TIP3    H226673   3.552   2.171  11.375 -1.0862  0.2778 -1.6373
 1728TIP3   OH226674   3.094   0.093  17.106  0.0569  0.0481 -0.1065
 1728TIP3    H126675   3.146   0.081  17.027  1.7616  0.5807  0.9137
 1728TIP3    H226676   3.155   0.076  17.178 -0.7275  2.3920  1.1453
 1729TIP3   OH226677   2.947   3.592  16.385  0.3566 -0.3487  0.0843
 1729TIP3    H126678   2.864   3.553  16.413 -0.0036 -0.2196 -0.7890
 1729TIP3    H226679   2.961   3.558  16.297  1.0457 -0.0700  0.0774
 1730TIP3   OH226680   2.602   1.430  11.167  0.0262  0.3515 -0.0722
 1730TIP3    H126681   2.597   1.427  11.071  0.8443 -0.4285 -0.0942
 1730TIP3    H226682   2.555   1.352  11.196  1.5831 -0.5488  0.0857
 1731TIP3   OH226683   0.599   0.587  16.171  0.2927  0.6765  0.8568
 1731TIP3    H126684   0.544   0.647  16.120  0.3149 -0.5371 -0.6239
 1731TIP3    H226685   0.588   0.502  16.128  1.0937 -0.1646  2.2884
 1732TIP3   OH226686   5.027   0.730   1.217 -0.0689  0.0027  0.3578
 1732TIP3    H126687   5.077   0.691   1.146  1.2618 -2.0317  2.3122
 1732TIP3    H226688   5.028   0.824   1.199  2.1913 -0.2620 -1.0752
 1733TIP3   OH226689   2.285   5.881  11.030  0.0816 -0.0796 -0.0867
 1733TIP3    H126690   2.345   5.830  10.975  0.3976 -0.6967  0.8229
 1733TIP3    H226691   2.258   5.954  10.974 -0.3480 -1.2190 -1.3803
 1734TIP3   OH226692   4.101   6.248   1.315  0.3016 -0.0791 -0.0332
 1734TIP3    H126693   4.112   6.153   1.311  1.1939 -0.1889  3.4246
 1734TIP3    H226694   4.182   6.282   1.277  0.2743 -0.6989 -0.6682
 1735TIP3   OH226695   5.248   5.652  14.400  0.2822  0.0618  0.2564
 1735TIP3    H126696   5.217   5.735  14.435 -0.1592  0.1774 -0.3971
 1735TIP3    H226697   5.330   5.673  14.354  1.1276 -0.1751  1.6316
 1736TIP3   OH226698   6.467   5.252   4.623 -0.4339  0.1960 -0.1554
 1736TIP3    H126699   6.380   5.224   4.594 -0.7920  1.3882 -0.2509
 1736TIP3    H226700   6.484   5.200   4.701 -1.4554  0.3201  0.1597
 1737TIP3   OH226701   1.193   3.753   1.396 -0.5090 -0.1589 -0.1019
 1737TIP3    H126702   1.101   3.770   1.414 -0.8544 -0.2624 -1.6770
 1737TIP3    H226703   1.212   3.671   1.441 -0.6642  0.8598  1.8305
 1738TIP3   OH226704   0.256   0.241  15.571  0.3209  0.4479  0.2164
 1738TIP3    H126705   0.211   0.312  15.525  2.3383  1.7169  0.1560
 1738TIP3    H226706   0.300   0.284  15.644  1.0487 -0.8355  0.5468
 1739TIP3   OH226707   0.367   6.517   4.582  0.7048  0.2890 -0.4327
 1739TIP3    H126708   0.360   6.425   4.555  2.3953 -1.0244  3.2452
 1739TIP3    H226709   0.277   6.545   4.595  0.1625 -0.8031 -1.6968
 1740TIP3   OH226710   0.558   0.240  15.103  0.6758 -0.2797  0.3152
 1740TIP3    H126711   0.528   0.284  15.182  1.6475 -0.1585  0.6150
 1740TIP3    H226712   0.521   0.152  15.109  4.2209 -1.6705  3.0128
 1741TIP3   OH226713   2.345   1.840   2.703  0.3442 -0.3763  0.2272
 1741TIP3    H126714   2.328   1.901   2.632  1.9403  0.8247  0.8424
 1741TIP3    H226715   2.259   1.803   2.725 -0.1043 -1.0233 -2.5275
 1742TIP3   OH226716   6.713   3.974  12.705 -0.4471 -0.5909  0.5379
 1742TIP3    H126717   6.709   4.054  12.652  1.5666 -0.0700  1.1213
 1742TIP3    H226718   6.631   3.973  12.753 -1.3945  0.0338 -1.0198
 1743TIP3   OH226719   2.298   6.800   6.251 -0.8863 -0.0284  0.5286
 1743TIP3    H126720   2.239   6.860   6.206 -1.4561 -1.0513 -0.0971
 1743TIP3    H226721   2.383   6.813   6.208 -1.4948 -1.2082 -1.0264
 1744TIP3   OH226722   5.698   0.530  15.430  0.0483 -0.5062  0.2151
 1744TIP3    H126723   5.616   0.541  15.383  1.1916 -2.2111 -2.2791
 1744TIP3    H226724   5.679   0.466  15.498 -1.5428  1.7483  1.9573
 1745TIP3   OH226725   5.536   1.822  10.706  0.2681 -0.0276  0.5475
 1745TIP3    H126726   5.465   1.863  10.757 -1.3236 -1.5806 -0.3715
 1745TIP3    H226727   5.578   1.896  10.662 -1.0347  0.9017  0.7933
 1746TIP3   OH226728   0.237   2.520  13.992  0.0398  0.8306 -0.1380
 1746TIP3    H126729   0.331   2.506  13.981  0.2846  0.5770  2.1398
 1746TIP3    H226730   0.197   2.471  13.920  1.6332  0.7772 -1.0087
 1747TIP3   OH226731   6.642   0.521  16.580  0.1933  0.3923  0.3668
 1747TIP3    H126732   6.592   0.462  16.525  1.2996  0.6036 -0.8871
 1747TIP3    H226733   6.587   0.600  16.586 -0.7602 -0.3163  1.1052
 1748TIP3   OH226734   5.966   3.804   4.279 -0.5941  0.7355 -0.3551
 1748TIP3    H126735   5.919   3.865   4.336 -1.4963  1.7894 -2.1754
 1748TIP3    H226736   5.956   3.841   4.192  2.0309 -0.0654 -1.0235
 1749TIP3   OH226737   3.798   3.274   5.164 -0.1424  0.1834 -0.2091
 1749TIP3    H126738   3.846   3.211   5.111 -1.0611 -0.9698  0.3165
 1749TIP3    H226739   3.764   3.337   5.100  1.0863  0.3726 -0.6972
 1750TIP3   OH226740   1.722   0.171  16.765  0.1303 -0.6662 -0.2136
 1750TIP3    H126741   1.738   0.201  16.854 -0.5373  1.9058 -0.9210
 1750TIP3    H226742   1.756   0.081  16.763  0.5850 -0.5843  2.4687
 1751TIP3   OH226743   5.026   2.876  14.352  0.6086  0.2700  0.2567
 1751TIP3    H126744   4.985   2.926  14.283  0.3527  0.6548  0.6886
 1751TIP3    H226745   5.044   2.790  14.313 -0.0052  0.3197 -0.1225
 1752TIP3   OH226746   6.263   0.737  11.207  0.3996  0.4774  0.4503
 1752TIP3    H126747   6.338   0.790  11.179  0.5892 -0.8869 -1.7588
 1752TIP3    H226748   6.193   0.762  11.146  0.7503 -2.3938 -1.1886
 1753TIP3   OH226749   1.020   6.159   5.129  0.4643 -0.0808  0.0673
 1753TIP3    H126750   1.007   6.159   5.034 -1.9684 -2.5296  0.3386
 1753TIP3    H226751   1.053   6.072   5.149 -1.0575 -0.3106  1.6819
 1754TIP3   OH226752   4.509   5.959   5.118  0.2557  0.1167  0.1201
 1754TIP3    H126753   4.483   5.883   5.066  0.2885  0.1656  0.0328
 1754TIP3    H226754   4.599   5.976   5.091  0.7920 -0.7779  1.2728
 1755TIP3   OH226755   5.413   1.887  11.645 -0.4230  0.4664  0.1544
 1755TIP3    H126756   5.334   1.842  11.615  0.0476 -0.5257  0.3665
 1755TIP3    H226757   5.427   1.854  11.734 -0.2061  1.2202  0.4015
 1756TIP3   OH226758   1.008   4.624   1.251  0.1475  0.6033 -0.4293
 1756TIP3    H126759   0.927   4.644   1.299  0.1674 -0.3748  0.0269
 1756TIP3    H226760   1.044   4.547   1.296  0.1799 -0.3093 -1.9990
 1757TIP3   OH226761   3.245   5.933  15.499 -0.0481  0.0565  0.4862
 1757TIP3    H126762   3.151   5.949  15.488 -0.0329  0.4737  0.9597
 1757TIP3    H226763   3.267   5.977  15.581  0.5833  0.0485  0.3189
 1758TIP3   OH226764   2.786   0.275  13.959 -0.3171 -0.1666 -0.1621
 1758TIP3    H126765   2.858   0.216  13.940  0.2880  1.1005 -1.9136
 1758TIP3    H226766   2.707   0.223  13.940  0.1343 -1.2726  0.9356
 1759TIP3   OH226767   1.412   3.526   1.642  0.2863 -0.2916  0.6743
 1759TIP3    H126768   1.334   3.471   1.640 -0.8855  1.2512  2.3229
 1759TIP3    H226769   1.477   3.473   1.688  0.0700 -1.3963 -0.2768
 1760TIP3   OH226770   4.265   4.582  14.638  0.5200 -0.4934  1.0194
 1760TIP3    H126771   4.285   4.493  14.608  1.1408 -0.0386  0.0800
 1760TIP3    H226772   4.229   4.626  14.562 -0.3196 -0.0902  1.6354
 1761TIP3   OH226773   1.513   2.704  13.212  0.5089 -0.3891 -0.8906
 1761TIP3    H126774   1.561   2.686  13.293 -0.0590 -0.5455 -0.5859
 1761TIP3    H226775   1.536   2.795  13.190 -1.5491  0.6241  0.9926
 1762TIP3   OH226776   3.375   2.980  12.850 -0.2093  0.5177 -0.2566
 1762TIP3    H126777   3.377   2.959  12.757 -4.0506 -0.9277 -0.1207
 1762TIP3    H226778   3.397   2.898  12.894  2.3367  1.3788  0.1521
 1763TIP3   OH226779   0.387   6.228   4.916 -0.4241 -0.9380 -0.4544
 1763TIP3    H126780   0.456   6.169   4.946  0.3413  0.2014  0.0609
 1763TIP3    H226781   0.417   6.258   4.830  0.6943  1.0892  0.6240
 1764TIP3   OH226782   3.635   1.092  13.707 -0.6181  0.2336  0.5114
 1764TIP3    H126783   3.541   1.095  13.692 -0.5508  1.8457  0.3518
 1764TIP3    H226784   3.645   1.053  13.794 -1.3339 -1.8232 -0.2982
 1765TIP3   OH226785   2.734   4.574   2.099 -0.1818  0.4848 -0.0199
 1765TIP3    H126786   2.739   4.553   2.192  0.9108  0.4386 -0.0892
 1765TIP3    H226787   2.682   4.502   2.061 -0.0639  0.1582  0.4408
 1766TIP3   OH226788   3.167   0.438  15.029 -0.3471  0.5362  0.4603
 1766TIP3    H126789   3.124   0.372  14.975  1.3734  0.4886 -0.9152
 1766TIP3    H226790   3.171   0.399  15.116 -0.6110 -0.5958 -0.0293
 1767TIP3   OH226791   2.004   0.341   3.631 -0.4488 -0.2288  0.1392
 1767TIP3    H126792   2.078   0.294   3.593  0.0409  0.1596  0.6147
 1767TIP3    H226793   1.928   0.285   3.612  0.1569 -1.3301  0.8771
 1768TIP3   OH226794   5.839   6.792  14.926 -0.4813 -0.3686  0.5467
 1768TIP3    H126795   5.765   6.847  14.953 -0.4959 -0.2405  0.2558
 1768TIP3    H226796   5.803   6.703  14.925 -0.9468 -0.1906 -0.6325
 1769TIP3   OH226797   2.375   6.442  16.493 -0.5617  0.1162 -0.1857
 1769TIP3    H126798   2.385   6.347  16.492 -1.5431  0.0085 -0.7498
 1769TIP3    H226799   2.329   6.460  16.576  1.5151  0.3188  0.9522
 1770TIP3   OH226800   2.679   5.393  10.992  0.3989  0.6547 -0.6398
 1770TIP3    H126801   2.730   5.376  10.913  0.7525  0.9095 -0.4654
 1770TIP3    H226802   2.744   5.410  11.060  0.1155 -0.4604 -0.0862
 1771TIP3   OH226803   1.959   2.953   4.924  0.1703 -0.8021 -0.7386
 1771TIP3    H126804   1.940   3.039   4.962  3.5204 -1.0908  1.8579
 1771TIP3    H226805   1.893   2.895   4.962 -1.6603  0.4464 -1.9407
 1772TIP3   OH226806   3.438   3.861   1.537 -0.3550  0.5525  0.1268
 1772TIP3    H126807   3.519   3.815   1.560  0.7411  1.9533 -0.8268
 1772TIP3    H226808   3.369   3.797   1.555  0.9779 -0.8180  0.5809
 1773TIP3   OH226809   0.255   3.092   0.521 -0.1720 -0.3469  0.2362
 1773TIP3    H126810   0.319   3.066   0.455  0.7537 -0.2129  1.0728
 1773TIP3    H226811   0.202   3.013   0.536 -1.3593  0.0357 -1.7330
 1774TIP3   OH226812   6.105   2.960  15.803 -0.5392  0.3440  0.0982
 1774TIP3    H126813   6.140   3.042  15.767 -0.6528  1.1841  1.8751
 1774TIP3    H226814   6.172   2.931  15.864 -0.2330 -1.2250 -0.9500
 1775TIP3   OH226815   1.131   0.703   3.660  0.0157  0.1393 -0.5193
 1775TIP3    H126816   1.055   0.646   3.672  0.6693 -0.6917 -0.2139
 1775TIP3    H226817   1.135   0.756   3.739  0.7905 -1.0792  0.2781
 1776TIP3   OH226818   0.365   5.088   4.020 -0.6658  0.1931  0.3454
 1776TIP3    H126819   0.317   5.009   3.999 -1.0736  0.2055  1.2128
 1776TIP3    H226820   0.309   5.160   3.989  0.4120  0.1199 -1.8840
 1777TIP3   OH226821   3.785   6.776   3.057  0.4170  0.1197 -1.2537
 1777TIP3    H126822   3.817   6.842   3.118 -0.6835 -1.1821  0.7838
 1777TIP3    H226823   3.691   6.771   3.073 -0.0165  0.1945 -3.5238
 1778TIP3   OH226824   3.947   5.726  17.096  0.2379 -0.4952 -0.5367
 1778TIP3    H126825   3.911   5.687  17.016  0.1879 -0.0729 -0.7157
 1778TIP3    H226826   4.033   5.757  17.071 -1.0398  2.5950 -1.2824
 1779TIP3   OH226827   5.206   3.026   1.006 -0.7716  0.2515 -0.5821
 1779TIP3    H126828   5.111   3.026   1.020 -0.3984  0.7460  2.1419
 1779TIP3    H226829   5.231   3.118   1.008 -0.1077  0.0669 -0.3262
 1780TIP3   OH226830   5.372   1.795   1.263 -0.0011 -0.0459 -0.4756
 1780TIP3    H126831   5.365   1.886   1.288  1.9736 -0.1660  0.6081
 1780TIP3    H226832   5.423   1.796   1.182  0.4015 -0.2112 -0.2269
 1781TIP3   OH226833   5.759   1.210   3.570 -0.0758 -0.0530  0.3821
 1781TIP3    H126834   5.735   1.168   3.653 -0.4897  1.3983  1.0097
 1781TIP3    H226835   5.693   1.179   3.508 -1.0065  0.4956  1.0911
 1782TIP3   OH226836   1.875   0.151   0.490  0.6883  0.1928 -0.9684
 1782TIP3    H126837   1.934   0.204   0.542  0.1598 -0.8240  0.7015
 1782TIP3    H226838   1.932   0.096   0.436  1.3211 -1.3043  1.1545
 1783TIP3   OH226839   6.160   2.004   2.349 -0.1831 -0.1106 -0.2181
 1783TIP3    H126840   6.104   2.081   2.340  0.4022  0.1265 -2.1639
 1783TIP3    H226841   6.102   1.936   2.383 -0.9251  0.9332  0.6513
 1784TIP3   OH226842   4.499   5.418  16.899 -0.0506 -0.4804 -0.3796
 1784TIP3    H126843   4.426   5.480  16.897  0.9368  0.8213  2.0773
 1784TIP3    H226844   4.552   5.440  16.822  0.7244  2.3107  0.9107
 1785TIP3   OH226845   1.710   0.618  16.253  0.1702  0.0118  0.2097
 1785TIP3    H126846   1.683   0.652  16.338  1.2911  1.2148  0.1091
 1785TIP3    H226847   1.720   0.696  16.198  1.2508 -0.6032 -0.4879
 1786TIP3   OH226848   1.859   1.560   2.077 -0.2689 -0.4463 -0.0178
 1786TIP3    H126849   1.941   1.553   2.126 -0.6477 -1.7679  0.4566
 1786TIP3    H226850   1.802   1.614   2.132 -0.1187 -0.5046  0.1919
 1787TIP3   OH226851   5.933   0.213   6.515  0.2601 -0.0895  0.0870
 1787TIP3    H126852   5.955   0.256   6.598  0.4348 -0.8482  0.4348
 1787TIP3    H226853   5.968   0.124   6.524 -1.0461 -0.6411 -0.2046
 1788TIP3   OH226854   5.662   4.241   4.410  0.6144 -0.0786 -0.0141
 1788TIP3    H126855   5.671   4.165   4.468 -0.1258  0.5013  0.8775
 1788TIP3    H226856   5.705   4.312   4.456  0.8862  0.1614 -0.6318
 1789TIP3   OH226857   5.566   3.220  14.624 -0.4090 -0.4902 -0.3382
 1789TIP3    H126858   5.487   3.244  14.575 -1.2054 -1.1909  0.5602
 1789TIP3    H226859   5.597   3.303  14.662 -0.2904 -0.0960 -1.2986
 1790TIP3   OH226860   1.824   1.294   3.460 -0.1029  0.4560  0.1778
 1790TIP3    H126861   1.747   1.277   3.515 -1.7996  0.2128 -2.1972
 1790TIP3    H226862   1.895   1.248   3.504 -1.4278  0.1801  2.1149
 1791TIP3   OH226863   6.531   3.035   2.039 -0.0779 -0.4863 -0.1625
 1791TIP3    H126864   6.488   3.089   1.972  1.0432  0.5066 -0.0790
 1791TIP3    H226865   6.469   3.034   2.112  0.1500  1.1600  0.0595
 1792TIP3   OH226866   3.553   3.414  12.727 -0.1233 -0.2219  0.2180
 1792TIP3    H126867   3.596   3.351  12.669  1.1481 -0.4531  1.3783
 1792TIP3    H226868   3.488   3.362  12.774 -1.7458  0.1386 -1.5785
 1793TIP3   OH226869   1.231   4.711   5.994  0.0378  0.0110 -0.2530
 1793TIP3    H126870   1.197   4.723   6.082 -0.0471 -1.7229 -0.0348
 1793TIP3    H226871   1.325   4.696   6.006 -0.1969 -1.6062 -0.3259
 1794TIP3   OH226872   2.485   4.630   0.223 -0.6860  0.1148 -0.4281
 1794TIP3    H126873   2.405   4.654   0.176 -0.3727  2.8624  0.3447
 1794TIP3    H226874   2.549   4.697   0.196 -0.0801  0.8662  2.7212
 1795TIP3   OH226875   3.988   1.472   2.157 -0.4903 -0.2130  0.1550
 1795TIP3    H126876   3.994   1.432   2.070 -0.9641 -0.2997  0.1611
 1795TIP3    H226877   3.910   1.432   2.196 -0.3819 -0.0373  0.5486
 1796TIP3   OH226878   0.489   6.755   1.941  0.2244 -0.1865 -0.1031
 1796TIP3    H126879   0.451   6.680   1.895 -0.1728 -0.5912  0.8789
 1796TIP3    H226880   0.437   6.830   1.912  0.0083 -0.4340 -0.3511
 1797TIP3   OH226881   4.674   0.253   4.369  0.7495  0.0298 -0.1310
 1797TIP3    H126882   4.731   0.275   4.296 -0.3457  2.0991 -0.4131
 1797TIP3    H226883   4.627   0.335   4.388 -1.4813 -1.3814  0.6464
 1798TIP3   OH226884   5.350   5.716   3.347  0.4191  0.0558  0.3489
 1798TIP3    H126885   5.294   5.639   3.341 -0.3495  0.6966 -1.0672
 1798TIP3    H226886   5.291   5.790   3.334  1.4766  0.7721 -0.5144
 1799TIP3   OH226887   1.041   2.770   5.601  0.1071  0.2727  0.4205
 1799TIP3    H126888   1.016   2.861   5.588  2.2409  0.9978  1.2051
 1799TIP3    H226889   1.107   2.753   5.534 -1.0492 -1.0308 -0.4115
 1800TIP3   OH226890   6.023   4.856   3.955  0.4628 -0.1615 -0.0639
 1800TIP3    H126891   5.950   4.837   4.013  0.0209  0.1139 -0.5266
 1800TIP3    H226892   6.087   4.900   4.011  0.2528 -0.3594  0.3297
 1801TIP3   OH226893   5.195   3.041   3.184  0.1069 -0.1900  0.3320
 1801TIP3    H126894   5.249   3.120   3.187  0.5721 -0.4959  0.2021
 1801TIP3    H226895   5.115   3.068   3.138 -0.5069  0.6408  1.8615
 1802TIP3   OH226896   3.891   2.371   0.421 -0.0445 -0.5337 -0.2706
 1802TIP3    H126897   3.856   2.301   0.476  1.2941 -0.0962  1.2006
 1802TIP3    H226898   3.902   2.332   0.335 -1.4497 -1.4675 -0.0381
 1803TIP3   OH226899   5.074   6.805  11.623 -0.0895 -0.4206 -0.6511
 1803TIP3    H126900   5.042   6.745  11.690  0.7304  1.6357  1.6510
 1803TIP3    H226901   5.164   6.778  11.607 -0.8550 -2.0822 -2.3396
 1804TIP3   OH226902   1.298   4.599   1.134  0.7871  0.1502  0.2402
 1804TIP3    H126903   1.224   4.631   1.184  1.1815  0.8422  0.3906
 1804TIP3    H226904   1.359   4.673   1.131  0.7468  0.1373 -1.2975
 1805TIP3   OH226905   3.675   4.779  17.113 -0.2945  0.4913  0.0580
 1805TIP3    H126906   3.631   4.748  17.034  2.5709 -1.6343 -0.7951
 1805TIP3    H226907   3.643   4.720  17.182  0.6409 -0.5889 -0.4184
 1806TIP3   OH226908   0.509   1.992   5.683 -0.4693  0.3926 -0.0638
 1806TIP3    H126909   0.456   1.958   5.756 -1.4913  0.3293 -0.8344
 1806TIP3    H226910   0.476   1.946   5.606  2.7666 -1.9401 -0.1592
 1807TIP3   OH226911   4.078   6.621   1.545  0.3757 -0.2100 -0.2150
 1807TIP3    H126912   4.146   6.640   1.480 -0.6621  0.3135 -1.1774
 1807TIP3    H226913   4.092   6.685   1.614  1.4752 -0.7482  0.0616
 1808TIP3   OH226914   1.527   4.045   4.675  0.3595  0.0442 -0.0041
 1808TIP3    H126915   1.461   4.053   4.744  0.0325 -1.7093 -0.0982
 1808TIP3    H226916   1.479   4.009   4.600  1.8082 -3.2126  0.5725
 1809TIP3   OH226917   1.630   3.256   0.935  0.5747 -0.5466  0.5706
 1809TIP3    H126918   1.697   3.305   0.982  0.0049 -0.9245  1.8116
 1809TIP3    H226919   1.571   3.225   1.004 -1.1979  0.2791 -0.5468
 1810TIP3   OH226920   4.872   5.821  13.375 -0.5116  0.4241 -0.2522
 1810TIP3    H126921   4.867   5.826  13.470 -1.5889  1.4018 -0.3490
 1810TIP3    H226922   4.957   5.859  13.353 -1.6402  3.3210  0.1252
 1811TIP3   OH226923   3.666   3.534   0.329 -0.3521  0.0212 -0.1907
 1811TIP3    H126924   3.636   3.452   0.368  0.6324 -0.5356 -0.5711
 1811TIP3    H226925   3.627   3.603   0.382  2.3313 -0.7106  2.8424
 1812TIP3   OH226926   3.712   4.266   4.020 -0.1597 -0.1054 -0.5852
 1812TIP3    H126927   3.701   4.290   3.928 -4.2506  1.5051  0.2263
 1812TIP3    H226928   3.627   4.231   4.046  1.6127 -2.6517  2.0192
 1813TIP3   OH226929   6.377   4.149  17.221 -0.3474 -0.6454 -0.2152
 1813TIP3    H126930   6.397   4.136  17.128 -0.1357 -0.1684 -0.2374
 1813TIP3    H226931   6.299   4.203  17.221  1.4786  2.0716 -0.1128
 1814TIP3   OH226932   6.210   3.169  10.253 -0.2179 -0.4258 -0.4709
 1814TIP3    H126933   6.291   3.119  10.266 -0.7131 -0.9586  0.6349
 1814TIP3    H226934   6.150   3.135  10.320 -1.9313 -1.2584 -2.3667
 1815TIP3   OH226935   5.838   1.189  13.797 -0.2601  0.1390 -0.1322
 1815TIP3    H126936   5.761   1.244  13.780 -0.1686  0.1219 -0.6042
 1815TIP3    H226937   5.892   1.241  13.855 -1.5238 -0.6183  1.7778
 1816TIP3   OH226938   2.082   3.761   4.977  0.4960 -0.6285 -0.1089
 1816TIP3    H126939   2.117   3.683   5.019  0.1956 -1.0935 -0.7227
 1816TIP3    H226940   2.120   3.834   5.027  2.5396 -1.1042 -0.9308
 1817TIP3   OH226941   3.899   2.287  13.114 -0.8707 -0.5553  0.0724
 1817TIP3    H126942   3.816   2.298  13.068 -0.2162  0.1360 -0.9645
 1817TIP3    H226943   3.918   2.193  13.106 -0.7469 -0.4423 -1.1167
 1818TIP3   OH226944   6.010   6.491  14.678 -0.8756 -0.2898 -0.3188
 1818TIP3    H126945   5.921   6.481  14.645 -0.4628  1.5424 -2.0828
 1818TIP3    H226946   6.025   6.586  14.680 -0.3410 -0.3716  3.7954
 1819TIP3   OH226947   5.005   0.181   4.421  0.2972 -0.4190 -0.2302
 1819TIP3    H126948   5.011   0.135   4.505  0.7207 -0.3440 -0.2189
 1819TIP3    H226949   4.943   0.252   4.436  0.9091  0.0232  0.2171
 1820TIP3   OH226950   2.833   0.525  13.838 -0.1423 -0.6127  0.5876
 1820TIP3    H126951   2.840   0.442  13.885 -0.3549  0.0886  1.9133
 1820TIP3    H226952   2.923   0.551  13.821  0.0236 -0.0312  2.1986
 1821TIP3   OH226953   3.621   2.324  16.208  0.3255 -0.2534  0.2435
 1821TIP3    H126954   3.581   2.243  16.174 -0.5108 -0.4716  1.7324
 1821TIP3    H226955   3.575   2.394  16.162 -0.5798 -0.5610  0.6678
 1822TIP3   OH226956   1.720   3.731   4.718 -0.1949  0.4033  0.0511
 1822TIP3    H126957   1.675   3.784   4.784 -1.7269 -1.8658  0.8891
 1822TIP3    H226958   1.695   3.770   4.634 -0.3033  1.7334  0.6987
 1823TIP3   OH226959   3.033   1.503   3.205 -0.0645  0.6614  0.2106
 1823TIP3    H126960   3.025   1.545   3.120  1.6215  0.5317 -0.0334
 1823TIP3    H226961   3.028   1.575   3.268 -4.1779  0.4843  0.2140
 1824TIP3   OH226962   1.434   4.055  14.243 -0.2358 -0.5556  0.2727
 1824TIP3    H126963   1.512   4.000  14.256  1.0158  1.0594 -0.2289
 1824TIP3    H226964   1.362   3.992  14.234  0.8013 -2.0548  1.9943
 1825TIP3   OH226965   5.010   0.520   3.282 -0.3707  0.2307 -0.6258
 1825TIP3    H126966   5.105   0.521   3.283 -0.3794  0.9721  1.9758
 1825TIP3    H226967   4.984   0.612   3.288 -1.2657  0.0603 -1.6335
 1826TIP3   OH226968   1.689   1.879  14.540  0.1093 -0.5386  0.3844
 1826TIP3    H126969   1.737   1.960  14.555 -0.3304 -0.2569  0.2776
 1826TIP3    H226970   1.754   1.818  14.506 -0.0175  0.4106 -1.6043
 1827TIP3   OH226971   6.592   1.984  16.305 -0.1429 -0.1535  0.1466
 1827TIP3    H126972   6.518   1.923  16.305  0.0462 -0.4393  2.0892
 1827TIP3    H226973   6.617   1.989  16.398  2.5788 -0.4573 -0.5528
 1828TIP3   OH226974   6.275   0.585   1.503  0.7181 -0.0183 -0.5270
 1828TIP3    H126975   6.224   0.660   1.472 -0.7779 -1.8077 -2.5412
 1828TIP3    H226976   6.323   0.555   1.426  0.7660 -1.5456  0.0709
 1829TIP3   OH226977   6.005   0.548   1.319  0.2413 -0.2929 -0.4248
 1829TIP3    H126978   6.028   0.629   1.364 -0.4452  0.1369 -0.8237
 1829TIP3    H226979   5.925   0.518   1.363 -0.3136  0.0198 -1.2038
 1830TIP3   OH226980   6.321   2.841   2.371  0.6059  0.2888 -0.4896
 1830TIP3    H126981   6.379   2.842   2.447 -0.1647  1.0559  0.0975
 1830TIP3    H226982   6.335   2.754   2.332  2.2811  0.5253 -0.4785
 1831TIP3   OH226983   1.082   5.166   0.676 -0.0446 -0.2084 -0.4802
 1831TIP3    H126984   1.176   5.151   0.673  0.4416  2.2090  1.1228
 1831TIP3    H226985   1.060   5.169   0.769 -1.2051  1.8537 -0.7674
 1832TIP3   OH226986   5.901   1.164   1.664  0.4083 -0.0060 -0.4088
 1832TIP3    H126987   5.935   1.241   1.711  0.4339 -0.3663  0.1682
 1832TIP3    H226988   5.893   1.193   1.573  0.8473  0.5412 -0.2761
 1833TIP3   OH226989   5.626   2.491  11.878  0.9380  0.0326 -0.2393
 1833TIP3    H126990   5.594   2.433  11.810  1.6897  0.5899 -1.0858
 1833TIP3    H226991   5.713   2.518  11.848  1.4370 -0.0182  1.1248
 1834TIP3   OH226992   1.153   3.911  11.749  0.4985  0.0116  0.5162
 1834TIP3    H126993   1.089   3.875  11.811  0.5914 -0.6592  0.2353
 1834TIP3    H226994   1.233   3.921  11.799  1.3112 -2.9503 -0.0819
 1835TIP3   OH226995   2.133   5.991   3.352  0.0708 -0.1952  0.0402
 1835TIP3    H126996   2.128   6.074   3.400 -1.1108 -0.5202  0.4913
 1835TIP3    H226997   2.071   5.934   3.397 -0.6751 -0.6673 -1.5496
 1836TIP3   OH226998   6.597   0.351  12.864  0.1406  0.8193  0.2364
 1836TIP3    H126999   6.573   0.312  12.780  0.3510  0.4369  0.3558
 1836TIP3    H227000   6.631   0.438  12.842 -1.7402  1.5322  0.0984
 1837TIP3   OH227001   2.839   3.733   2.935 -0.0882  0.0865  0.2054
 1837TIP3    H127002   2.915   3.785   2.960 -0.6803  0.6658  0.8474
 1837TIP3    H227003   2.872   3.669   2.873  0.9819  0.1345  0.7174
 1838TIP3   OH227004   2.572   5.169   0.593  0.3172  0.1895  0.1517
 1838TIP3    H127005   2.571   5.236   0.524 -0.8587 -0.4560 -0.4769
 1838TIP3    H227006   2.649   5.190   0.646  0.4731  1.5003 -0.5686
 1839TIP3   OH227007   3.236   5.751  14.024  0.1911 -0.6220  0.0513
 1839TIP3    H127008   3.221   5.666  13.983 -0.9815  0.8360 -2.6820
 1839TIP3    H227009   3.156   5.770  14.072 -1.3254  0.8221 -2.9175
 1840TIP3   OH227010   2.996   3.367   4.156  0.3846 -0.1677  0.1361
 1840TIP3    H127011   2.962   3.289   4.199 -2.9077  0.5706 -0.9409
 1840TIP3    H227012   2.962   3.440   4.207  1.2925  0.6179 -0.3585
 1841TIP3   OH227013   5.000   3.975  16.051  0.0763  0.0104 -0.1335
 1841TIP3    H127014   4.968   3.959  16.140  0.6265  0.2391  0.1008
 1841TIP3    H227015   4.967   3.900  16.001 -0.4911  0.0319  0.1912
 1842TIP3   OH227016   5.516   2.734  10.668  0.5486 -0.4370 -0.3036
 1842TIP3    H127017   5.429   2.750  10.633  1.2958  2.8534 -0.7743
 1842TIP3    H227018   5.500   2.685  10.750 -1.4623 -3.1013 -2.1978
 1843TIP3   OH227019   4.590   1.667   5.363  0.5744 -0.5375 -0.2264
 1843TIP3    H127020   4.567   1.575   5.374  2.1165 -1.2271 -2.3984
 1843TIP3    H227021   4.685   1.669   5.377  0.3513  0.9830  1.2366
 1844TIP3   OH227022   1.865   6.579   2.761  0.2524 -0.1166 -0.0470
 1844TIP3    H127023   1.798   6.588   2.692  0.4646 -1.0936 -0.3817
 1844TIP3    H227024   1.885   6.670   2.786  0.2377  0.2595 -1.3356
 1845TIP3   OH227025   2.379   4.297  11.640  0.2128 -0.2989  0.2100
 1845TIP3    H127026   2.390   4.287  11.735 -0.0956  1.7968  0.4825
 1845TIP3    H227027   2.459   4.261  11.603  0.1304 -1.5934  1.2223
 1846TIP3   OH227028   3.392   2.403  13.936  0.1885  0.1576  0.2752
 1846TIP3    H127029   3.320   2.359  13.890 -1.0719  1.5872  0.8327
 1846TIP3    H227030   3.470   2.382  13.885 -0.7989 -0.4950 -0.9835
 1847TIP3   OH227031   3.697   0.953  15.877  0.3971  0.6744  0.0933
 1847TIP3    H127032   3.695   1.042  15.841  0.8352  0.8397  0.4698
 1847TIP3    H227033   3.680   0.965  15.970 -3.6941 -0.0083 -0.4738
 1848TIP3   OH227034   2.529   2.549  11.132 -0.5424  0.2447  0.1517
 1848TIP3    H127035   2.584   2.552  11.210  0.0649 -1.8962 -0.1662
 1848TIP3    H227036   2.503   2.640  11.117  1.7642  1.0913  1.1055
 1849TIP3   OH227037   1.439   5.138   3.408 -0.4960  0.3825  0.5078
 1849TIP3    H127038   1.376   5.128   3.336  1.4202  0.6857 -1.2814
 1849TIP3    H227039   1.427   5.228   3.438 -1.2375  0.2891  0.5029
 1850TIP3   OH227040   1.970   0.393  16.714  0.1574  0.1336 -0.1375
 1850TIP3    H127041   1.979   0.299  16.730  0.6625 -0.3848 -3.1476
 1850TIP3    H227042   1.878   0.404  16.690  0.6096 -0.0204 -2.0660
 1851TIP3   OH227043   5.038   5.797  13.637  0.4876  0.4922  0.0541
 1851TIP3    H127044   4.996   5.713  13.654  1.7058  0.1706  1.5226
 1851TIP3    H227045   5.003   5.856  13.703  2.0242  0.3198  1.0484
 1852TIP3   OH227046   3.339   6.501   2.538 -0.1023  0.0564 -0.4348
 1852TIP3    H127047   3.406   6.437   2.561 -0.0548 -0.0354 -0.8226
 1852TIP3    H227048   3.313   6.477   2.449 -0.3229  0.3713 -0.4550
 1853TIP3   OH227049   4.944   4.278   3.196  0.1521  0.3806  0.5347
 1853TIP3    H127050   4.919   4.366   3.224  1.2488  1.1440 -0.8132
 1853TIP3    H227051   4.909   4.271   3.107  0.3550 -0.4306  0.5182
 1854TIP3   OH227052   2.454   2.283  11.647 -0.2782 -0.3432  0.3095
 1854TIP3    H127053   2.465   2.207  11.705  0.0113  0.2233  1.0003
 1854TIP3    H227054   2.361   2.281  11.624 -0.4875 -0.3434  1.1197
 1855TIP3   OH227055   5.407   6.696  16.164 -0.1221  0.0258  0.2166
 1855TIP3    H127056   5.327   6.643  16.168 -0.1579  0.1730  1.4338
 1855TIP3    H227057   5.395   6.750  16.086 -0.7506 -0.6942 -0.1988
 1856TIP3   OH227058   1.233   5.908   3.322  0.2635 -0.9161 -0.2096
 1856TIP3    H127059   1.216   5.940   3.411  0.7878  0.3796 -0.5652
 1856TIP3    H227060   1.324   5.933   3.305  0.4313 -1.9136 -0.8019
 1857TIP3   OH227061   6.660   1.464   1.112 -0.0252  0.0635 -0.1582
 1857TIP3    H127062   6.703   1.414   1.043  1.7503  0.2859  0.7596
 1857TIP3    H227063   6.566   1.455   1.094  0.4156  0.5236 -2.8738
 1858TIP3   OH227064   0.447   1.464  15.096 -0.1124  0.0626 -0.4205
 1858TIP3    H127065   0.387   1.397  15.064  0.3720 -0.6942  0.2217
 1858TIP3    H227066   0.515   1.470  15.029 -0.2226 -0.0010 -0.5385
 1859TIP3   OH227067   6.553   1.546  11.146 -0.5400 -0.0980 -0.5289
 1859TIP3    H127068   6.633   1.520  11.100 -1.2975 -5.1157  0.7004
 1859TIP3    H227069   6.500   1.590  11.079  0.7763 -2.1100 -2.9850
 1860TIP3   OH227070   5.733   1.458  13.912 -0.3663 -0.6747  0.5427
 1860TIP3    H127071   5.677   1.487  13.840  1.9765  0.2412 -0.9626
 1860TIP3    H227072   5.720   1.523  13.980 -0.3279  0.1261 -0.2115
 1861TIP3   OH227073   1.601   2.405  11.829  0.2069 -0.4763 -0.3417
 1861TIP3    H127074   1.615   2.416  11.923 -0.9525  1.6009 -0.3874
 1861TIP3    H227075   1.667   2.461  11.788 -1.3795  1.2193 -0.6814
 1862TIP3   OH227076   4.858   6.765  14.085  0.2321 -0.2026  0.0293
 1862TIP3    H127077   4.944   6.733  14.114 -0.4120 -2.4185 -0.4025
 1862TIP3    H227078   4.875   6.802  13.999  1.0794  1.0920  0.7279
 1863TIP3   OH227079   0.304   0.125  12.835 -0.2619 -0.1914  0.0705
 1863TIP3    H127080   0.216   0.114  12.871  0.2981 -0.1878  1.4763
 1863TIP3    H227081   0.350   0.044  12.856 -0.2973 -0.6880 -1.7554
 1864TIP3   OH227082   2.829   1.593  11.774  0.5130  0.1606 -0.4533
 1864TIP3    H127083   2.863   1.647  11.845 -0.9864  0.8096 -0.2119
 1864TIP3    H227084   2.870   1.629  11.695 -0.5888  1.7738 -0.3160
 1865TIP3   OH227085   4.727   2.977   4.518  0.1504 -0.8216 -0.4786
 1865TIP3    H127086   4.646   3.019   4.490 -0.2083  0.7959  2.7521
 1865TIP3    H227087   4.703   2.928   4.596  2.4333  0.4341  1.0880
 1866TIP3   OH227088   2.700   0.760  16.277  0.5796 -0.0012 -0.0174
 1866TIP3    H127089   2.732   0.842  16.315  1.2511  0.1833 -0.9674
 1866TIP3    H227090   2.771   0.730  16.221  0.1705 -1.0278 -0.0046
 1867TIP3   OH227091   5.275   0.016  12.422 -0.3360  0.3288  0.5153
 1867TIP3    H127092   5.367   0.041  12.429  0.0050 -0.0297 -2.1487
 1867TIP3    H227093   5.227   0.097  12.437  0.4589  0.8548  0.2351
 1868TIP3   OH227094   2.160   6.177   0.920 -0.0093 -0.3078 -0.0320
 1868TIP3    H127095   2.122   6.091   0.902 -0.8504 -0.0526  0.4583
 1868TIP3    H227096   2.085   6.236   0.922  0.6279  0.5443 -0.9644
 1869TIP3   OH227097   3.940   5.780   3.007  0.0574  0.0819 -0.4006
 1869TIP3    H127098   3.867   5.758   2.949 -0.0775 -1.8182  0.4581
 1869TIP3    H227099   3.983   5.697   3.024  2.4034  1.1644 -0.8275
 1870TIP3   OH227100   6.341   2.165  11.432 -0.5978  0.6599  0.0835
 1870TIP3    H127101   6.292   2.246  11.444  1.9921  2.4323 -0.7440
 1870TIP3    H227102   6.433   2.194  11.425  0.1476 -2.0822 -2.5310
 1871TIP3   OH227103   0.866   3.518   3.878 -0.7350 -0.0137 -0.3612
 1871TIP3    H127104   0.870   3.562   3.963  1.1981 -0.9495  0.0605
 1871TIP3    H227105   0.940   3.554   3.828  0.5690 -2.3171 -0.1911
 1872TIP3   OH227106   5.049   1.129   0.134 -0.0412  0.7025  0.2531
 1872TIP3    H127107   4.982   1.067   0.162 -0.1456  1.7855  2.5951
 1872TIP3    H227108   5.127   1.104   0.183  0.8488  0.3858 -1.3062
 1873TIP3   OH227109   4.936   6.232   5.537 -0.3496 -0.3154 -0.0448
 1873TIP3    H127110   4.902   6.143   5.529 -0.7298 -0.3035  1.3639
 1873TIP3    H227111   4.860   6.285   5.563  0.6878 -0.2849  3.1057
 1874TIP3   OH227112   2.513   4.656   3.336 -0.7547 -0.1614  0.1650
 1874TIP3    H127113   2.565   4.622   3.263  0.1605  0.0162  0.7227
 1874TIP3    H227114   2.539   4.747   3.344 -0.9838 -0.1313  0.5984
 1875TIP3   OH227115   1.450   3.446   5.402  0.0806  0.2275  0.2064
 1875TIP3    H127116   1.487   3.448   5.490  1.4393  1.5560 -0.3738
 1875TIP3    H227117   1.356   3.456   5.415  0.2533  0.2595  1.5156
 1876TIP3   OH227118   3.685   2.287   2.573 -0.3494 -0.2188  0.4849
 1876TIP3    H127119   3.724   2.200   2.574 -1.2820 -0.6441  0.8546
 1876TIP3    H227120   3.722   2.330   2.496  0.1124 -0.9411  0.3003
 1877TIP3   OH227121   4.622   4.222  17.240  0.0905 -0.2013 -0.1618
 1877TIP3    H127122   4.568   4.222  17.161  0.5688 -0.1872 -0.4905
 1877TIP3    H227123   4.567   4.179  17.306 -0.4105  0.0112 -0.4305
 1878TIP3   OH227124   3.968   3.997  15.196  0.0829  0.2782 -0.1253
 1878TIP3    H127125   3.981   4.083  15.154 -1.9912 -1.2304 -4.1513
 1878TIP3    H227126   4.027   3.939  15.148  0.3604 -0.8676  1.5849
 1879TIP3   OH227127   6.502   1.299   6.211  0.4926  0.3921  0.3983
 1879TIP3    H127128   6.414   1.316   6.246  0.6172  1.2361  0.3234
 1879TIP3    H227129   6.561   1.320   6.284  0.8817  4.2147 -0.9212
 1880TIP3   OH227130   2.555   2.705  17.015  0.5455 -0.7416 -0.0783
 1880TIP3    H127131   2.468   2.714  17.054  1.2394 -2.5928  2.0176
 1880TIP3    H227132   2.607   2.775  17.054  0.2887 -0.2862 -0.5409
 1881TIP3   OH227133   2.192   2.976   3.107  0.1600 -0.1133 -0.5031
 1881TIP3    H127134   2.288   2.984   3.112  0.2042 -0.2161 -1.0935
 1881TIP3    H227135   2.173   2.889   3.141  0.6010 -1.5157 -3.6289
 1882TIP3   OH227136   5.616   1.024  11.984 -0.2139 -0.0976  0.1965
 1882TIP3    H127137   5.657   1.103  12.018 -0.3147  0.0925 -0.1247
 1882TIP3    H227138   5.644   0.955  12.045  0.6644  0.0098 -0.0773
 1883TIP3   OH227139   1.671   3.929   2.959  0.3959 -0.3877 -0.6066
 1883TIP3    H127140   1.725   3.967   3.029 -0.5786  0.7448 -0.4635
 1883TIP3    H227141   1.706   3.967   2.879  1.3942 -1.5465 -0.7458
 1884TIP3   OH227142   0.590   6.644  15.404 -0.4269 -0.3775  0.5059
 1884TIP3    H127143   0.599   6.591  15.483  0.4655  2.0545  2.0843
 1884TIP3    H227144   0.501   6.679  15.409 -0.5293 -0.5834  0.1715
 1885TIP3   OH227145   4.052   2.770   5.658 -0.0021 -0.5294  0.4559
 1885TIP3    H127146   3.958   2.770   5.677 -0.4125  0.2086 -1.4613
 1885TIP3    H227147   4.075   2.863   5.653  0.9122 -0.7069  1.2402
 1886TIP3   OH227148   4.422   4.339  13.623 -0.1204  0.3860 -0.1588
 1886TIP3    H127149   4.512   4.366  13.640  0.3558  0.2091 -2.1992
 1886TIP3    H227150   4.429   4.248  13.593 -1.1405 -0.1403  1.1877
 1887TIP3   OH227151   5.602   4.248   1.589  0.3371 -0.1597 -0.0115
 1887TIP3    H127152   5.617   4.303   1.665  2.6236 -0.6508 -0.0645
 1887TIP3    H227153   5.564   4.167   1.625 -0.9712  0.5814  0.3006
 1888TIP3   OH227154   3.977   0.477  11.814 -0.2376  0.5339 -0.3892
 1888TIP3    H127155   3.922   0.432  11.751  0.0702 -0.6013  0.1463
 1888TIP3    H227156   3.943   0.452  11.899  1.1489 -0.2635 -0.0475
 1889TIP3   OH227157   4.768   1.028   2.155  0.2519  0.0526  0.1969
 1889TIP3    H127158   4.840   0.977   2.120  0.1856  0.7504 -0.9878
 1889TIP3    H227159   4.703   1.031   2.084 -0.7758 -0.2433  1.0987
 1890TIP3   OH227160   0.928   3.290   4.109  0.6182 -1.3221  0.3303
 1890TIP3    H127161   0.958   3.380   4.122 -0.3102 -0.9506 -0.0636
 1890TIP3    H227162   1.000   3.236   4.141  0.5279 -0.4510  2.0692
 1891TIP3   OH227163   3.699   0.446  13.975  0.6169 -0.0460  0.4906
 1891TIP3    H127164   3.740   0.533  13.983 -0.3099  0.2550  2.3730
 1891TIP3    H227165   3.665   0.429  14.063 -0.0171 -1.9263 -0.1162
 1892TIP3   OH227166   3.431   5.628  12.345 -0.3599  0.0174  0.1316
 1892TIP3    H127167   3.522   5.656  12.357 -0.4382  0.8415 -1.1910
 1892TIP3    H227168   3.397   5.623  12.435  1.4838 -2.0464  0.7685
 1893TIP3   OH227169   4.424   0.317   5.419 -0.0449  0.6474 -0.3597
 1893TIP3    H127170   4.358   0.255   5.390 -1.4385  1.9052  0.0013
 1893TIP3    H227171   4.379   0.369   5.486  1.1935  1.7781 -0.3846
 1894TIP3   OH227172   1.259   5.945   5.085 -0.0513  0.5064 -0.6609
 1894TIP3    H127173   1.280   6.033   5.116  1.0773  0.7153 -1.9576
 1894TIP3    H227174   1.296   5.887   5.151 -1.4338  1.0126  0.5755
 1895TIP3   OH227175   4.829   6.682   4.293 -0.3840  0.1379 -0.2298
 1895TIP3    H127176   4.869   6.640   4.369  1.1203  0.6873 -0.7031
 1895TIP3    H227177   4.748   6.721   4.327  0.6860  1.0977  1.2670
 1896TIP3   OH227178   0.639   6.757  15.725 -0.3644 -0.3754  0.7860
 1896TIP3    H127179   0.609   6.806  15.801 -0.7236 -0.8794  0.9735
 1896TIP3    H227180   0.656   6.823  15.658 -1.7438 -0.0615  0.7266
 1897TIP3   OH227181   1.559   2.349   6.042  0.2932  0.4156 -0.0054
 1897TIP3    H127182   1.654   2.349   6.055  0.4887  0.4206 -1.3440
 1897TIP3    H227183   1.541   2.431   5.994 -0.4581  0.7047  0.7592
 1898TIP3   OH227184   5.303   5.926  13.034 -0.0427 -0.1554 -0.0621
 1898TIP3    H127185   5.367   5.923  12.964  1.3218 -1.5391  1.2009
 1898TIP3    H227186   5.242   5.855  13.015  0.1136 -0.2919 -0.0547
 1899TIP3   OH227187   6.756   1.175   5.923  0.4146  0.3144  0.7250
 1899TIP3    H127188   6.842   1.153   5.959  0.2211 -1.8099 -0.0378
 1899TIP3    H227189   6.694   1.152   5.992  0.3407  0.1069  0.5915
 1900TIP3   OH227190   2.464   4.272  15.728 -0.2506 -0.0049 -0.1314
 1900TIP3    H127191   2.375   4.239  15.717  0.1255 -0.6459 -1.2975
 1900TIP3    H227192   2.453   4.366  15.746 -1.2273 -0.4075  1.3685
 1901TIP3   OH227193   4.029   4.808  13.207  0.2366 -0.0632 -0.7124
 1901TIP3    H127194   4.104   4.819  13.149  1.6868  0.4961  1.2182
 1901TIP3    H227195   4.055   4.736  13.265 -0.6627  0.2343  0.0594
 1902TIP3   OH227196   5.794   5.079   4.568  0.1544 -0.0274 -0.0386
 1902TIP3    H127197   5.740   5.024   4.625 -2.0170  0.4185 -1.5901
 1902TIP3    H227198   5.769   5.169   4.590  0.4427  0.1962 -0.5946
 1903TIP3   OH227199   1.198   2.810   3.190 -0.1972 -0.2446  0.3040
 1903TIP3    H127200   1.224   2.731   3.142  0.2527  1.6864 -2.7331
 1903TIP3    H227201   1.107   2.825   3.162 -0.6684 -0.3088  1.7665
 1904TIP3   OH227202   1.331   4.662   5.559 -0.3922 -0.6209  0.0900
 1904TIP3    H127203   1.335   4.569   5.580 -0.3545 -0.2882  1.5703
 1904TIP3    H227204   1.239   4.686   5.572 -0.4577 -0.5120 -0.5640
 1905TIP3   OH227205   0.934   2.030  16.663 -0.0660 -0.0506  0.3667
 1905TIP3    H127206   0.905   2.121  16.668  2.8067  0.8801  1.0106
 1905TIP3    H227207   0.988   2.026  16.584  0.1669 -1.0993  0.5680
 1906TIP3   OH227208   2.750   6.249  15.205 -0.2164  0.1433 -0.2674
 1906TIP3    H127209   2.810   6.276  15.275  1.3366 -0.6747 -1.2532
 1906TIP3    H227210   2.710   6.168  15.238  0.7584 -0.4192 -0.4389
 1907TIP3   OH227211   2.400   5.252  17.286  0.1910  0.3691  0.0016
 1907TIP3    H127212   2.370   5.224  17.372 -0.0331  0.2366 -0.1186
 1907TIP3    H227213   2.437   5.339  17.300  0.7962  0.0539  0.3548
 1908TIP3   OH227214   5.851   0.209   1.158 -0.1784  0.1560  0.2064
 1908TIP3    H127215   5.881   0.123   1.130  1.0284  0.6294  0.0205
 1908TIP3    H227216   5.834   0.257   1.077  1.7552  0.9812  0.2598
 1909TIP3   OH227217   3.635   0.205  13.121  0.3460 -0.6424 -0.3452
 1909TIP3    H127218   3.567   0.235  13.060 -0.3595 -1.2301  0.1494
 1909TIP3    H227219   3.684   0.139  13.071 -0.5226 -1.4640 -0.1331
 1910TIP3   OH227220   5.236   6.006   1.517  0.1385 -0.2482 -0.3318
 1910TIP3    H127221   5.145   6.001   1.488  0.4459 -0.9199 -1.2117
 1910TIP3    H227222   5.287   6.008   1.436  0.9370 -0.5161  0.1508
 1911TIP3   OH227223   4.028   3.442   0.236  0.1001 -0.0696  0.8325
 1911TIP3    H127224   3.937   3.463   0.258  0.2757 -0.3389  1.8877
 1911TIP3    H227225   4.023   3.357   0.192  0.1400 -1.9688  4.2945
 1912TIP3   OH227226   2.825   3.150  14.963  0.1367 -0.1153  0.2234
 1912TIP3    H127227   2.735   3.127  14.983  0.1941 -0.1413  0.4611
 1912TIP3    H227228   2.847   3.220  15.026  0.7270 -1.0879  1.1285
 1913TIP3   OH227229   3.606   3.513  11.360  0.2016  0.1379 -0.5587
 1913TIP3    H127230   3.598   3.486  11.268 -0.1601  0.7425 -0.7078
 1913TIP3    H227231   3.694   3.488  11.385  0.0273 -0.7801 -0.8310
 1914TIP3   OH227232   0.667   2.380   4.397  0.1312 -0.1854 -0.9167
 1914TIP3    H127233   0.613   2.303   4.416 -1.5318  1.4442  1.2654
 1914TIP3    H227234   0.606   2.441   4.354  0.7309  0.9235 -0.2073
 1915TIP3   OH227235   0.911   5.462   1.840  0.2269 -0.0469  0.3151
 1915TIP3    H127236   0.935   5.540   1.891  0.9800 -0.8292  1.1788
 1915TIP3    H227237   0.981   5.453   1.776 -0.0947  0.2429 -0.0781
 1916TIP3   OH227238   6.314   3.818   1.386  0.1133 -0.0946  0.1888
 1916TIP3    H127239   6.265   3.737   1.372  0.1258 -0.0359 -0.1891
 1916TIP3    H227240   6.278   3.880   1.323 -1.0343  0.6920  1.5809
 1917TIP3   OH227241   1.238   6.172   4.054  0.6536  0.6401 -0.2032
 1917TIP3    H127242   1.190   6.239   4.103 -0.3621  0.7413 -1.3106
 1917TIP3    H227243   1.278   6.219   3.982 -0.8508 -0.0786 -1.5373
 1918TIP3   OH227244   4.178   2.066  12.245 -0.1450  0.3514  0.6093
 1918TIP3    H127245   4.243   2.002  12.275 -0.9584 -1.0385 -0.5171
 1918TIP3    H227246   4.145   2.030  12.162  0.7776  3.2029 -1.0788
 1919TIP3   OH227247   0.290   1.927  16.788 -0.1349 -0.2012 -0.2148
 1919TIP3    H127248   0.320   2.008  16.748  0.4109  0.5733  1.6981
 1919TIP3    H227249   0.368   1.891  16.831 -0.5752 -1.2686 -0.2835
 1920TIP3   OH227250   1.879   1.138   0.800 -0.4602 -0.1339 -0.0107
 1920TIP3    H127251   1.859   1.220   0.754  0.0817  0.3360  0.5819
 1920TIP3    H227252   1.818   1.137   0.874 -0.8766 -0.5658 -0.3539
 1921TIP3   OH227253   2.159   3.122  11.854 -0.0025 -0.4563 -0.3510
 1921TIP3    H127254   2.086   3.065  11.875 -0.3750  0.2641  0.3422
 1921TIP3    H227255   2.237   3.069  11.872 -0.3494 -1.2681 -1.2280
 1922TIP3   OH227256   3.459   0.074   0.614 -0.2619  0.2427  0.0122
 1922TIP3    H127257   3.372   0.098   0.582 -1.0449 -1.4179  0.8089
 1922TIP3    H227258   3.500   0.157   0.639 -0.0601  1.4960 -4.1513
 1923TIP3   OH227259   2.561   4.361   3.370 -0.3063 -0.3032 -0.0402
 1923TIP3    H127260   2.538   4.373   3.278  1.3917  0.9872 -0.3294
 1923TIP3    H227261   2.504   4.291   3.401  0.2887 -1.9291 -2.5218
 1924TIP3   OH227262   4.541   2.541  16.976  0.4440 -0.3054 -0.0765
 1924TIP3    H127263   4.543   2.450  17.004 -1.3330 -0.1386  0.6336
 1924TIP3    H227264   4.453   2.554  16.941  0.8644  0.9889 -0.6910
 1925TIP3   OH227265   6.005   6.340   6.220  0.1834  0.0526  0.3389
 1925TIP3    H127266   5.928   6.287   6.240 -0.0856  0.7673  1.2298
 1925TIP3    H227267   6.058   6.337   6.299  1.7924 -1.6013 -0.7528
 1926TIP3   OH227268   2.975   0.429   5.671 -0.4758 -0.4819  0.3437
 1926TIP3    H127269   2.946   0.410   5.582 -0.2561  0.8843 -0.0251
 1926TIP3    H227270   2.897   0.458   5.717 -0.1118  1.2007 -0.0856
 1927TIP3   OH227271   0.168   2.736   5.898  0.5726  0.4600  0.1691
 1927TIP3    H127272   0.085   2.713   5.856  1.0296 -0.2999 -0.3236
 1927TIP3    H227273   0.223   2.769   5.827  1.4346 -1.0754  0.1161
 1928TIP3   OH227274   0.237   4.518   4.938  0.1520  0.4598  0.5862
 1928TIP3    H127275   0.247   4.470   5.021  0.9058  0.9312  0.7758
 1928TIP3    H227276   0.283   4.601   4.953  1.0808  0.1656 -0.6244
 1929TIP3   OH227277   4.127   0.712   4.478 -0.1616 -0.3764  0.4285
 1929TIP3    H127278   4.190   0.772   4.517 -0.1450 -0.2278  0.1690
 1929TIP3    H227279   4.138   0.722   4.384  0.7943 -1.7961  0.3714
 1930TIP3   OH227280   2.083   3.882   1.825  0.3927 -0.1750  0.3351
 1930TIP3    H127281   2.079   3.906   1.918  1.0294 -0.0035  0.3203
 1930TIP3    H227282   2.036   3.799   1.821  0.8090 -0.4487  0.9093
 1931TIP3   OH227283   5.231   5.026   3.422  0.2072  0.1495  0.3297
 1931TIP3    H127284   5.145   4.983   3.418 -0.5597  1.4623  1.6911
 1931TIP3    H227285   5.278   4.978   3.490 -1.0789  2.1096  2.6952
 1932TIP3   OH227286   2.075   0.535   5.876  0.4164  0.0695 -0.2172
 1932TIP3    H127287   2.093   0.523   5.969  2.9188 -0.5244 -0.7365
 1932TIP3    H227288   2.102   0.625   5.857 -0.2713  0.2543 -0.3401
 1933TIP3   OH227289   0.595   4.176   4.529  0.3003 -0.1114 -0.2152
 1933TIP3    H127290   0.519   4.182   4.587 -0.2332 -1.0684 -0.8068
 1933TIP3    H227291   0.639   4.261   4.538  0.0643 -0.1471  1.3595
 1934TIP3   OH227292   5.904   2.331  14.393 -0.2028 -0.4576 -0.4201
 1934TIP3    H127293   5.912   2.380  14.475 -2.7904  0.3158 -0.5953
 1934TIP3    H227294   5.860   2.250  14.417 -0.8909 -0.2673 -1.0336
 1935TIP3   OH227295   4.211   5.723   1.342  0.6519  0.2098 -0.6944
 1935TIP3    H127296   4.249   5.668   1.410  1.8098  2.0379  0.1744
 1935TIP3    H227297   4.173   5.797   1.389 -2.9773 -0.9666 -1.6589
 1936TIP3   OH227298   2.944   3.733  15.276 -0.1188  0.7677 -0.1281
 1936TIP3    H127299   3.007   3.793  15.317 -1.9459  1.7912  1.2513
 1936TIP3    H227300   2.915   3.677  15.348  1.5640 -1.8561 -1.3933
 1937TIP3   OH227301   1.741   5.740  15.215  0.1165 -0.0973  0.5166
 1937TIP3    H127302   1.832   5.742  15.184 -0.0602  0.6021  0.0259
 1937TIP3    H227303   1.695   5.801  15.157 -0.2909  0.9697  1.9246
 1938TIP3   OH227304   4.411   4.415   1.513  0.1668 -0.2418  0.0840
 1938TIP3    H127305   4.433   4.332   1.554 -0.2831  0.2920  1.4340
 1938TIP3    H227306   4.315   4.415   1.509  0.1666  0.2145  0.0870
 1939TIP3   OH227307   1.621   1.252   1.990 -0.0544 -0.1180 -0.3622
 1939TIP3    H127308   1.682   1.279   1.921  1.3516 -1.1504  0.4552
 1939TIP3    H227309   1.562   1.191   1.947 -0.5132  0.8739 -1.1612
 1940TIP3   OH227310   0.168   2.087  11.517  0.0774 -0.5622  0.1086
 1940TIP3    H127311   0.096   2.046  11.468  0.2881 -0.7903 -0.0112
 1940TIP3    H227312   0.157   2.181  11.500 -0.4882 -0.5535  0.4950
 1941TIP3   OH227313   4.215   4.807   1.764 -0.6320 -0.0898 -0.1519
 1941TIP3    H127314   4.169   4.833   1.685 -1.1326  0.7305  0.4108
 1941TIP3    H227315   4.149   4.807   1.833 -0.0786 -0.1977  0.3921
 1942TIP3   OH227316   0.875   1.041   4.032 -0.3096  0.4203 -0.0749
 1942TIP3    H127317   0.861   0.946   4.037  0.8627  0.2865  0.7795
 1942TIP3    H227318   0.956   1.051   3.983 -1.3806  1.0579 -1.7436
 1943TIP3   OH227319   1.184   1.987  13.731 -0.1981 -0.0728 -0.5123
 1943TIP3    H127320   1.108   1.940  13.695 -1.7988  0.0461  2.5986
 1943TIP3    H227321   1.238   1.919  13.771  1.7158 -0.2350 -3.1906
 1944TIP3   OH227322   4.845   1.063  11.317  0.9499 -0.0735 -0.6048
 1944TIP3    H127323   4.873   1.009  11.390  0.5851 -2.9867 -2.5169
 1944TIP3    H227324   4.764   1.104  11.346 -0.0714 -2.4959  0.0888
 1945TIP3   OH227325   5.817   0.305   6.204 -0.7643  0.4859  0.0868
 1945TIP3    H127326   5.848   0.287   6.115 -0.1336 -0.6644  0.5339
 1945TIP3    H227327   5.743   0.364   6.191 -0.2796  0.8455 -1.1670
 1946TIP3   OH227328   3.278   5.356   3.232 -0.1034  0.0592 -0.1311
 1946TIP3    H127329   3.205   5.399   3.276 -1.4196 -1.0405 -1.1806
 1946TIP3    H227330   3.249   5.347   3.141  1.3192 -0.4501 -0.5517
 1947TIP3   OH227331   1.048   3.983  12.252 -0.2075 -0.8404 -0.8715
 1947TIP3    H127332   1.135   4.009  12.282 -0.5612 -0.1196 -0.4459
 1947TIP3    H227333   0.996   3.977  12.332 -0.9381  0.2362 -1.2468
 1948TIP3   OH227334   4.896   4.644  15.444  0.0634  0.6929 -0.4929
 1948TIP3    H127335   4.899   4.735  15.473 -0.1691  1.7755 -3.7322
 1948TIP3    H227336   4.812   4.635  15.399 -0.0980 -1.2562  0.1324
 1949TIP3   OH227337   3.687   1.467  10.565 -0.7322  1.0407  0.3737
 1949TIP3    H127338   3.735   1.457  10.483 -1.0384 -0.8266  0.4052
 1949TIP3    H227339   3.647   1.381  10.581 -1.0635  1.5096  2.2366
 1950TIP3   OH227340   5.345   5.428  14.537  0.2656 -0.3240 -0.2734
 1950TIP3    H127341   5.302   5.509  14.509  0.6224  0.4060  1.2577
 1950TIP3    H227342   5.284   5.389  14.599  1.4759  0.3539  1.3668
 1951TIP3   OH227343   6.024   0.054  16.389  0.1757  0.4127 -0.0228
 1951TIP3    H127344   6.112   0.018  16.392  0.9016  2.0632 -0.8831
 1951TIP3    H227345   5.967  -0.023  16.376  1.5072 -0.6147  0.1367
 1952TIP3   OH227346   5.550   4.784   4.107 -0.4126 -0.5645  0.0757
 1952TIP3    H127347   5.516   4.756   4.022 -1.3110 -0.8400  0.5176
 1952TIP3    H227348   5.644   4.770   4.101 -0.0961  1.8867 -1.8251
 1953TIP3   OH227349   5.322   2.617  16.565  0.0924  0.3584  0.5956
 1953TIP3    H127350   5.245   2.570  16.595  0.6227  0.1511  1.6669
 1953TIP3    H227351   5.395   2.558  16.582  0.4915  0.5380 -0.4473
 1954TIP3   OH227352   3.803   3.786   0.223  0.3363  0.3867  0.4679
 1954TIP3    H127353   3.737   3.726   0.260  1.0290  0.8383  2.4914
 1954TIP3    H227354   3.768   3.873   0.239 -0.3992  0.5800 -1.9760
 1955TIP3   OH227355   6.187   3.782  10.862  0.2794 -0.1251  0.4265
 1955TIP3    H127356   6.238   3.804  10.784  0.6893  1.5345  1.1316
 1955TIP3    H227357   6.252   3.765  10.930 -0.0691  0.9482  1.0519
 1956TIP3   OH227358   2.248   3.042  15.467 -0.3477  0.0718  0.0663
 1956TIP3    H127359   2.202   3.110  15.517 -0.3424 -0.0193  0.1972
 1956TIP3    H227360   2.295   3.089  15.399 -1.4430  0.0693 -0.6865
 1957TIP3   OH227361   1.033   0.561   5.801 -0.3489  0.1554 -0.6334
 1957TIP3    H127362   1.048   0.655   5.816 -2.2281  0.6592 -1.7854
 1957TIP3    H227363   0.954   0.541   5.851 -0.4492 -0.6236 -1.1026
 1958TIP3   OH227364   4.822   1.606  12.172 -0.3561 -0.2002 -0.3402
 1958TIP3    H127365   4.802   1.604  12.265  1.1103  1.9421  0.0575
 1958TIP3    H227366   4.762   1.542  12.133 -2.3004  0.2596  1.7972
 1959TIP3   OH227367   4.493   4.068   4.159  0.3493  0.0566 -0.2253
 1959TIP3    H127368   4.450   4.121   4.226  0.4741  1.0521 -0.9237
 1959TIP3    H227369   4.573   4.117   4.138  1.6988 -1.6198  0.8572
 1960TIP3   OH227370   6.219   5.255   4.783 -0.0930  0.3541  0.2826
 1960TIP3    H127371   6.143   5.204   4.755 -0.8094  2.5531 -2.0343
 1960TIP3    H227372   6.196   5.345   4.760  2.9024  1.1570  0.2669
 1961TIP3   OH227373   0.917   3.033   1.523 -0.7073  0.6562 -0.2740
 1961TIP3    H127374   0.980   3.054   1.593  0.1872 -1.0910 -0.5147
 1961TIP3    H227375   0.835   3.016   1.570  0.0049 -0.9845  0.4419
 1962TIP3   OH227376   1.843   3.158   6.229  0.5635  0.2376  0.2865
 1962TIP3    H127377   1.753   3.125   6.232  0.4416  0.5213 -0.2346
 1962TIP3    H227378   1.845   3.228   6.294  0.6299 -0.3130  0.8842
 1963TIP3   OH227379   4.413   0.831   5.299 -0.7599 -0.2193 -0.5257
 1963TIP3    H127380   4.494   0.843   5.348 -1.8890  0.5225  1.1861
 1963TIP3    H227381   4.431   0.759   5.239  1.1140 -0.1509 -0.0583
 1964TIP3   OH227382   5.225   1.122   4.273 -0.0158 -0.4568 -0.9301
 1964TIP3    H127383   5.220   1.198   4.332  0.2212 -0.7548 -0.5248
 1964TIP3    H227384   5.318   1.113   4.253 -0.2208  0.4329 -2.3959
 1965TIP3   OH227385   6.240   1.193  10.997  0.2763  0.6858  0.1287
 1965TIP3    H127386   6.296   1.258  11.041  0.0058  0.9873  0.0339
 1965TIP3    H227387   6.156   1.200  11.041  0.5305 -0.3182  0.7885
 1966TIP3   OH227388   1.484   6.646   5.933 -0.0451 -0.2287 -0.3063
 1966TIP3    H127389   1.532   6.711   5.984  0.2872 -1.0738  0.4832
 1966TIP3    H227390   1.393   6.672   5.940  0.3895  2.1687 -2.9359
 1967TIP3   OH227391   4.052   5.083  15.669  0.4452 -0.0468 -0.0383
 1967TIP3    H127392   4.011   5.044  15.747  1.0537  0.3345  0.4794
 1967TIP3    H227393   4.061   5.010  15.608 -0.8706 -0.1631 -0.1018
 1968TIP3   OH227394   2.729   2.041  13.074 -0.1479 -0.0644  0.1337
 1968TIP3    H127395   2.758   2.053  13.165  2.6942 -1.4609 -0.5256
 1968TIP3    H227396   2.751   1.950  13.055 -0.9911  0.1432 -1.8931
 1969TIP3   OH227397   6.124   6.195  16.857  0.3097 -0.0619  0.3013
 1969TIP3    H127398   6.157   6.260  16.920 -1.8087  1.4170 -0.0598
 1969TIP3    H227399   6.162   6.221  16.773  0.8848 -0.3532  0.4705
 1970TIP3   OH227400   3.431   3.279  15.416 -0.0322 -0.3836 -0.2581
 1970TIP3    H127401   3.502   3.263  15.478 -0.3700  3.0557  1.1316
 1970TIP3    H227402   3.378   3.199  15.418  1.2649 -1.2091  2.1699
 1971TIP3   OH227403   2.381   5.169  13.327 -0.3899 -0.5198  0.0689
 1971TIP3    H127404   2.347   5.133  13.409 -2.8300  1.6362  0.0842
 1971TIP3    H227405   2.318   5.141  13.261 -0.2863  0.5559 -0.5026
 1972TIP3   OH227406   0.660   4.923   4.321 -0.4124 -0.1021 -0.5699
 1972TIP3    H127407   0.727   4.988   4.297  1.1414 -1.9860 -1.4741
 1972TIP3    H227408   0.670   4.913   4.415 -0.2113  0.4730 -0.5217
 1973TIP3   OH227409   4.609   0.215  16.955 -0.0945  0.1187  0.0540
 1973TIP3    H127410   4.581   0.124  16.969 -2.3357  0.5328 -1.4656
 1973TIP3    H227411   4.677   0.209  16.889 -0.1575 -0.4741  0.0360
 1974TIP3   OH227412   6.415   2.733  15.759  0.0452 -0.7931 -0.0409
 1974TIP3    H127413   6.482   2.669  15.736 -1.3784 -2.6845  0.9375
 1974TIP3    H227414   6.429   2.750  15.852 -1.6438 -2.2509  0.5136
 1975TIP3   OH227415   3.314   2.735  12.178  0.2585 -0.5102 -0.1477
 1975TIP3    H127416   3.374   2.791  12.128  0.9598 -0.3516  0.8631
 1975TIP3    H227417   3.238   2.724  12.120 -0.1890  2.0086 -0.0973
 1976TIP3   OH227418   5.008   4.062   5.467  0.4073 -0.1763  0.4413
 1976TIP3    H127419   4.994   3.997   5.536  1.9393 -2.3991 -1.2952
 1976TIP3    H227420   5.102   4.080   5.469  0.0810  1.5922  0.5358
 1977TIP3   OH227421   2.968   5.338   4.292  0.0154 -0.6578 -0.3008
 1977TIP3    H127422   2.876   5.323   4.269  0.4735 -1.5031 -1.7094
 1977TIP3    H227423   2.973   5.432   4.309 -1.1168 -0.6006 -0.1949
 1978TIP3   OH227424   1.222   4.016  16.499 -0.2312 -0.1517 -0.2491
 1978TIP3    H127425   1.161   3.942  16.502  1.3105 -1.5091 -0.8411
 1978TIP3    H227426   1.267   4.013  16.584 -1.6732  1.4660  0.5879
 1979TIP3   OH227427   6.605   2.729  13.378 -0.4282  0.2185  0.5301
 1979TIP3    H127428   6.699   2.748  13.374 -0.7082  2.0866  2.0472
 1979TIP3    H227429   6.599   2.634  13.370  1.6141  0.0738  0.5834
 1980TIP3   OH227430   6.585   0.045   4.589  0.0445  0.2168 -0.9074
 1980TIP3    H127431   6.616   0.062   4.499  0.3018 -1.3130 -1.1194
 1980TIP3    H227432   6.592  -0.049   4.599 -2.9728  0.0080 -0.3571
 1981TIP3   OH227433   1.596   2.768  16.149  0.2947  0.2102  0.4199
 1981TIP3    H127434   1.677   2.794  16.106  1.9300  0.2056  3.3152
 1981TIP3    H227435   1.530   2.770  16.080  2.5784  1.0515 -1.8273
 1982TIP3   OH227436   3.694   3.601   0.915 -0.5313  0.0462  0.4726
 1982TIP3    H127437   3.716   3.538   0.847  0.8144  0.7571  0.2443
 1982TIP3    H227438   3.704   3.686   0.873 -1.5774  0.4404  1.0087
 1983TIP3   OH227439   6.645   1.219   5.659  0.3554 -0.2926  0.1450
 1983TIP3    H127440   6.689   1.214   5.744 -0.2258  0.6996  0.5113
 1983TIP3    H227441   6.687   1.151   5.606  1.4196 -0.2276  0.9006
 1984TIP3   OH227442   0.095   0.373   3.119  0.4904  0.2433 -0.1123
 1984TIP3    H127443   0.133   0.342   3.201 -2.1199 -1.1280  0.6643
 1984TIP3    H227444   0.059   0.459   3.141 -0.1482 -0.0942  0.1948
 1985TIP3   OH227445   5.168   1.875  13.005 -0.1412  0.0930  0.0571
 1985TIP3    H127446   5.134   1.789  12.980 -0.5019  0.2156  0.1181
 1985TIP3    H227447   5.099   1.912  13.060 -0.0617  0.4950 -0.1162
 1986TIP3   OH227448   0.092   6.080   4.127  0.0727 -0.0872 -0.5407
 1986TIP3    H127449   0.125   5.993   4.105 -0.5281 -0.6709  0.8255
 1986TIP3    H227450   0.170   6.129   4.153  0.2118 -0.7427  0.3283
 1987TIP3   OH227451   3.823   1.164  15.738 -0.3071 -0.8343  0.6957
 1987TIP3    H127452   3.880   1.211  15.798  0.5900 -1.7671  0.5778
 1987TIP3    H227453   3.879   1.097  15.698 -0.5594  0.5831 -2.1345
 1988TIP3   OH227454   6.719   1.292   1.380 -0.3561 -0.2294 -0.4556
 1988TIP3    H127455   6.731   1.370   1.434  0.6567 -0.6299 -0.0988
 1988TIP3    H227456   6.759   1.315   1.296 -0.1713 -0.3218 -0.3923
 1989TIP3   OH227457   0.751   3.204   5.475 -0.3232 -0.1217 -0.5580
 1989TIP3    H127458   0.708   3.132   5.521  0.4182 -0.8213 -0.9615
 1989TIP3    H227459   0.828   3.165   5.435  0.1320  0.9171 -0.7080
 1990TIP3   OH227460   4.595   2.508   4.434  0.1690 -0.2522  0.1892
 1990TIP3    H127461   4.654   2.432   4.434  2.3523  1.3863  0.9712
 1990TIP3    H227462   4.653   2.584   4.427 -1.9643  1.3747 -0.4937
 1991TIP3   OH227463   1.162   3.251  17.148  0.1670 -0.0394  0.4550
 1991TIP3    H127464   1.082   3.258  17.095 -0.9174  2.9764  2.3618
 1991TIP3    H227465   1.229   3.294  17.094 -0.0617 -0.2997 -0.0465
 1992TIP3   OH227466   2.033   5.660  11.477  0.3684 -0.0273 -0.0374
 1992TIP3    H127467   2.082   5.578  11.488  0.6687  0.0544 -0.7328
 1992TIP3    H227468   1.941   5.633  11.479  0.4773 -0.5356 -1.3598
 1993TIP3   OH227469   1.582   4.930  11.732 -0.1756 -0.6608 -0.1098
 1993TIP3    H127470   1.572   4.845  11.689 -0.5096 -1.3318  1.2798
 1993TIP3    H227471   1.551   4.916  11.822 -0.8457  1.0915 -0.0428
 1994TIP3   OH227472   2.479   2.524  11.828  0.1246  0.1443  0.4673
 1994TIP3    H127473   2.542   2.581  11.784  0.5922 -0.1614  0.7250
 1994TIP3    H227474   2.494   2.438  11.790  0.3226 -0.0615  0.9981
 1995TIP3   OH227475   6.782   4.537  16.233 -0.4412 -0.3296  0.5508
 1995TIP3    H127476   6.824   4.580  16.308 -0.7228  2.1732 -0.6839
 1995TIP3    H227477   6.850   4.535  16.166 -0.7642 -0.8456  0.2419
 1996TIP3   OH227478   2.932   5.027  12.633  0.0022 -0.1136  0.1261
 1996TIP3    H127479   2.904   5.106  12.587 -0.5853 -1.3161 -1.6614
 1996TIP3    H227480   2.865   5.014  12.700 -0.2867  0.5219 -0.0321
 1997TIP3   OH227481   2.701   3.078  17.227 -0.5666  0.3287  0.3612
 1997TIP3    H127482   2.757   3.018  17.177  0.2444  1.5592 -0.2037
 1997TIP3    H227483   2.697   3.040  17.315 -0.2981 -0.7125 -0.0713
 1998TIP3   OH227484   6.619   6.244  15.863 -0.0791  0.3515 -0.5427
 1998TIP3    H127485   6.698   6.291  15.888 -1.4353  1.9653  0.8164
 1998TIP3    H227486   6.569   6.235  15.944 -1.4111 -0.4327 -1.4186
 1999TIP3   OH227487   0.428   2.111  13.885 -0.4433  0.2982  0.3797
 1999TIP3    H127488   0.469   2.167  13.951  1.5313 -1.2745  0.5550
 1999TIP3    H227489   0.476   2.131  13.805  0.2837 -1.1384  0.4479
 2000TIP3   OH227490   4.215   2.015  15.043  0.0927 -0.4434  0.0982
 2000TIP3    H127491   4.159   2.035  15.118  0.6631  1.6103  0.0035
 2000TIP3    H227492   4.165   1.953  14.991 -0.6314 -1.3027  1.7981
 2001TIP3   OH227493   3.444   2.369   3.171 -0.3212  0.1890 -0.0339
 2001TIP3    H127494   3.406   2.287   3.140  0.7990 -0.9950  1.6584
 2001TIP3    H227495   3.473   2.350   3.260  0.2385  2.3402  0.2725
 2002TIP3   OH227496   0.317   6.800   4.800 -0.0137  0.0686  0.0663
 2002TIP3    H127497   0.277   6.814   4.715  0.6808  3.2586  0.1948
 2002TIP3    H227498   0.256   6.839   4.863  0.4360 -0.4177  0.8189
 2003TIP3   OH227499   3.127   3.762   3.236 -0.5832  0.1596  0.2192
 2003TIP3    H127500   3.181   3.749   3.313 -0.7502 -0.1743  0.2792
 2003TIP3    H227501   3.066   3.688   3.235  0.3192 -0.5927 -0.9924
 2004TIP3   OH227502   2.079   6.188  12.918 -0.4025  0.1222 -0.1557
 2004TIP3    H127503   2.143   6.163  12.985 -0.4974 -0.0836 -0.1423
 2004TIP3    H227504   1.997   6.147  12.947 -0.4633  0.1040 -0.3552
 2005TIP3   OH227505   0.854   5.448  13.713 -0.0872 -0.1480  0.0787
 2005TIP3    H127506   0.945   5.416  13.716 -0.7036 -1.9359  0.3242
 2005TIP3    H227507   0.810   5.388  13.653 -1.8214 -1.1683  2.3150
 2006TIP3   OH227508   0.545   5.003  11.938 -0.0726 -0.0712  0.1677
 2006TIP3    H127509   0.618   5.051  11.900 -0.1837  0.1138  0.1832
 2006TIP3    H227510   0.562   5.003  12.032  1.0151 -1.9012 -0.0199
 2007TIP3   OH227511   0.332   3.487  11.915  0.5251 -0.0567  0.3423
 2007TIP3    H127512   0.385   3.503  11.837  0.9479 -2.0091  0.2197
 2007TIP3    H227513   0.396   3.461  11.982  0.0604  0.6873  1.0832
 2008TIP3   OH227514   2.095   4.393   2.929 -0.3785  0.4413 -0.2264
 2008TIP3    H127515   2.179   4.375   2.885 -0.4802 -0.3099 -0.1201
 2008TIP3    H227516   2.030   4.347   2.877 -1.1998  3.7029 -2.2346
 2009TIP3   OH227517   3.394   3.228   0.622  0.0652  0.4114 -0.0348
 2009TIP3    H127518   3.307   3.199   0.652 -0.3257 -0.5746 -2.0447
 2009TIP3    H227519   3.455   3.186   0.682 -0.7518 -0.7032  0.0337
 2010TIP3   OH227520   1.294   0.134   1.722  0.3902 -0.0727 -0.1740
 2010TIP3    H127521   1.285   0.066   1.656  1.9775  0.5953 -1.1302
 2010TIP3    H227522   1.221   0.194   1.706  1.5621  0.8401 -2.2737
 2011TIP3   OH227523   5.998   5.320   4.551  0.0626  0.4992 -0.5327
 2011TIP3    H127524   5.935   5.355   4.489 -0.9444  0.8736  0.6737
 2011TIP3    H227525   5.954   5.326   4.636  0.4445 -2.2730 -0.0787
 2012TIP3   OH227526   0.896   4.449  12.628  0.1061  0.3103  0.5082
 2012TIP3    H127527   0.978   4.495  12.647 -0.3297  1.3118  0.0048
 2012TIP3    H227528   0.897   4.438  12.533 -0.6272  0.8905  0.4246
 2013TIP3   OH227529   6.300   5.034  12.190  0.1031  0.3533  0.3832
 2013TIP3    H127530   6.352   4.972  12.240  0.7302  0.1311 -0.5281
 2013TIP3    H227531   6.323   5.120  12.225  1.4249  0.2957 -0.2917
 2014TIP3   OH227532   1.969   5.622   2.516  0.3080 -0.0068 -0.0686
 2014TIP3    H127533   2.062   5.639   2.505  0.6945 -2.3159 -0.5217
 2014TIP3    H227534   1.961   5.527   2.518 -1.7922  0.1501  2.1501
 2015TIP3   OH227535   2.295   1.753  14.718  0.1592  0.1692  0.0827
 2015TIP3    H127536   2.339   1.836  14.699 -0.3438  0.7211  1.2504
 2015TIP3    H227537   2.203   1.777  14.729 -0.0197 -0.5753  0.2368
 2016TIP3   OH227538   3.491   0.512   1.785 -0.6749  0.2269 -0.6662
 2016TIP3    H127539   3.435   0.557   1.848 -0.6771 -0.1177 -0.4175
 2016TIP3    H227540   3.579   0.522   1.820 -0.2543  2.8949 -2.3254
 2017TIP3   OH227541   5.005   4.251   5.724  0.0906 -0.3402  0.5695
 2017TIP3    H127542   4.927   4.306   5.719 -0.4469 -1.1296  0.1004
 2017TIP3    H227543   5.015   4.216   5.635  1.5908  0.5806  0.3545
 2018TIP3   OH227544   0.157   5.593   2.251  0.4780 -0.7173  0.6892
 2018TIP3    H127545   0.132   5.557   2.166 -0.4515  1.3449  0.0520
 2018TIP3    H227546   0.121   5.532   2.315 -1.6390 -0.5895 -0.3497
 2019TIP3   OH227547   3.214   0.466   4.741 -0.6825  0.0059 -0.1147
 2019TIP3    H127548   3.306   0.487   4.726 -0.8229  0.8063  0.1103
 2019TIP3    H227549   3.209   0.450   4.836 -1.0142  1.2393  0.0883
 2020TIP3   OH227550   0.987   5.339  15.816 -0.0075  0.0502 -0.1879
 2020TIP3    H127551   0.931   5.409  15.849 -0.0381  0.3750 -0.9290
 2020TIP3    H227552   0.938   5.259  15.834 -0.5896  0.3127 -0.5886
 2021TIP3   OH227553   0.244   3.892   4.719  0.1876  0.1046  0.8631
 2021TIP3    H127554   0.281   3.847   4.795 -1.5901  0.3310  1.8904
 2021TIP3    H227555   0.185   3.957   4.756 -1.2266 -0.2367 -0.7327
 2022TIP3   OH227556   2.971   3.590   1.010  0.0348 -0.1165  0.1435
 2022TIP3    H127557   2.967   3.507   1.057 -0.2493 -0.2552 -0.1214
 2022TIP3    H227558   2.923   3.573   0.928  0.3157  0.1912 -0.0864
 2023TIP3   OH227559   1.684   5.515   2.927  0.2454  0.1780  0.5853
 2023TIP3    H127560   1.699   5.556   2.842  0.2845 -0.2617  0.3781
 2023TIP3    H227561   1.662   5.424   2.906 -1.7699  0.5706  0.9406
 2024TIP3   OH227562   6.091   0.949  11.040 -0.5929  0.2169  0.5752
 2024TIP3    H127563   6.147   1.015  10.998  0.9924 -0.3667  1.7093
 2024TIP3    H227564   6.078   0.982  11.129 -0.2324 -0.7376  0.9843
 2025TIP3   OH227565   0.092   3.783  14.437  0.1737  0.0335  0.4613
 2025TIP3    H127566   0.001   3.797  14.413  0.0844 -0.9653  0.2033
 2025TIP3    H227567   0.128   3.728  14.368  1.5536  2.1274 -0.5580
 2026TIP3   OH227568   0.878   5.084   2.220  0.2643 -0.3338 -0.0083
 2026TIP3    H127569   0.970   5.104   2.204  0.5928 -0.9231  1.0516
 2026TIP3    H227570   0.830   5.134   2.154  1.3495 -0.0950 -0.6217
 2027TIP3   OH227571   6.763   5.068   4.446 -0.2096  0.0456 -0.3942
 2027TIP3    H127572   6.743   4.976   4.463  1.2969 -0.0827  0.7984
 2027TIP3    H227573   6.824   5.066   4.372  1.2425 -0.0485  0.7836
 2028TIP3   OH227574   3.973   2.291   6.039  0.6568 -0.4803  0.6269
 2028TIP3    H127575   4.062   2.257   6.046  0.9359  0.0114 -0.4521
 2028TIP3    H227576   3.917   2.214   6.051  1.2530 -1.0605 -0.3046
 2029TIP3   OH227577   0.068   1.093   3.327  0.7406  0.5073  0.3048
 2029TIP3    H127578   0.036   1.014   3.369  2.0080 -1.6364 -2.5638
 2029TIP3    H227579  -0.012   1.143   3.305 -0.0838 -0.1635  1.7337
 2030TIP3   OH227580   4.380   1.161  11.850 -0.2803 -0.1724 -0.7023
 2030TIP3    H127581   4.393   1.232  11.913  0.9487 -1.6743  0.7799
 2030TIP3    H227582   4.445   1.095  11.875  0.7347 -0.4977 -4.0128
 2031TIP3   OH227583   0.870   4.479   3.418 -0.4555  0.6796 -0.2410
 2031TIP3    H127584   0.848   4.446   3.330  2.0416  1.5156 -1.2227
 2031TIP3    H227585   0.863   4.402   3.474  0.4415 -0.4451 -1.6390
 2032TIP3   OH227586   5.198   4.553   0.236 -0.0909 -0.2221 -0.0824
 2032TIP3    H127587   5.210   4.591   0.323  0.9494 -1.8461  0.4987
 2032TIP3    H227588   5.274   4.584   0.186 -1.8115  2.5520 -1.1293
 2033TIP3   OH227589   5.570   3.837   6.575  0.3383 -0.1173  0.0662
 2033TIP3    H127590   5.652   3.797   6.606 -0.0719 -1.0961 -0.0760
 2033TIP3    H227591   5.563   3.918   6.624  0.0506 -1.3155  2.0543
 2034TIP3   OH227592   0.869   3.094  14.070 -0.3581 -0.1806 -0.1642
 2034TIP3    H127593   0.829   3.010  14.048 -0.7179 -0.4179  1.3463
 2034TIP3    H227594   0.957   3.071  14.100 -0.3385  0.0153 -0.0730
 2035TIP3   OH227595   3.904   0.382   0.176 -0.0120  0.1915 -0.6956
 2035TIP3    H127596   3.848   0.412   0.247 -1.1214 -2.3483 -0.4226
 2035TIP3    H227597   3.988   0.363   0.217 -0.0139  0.7330 -0.4497
 2036TIP3   OH227598   2.185   3.137  11.564 -0.4557  0.0097 -0.1181
 2036TIP3    H127599   2.164   3.165  11.653  1.5087  1.0644  0.0464
 2036TIP3    H227600   2.158   3.045  11.561 -0.9860  0.0987  1.4025
 2037TIP3   OH227601   3.547   2.936  15.452  0.4119  0.0673 -0.2588
 2037TIP3    H127602   3.481   3.004  15.443  0.9526  0.6110 -0.1803
 2037TIP3    H227603   3.510   2.860  15.407 -0.5123  0.1840  0.3001
 2038TIP3   OH227604   6.573   1.977   5.158  0.0787  0.4811 -0.0353
 2038TIP3    H127605   6.497   1.929   5.125  0.0876 -0.7047  1.5916
 2038TIP3    H227606   6.647   1.940   5.110 -0.1641  0.3281 -0.2935
 2039TIP3   OH227607   0.769   1.822  16.297  0.4609  0.9122 -0.3100
 2039TIP3    H127608   0.740   1.889  16.359 -1.6441  0.9581 -1.3272
 2039TIP3    H227609   0.747   1.739  16.338  0.0872  0.9142 -0.5111
 2040TIP3   OH227610   0.496   0.634   0.714 -0.1045  0.5526  0.1229
 2040TIP3    H127611   0.521   0.621   0.805  0.2972  2.5972  0.3131
 2040TIP3    H227612   0.492   0.729   0.702 -0.7353  0.3218 -1.8315
 2041TIP3   OH227613   0.852   2.900  10.671 -0.4993  0.1333 -0.0653
 2041TIP3    H127614   0.880   2.822  10.623 -0.7175 -1.0529  1.6911
 2041TIP3    H227615   0.885   2.973  10.620  1.9674 -1.1564 -0.3629
 2042TIP3   OH227616   4.181   1.079  16.437 -0.7678 -0.3076 -0.1892
 2042TIP3    H127617   4.221   1.166  16.446  1.1284 -0.8089 -3.0090
 2042TIP3    H227618   4.221   1.027  16.507  1.5319 -0.0610 -1.2693
 2043TIP3   OH227619   3.279   1.804   1.355  0.4845 -0.1179  0.2079
 2043TIP3    H127620   3.365   1.840   1.375 -0.6855  0.8985  3.8376
 2043TIP3    H227621   3.225   1.880   1.335  0.1312 -0.6724 -1.0498
 2044TIP3   OH227622   2.325   2.449   0.598 -0.1615  0.1129  0.6374
 2044TIP3    H127623   2.317   2.538   0.633 -2.8373 -0.1947  0.9606
 2044TIP3    H227624   2.274   2.452   0.516  1.4721 -0.5872 -0.4201
 2045TIP3   OH227625   5.439   3.928   5.031  0.1671 -0.4231 -0.0493
 2045TIP3    H127626   5.499   4.003   5.034  1.0099 -1.0946 -0.0684
 2045TIP3    H227627   5.407   3.927   4.941 -0.7668  0.6305  0.2601
 2046TIP3   OH227628   4.071   3.715  16.539  0.2717 -0.2283 -1.2087
 2046TIP3    H127629   4.150   3.766  16.555 -0.6640  1.2254 -1.2045
 2046TIP3    H227630   4.103   3.627  16.518  1.9259  0.5842 -2.1241
 2047TIP3   OH227631   1.221   1.900   4.692  0.0463 -0.6626  0.0518
 2047TIP3    H127632   1.257   1.901   4.781 -0.5335 -0.2387  0.2867
 2047TIP3    H227633   1.233   1.810   4.662 -1.8478 -1.4241  1.4418
 2048TIP3   OH227634   6.584   1.918  10.667  0.2218 -0.3416  0.3123
 2048TIP3    H127635   6.605   1.858  10.739  0.0061  0.7166  1.2672
 2048TIP3    H227636   6.510   1.877  10.623 -0.2260 -0.5436  1.2439
 2049TIP3   OH227637   4.524   4.924  13.525  0.2867 -0.3655  0.3844
 2049TIP3    H127638   4.442   4.955  13.485 -0.5969 -0.1772  2.2695
 2049TIP3    H227639   4.551   4.996  13.582  3.1037  0.5716 -2.0289
 2050TIP3   OH227640   5.203   1.823  16.133  0.5638 -0.3495 -0.3774
 2050TIP3    H127641   5.143   1.748  16.145  0.1156  0.3563  1.9949
 2050TIP3    H227642   5.146   1.900  16.136  1.4090  0.2546  0.3404
 2051TIP3   OH227643   3.549   3.206  13.956 -0.1207 -0.1942 -0.5758
 2051TIP3    H127644   3.613   3.143  13.990 -0.6429  0.5421  1.8670
 2051TIP3    H227645   3.464   3.170  13.980 -0.4136  1.6779  1.4024
 2052TIP3   OH227646   4.646   0.043   1.164  0.3455  0.0508  0.2691
 2052TIP3    H127647   4.610   0.131   1.156  1.2117  0.1937 -2.2876
 2052TIP3    H227648   4.741   0.056   1.169  0.5207 -0.7610 -0.7866
 2053TIP3   OH227649   0.323   1.416   6.286 -0.4380  0.3442 -0.4567
 2053TIP3    H127650   0.248   1.365   6.256  0.8658  0.5812 -4.4109
 2053TIP3    H227651   0.399   1.368   6.253  1.1731  0.5753  2.7274
 2054TIP3   OH227652   3.466   2.829   2.861  0.0458 -0.3478  0.0849
 2054TIP3    H127653   3.512   2.904   2.901 -1.3616  0.7230 -0.2557
 2054TIP3    H227654   3.430   2.781   2.936  0.1330 -0.1314  0.2687
 2055TIP3   OH227655   5.662   2.043   1.564  0.4938 -0.5295  0.4572
 2055TIP3    H127656   5.715   2.071   1.638  3.2061 -1.8436 -0.9073
 2055TIP3    H227657   5.584   2.004   1.603  2.3253 -2.1208  2.6650
 2056TIP3   OH227658   4.708   0.377  13.419  0.6571  0.1400  1.1924
 2056TIP3    H127659   4.781   0.438  13.407  0.4010  0.5955  1.9445
 2056TIP3    H227660   4.662   0.378  13.335 -0.3068  2.2524  1.7001
 2057TIP3   OH227661   0.888   0.538   3.674  0.2765  0.4796 -0.4779
 2057TIP3    H127662   0.855   0.612   3.623 -0.7193  1.8949  2.0838
 2057TIP3    H227663   0.820   0.471   3.667 -0.8769  1.4892  0.6856
 2058TIP3   OH227664   1.523   6.481  15.833 -0.1566 -0.2923  0.4714
 2058TIP3    H127665   1.494   6.537  15.761  0.1852 -0.0716  0.5039
 2058TIP3    H227666   1.444   6.432  15.859 -0.1334 -0.8618 -0.4912
 2059TIP3   OH227667   5.168   2.524  12.117  0.6278 -0.3036  0.1533
 2059TIP3    H127668   5.153   2.452  12.055  1.0334 -0.6740  0.4844
 2059TIP3    H227669   5.172   2.482  12.202  0.4100  0.1722  0.3976
 2060TIP3   OH227670   4.190   6.316  13.272 -0.1450  0.2032 -0.0798
 2060TIP3    H127671   4.232   6.352  13.351  1.0011 -2.6673  0.6683
 2060TIP3    H227672   4.245   6.242  13.248 -1.2455  0.2525 -2.8476
 2061TIP3   OH227673   5.805   1.713   2.207  0.2018 -0.1567 -0.1989
 2061TIP3    H127674   5.870   1.643   2.215  0.6601 -0.0756 -2.8473
 2061TIP3    H227675   5.721   1.669   2.215  0.5019 -0.9474 -1.3454
 2062TIP3   OH227676   5.179   0.576  10.978 -0.3182  0.1758 -0.4088
 2062TIP3    H127677   5.090   0.610  10.968 -0.0864  0.8009 -0.4010
 2062TIP3    H227678   5.225   0.605  10.899 -0.3913 -1.0222 -0.8924
 2063TIP3   OH227679   3.525   0.197   4.610  0.0616  0.3613  0.7606
 2063TIP3    H127680   3.563   0.113   4.637  0.5434 -0.2412 -1.6452
 2063TIP3    H227681   3.540   0.255   4.684 -0.8113 -1.8227  2.7233
 2064TIP3   OH227682   0.354   0.560   1.411 -0.3242 -0.4849  0.7184
 2064TIP3    H127683   0.327   0.642   1.452  1.1620 -0.7183  2.2567
 2064TIP3    H227684   0.434   0.583   1.363 -1.2195 -0.5413 -0.8300
 2065TIP3   OH227685   2.649   1.969  13.582  0.1393 -0.0197  0.3425
 2065TIP3    H127686   2.628   2.044  13.637  0.3999 -1.0742  1.8985
 2065TIP3    H227687   2.564   1.937  13.551 -0.2884 -1.5699  3.0220
 2066TIP3   OH227688   3.099   1.793   5.674 -0.4657 -0.3259 -0.3405
 2066TIP3    H127689   3.077   1.710   5.716  1.3666  0.3477  2.1222
 2066TIP3    H227690   3.015   1.833   5.653 -1.5439 -0.4918  3.2570
 2067TIP3   OH227691   6.703   0.902   2.530  0.0129  0.0603 -0.7061
 2067TIP3    H127692   6.641   0.846   2.577 -0.1897 -0.0186 -1.0690
 2067TIP3    H227693   6.775   0.913   2.591  0.7716 -1.8744 -1.2164
 2068TIP3   OH227694   2.977   4.566   3.515  0.4797  0.3523  0.4159
 2068TIP3    H127695   3.048   4.630   3.513 -1.0441  2.2335  3.2196
 2068TIP3    H227696   3.005   4.502   3.580 -0.9844  1.9103  2.6437
 2069TIP3   OH227697   1.936   0.371   3.306  0.4138 -0.6323  0.0833
 2069TIP3    H127698   1.968   0.321   3.381 -0.6996 -2.2285 -0.4749
 2069TIP3    H227699   1.891   0.306   3.252 -0.1642  0.7987 -1.1750
 2070TIP3   OH227700   4.807   1.747   4.339  0.2782  0.7058 -0.0994
 2070TIP3    H127701   4.741   1.692   4.297  0.1891  0.4086  0.4232
 2070TIP3    H227702   4.864   1.686   4.384  0.6808  0.9892 -0.2235
 2071TIP3   OH227703   4.243   3.754  16.153  0.6389  0.5977  0.7378
 2071TIP3    H127704   4.236   3.827  16.092 -1.8479 -1.3025 -1.3129
 2071TIP3    H227705   4.157   3.748  16.194  0.1138 -2.5239 -0.7130
 2072TIP3   OH227706   0.052   0.074  12.968 -0.5583  0.0137 -0.2869
 2072TIP3    H127707   0.064   0.066  13.062 -0.2000  1.7062 -0.1613
 2072TIP3    H227708  -0.043   0.084  12.956 -0.6689 -0.9031 -0.1679
 2073TIP3   OH227709   1.729   1.287   5.009  0.3549 -0.0064  0.0082
 2073TIP3    H127710   1.725   1.195   4.982 -0.8843 -0.2612  1.0199
 2073TIP3    H227711   1.779   1.285   5.091 -0.3025  0.1318  0.4133
 2074TIP3   OH227712   4.081   4.267   3.470 -0.1212 -0.5533  0.3964
 2074TIP3    H127713   4.119   4.294   3.553 -0.4470  0.2609  0.2906
 2074TIP3    H227714   4.122   4.183   3.450 -0.3331 -0.9375  1.5700
 2075TIP3   OH227715   1.717   4.076  16.579 -0.4653 -0.0744 -0.3751
 2075TIP3    H127716   1.741   4.126  16.501  0.5311 -0.9805 -0.6557
 2075TIP3    H227717   1.686   3.992  16.545 -1.6681  0.1560  0.1238
 2076TIP3   OH227718   3.756   5.498  14.728  0.0916 -0.3574 -0.4668
 2076TIP3    H127719   3.776   5.555  14.802  0.8835 -0.8668 -0.2901
 2076TIP3    H227720   3.829   5.437  14.724  0.7881  0.5824 -2.5952
 2077TIP3   OH227721   0.653   4.987  14.829  0.3009 -0.7872 -0.1953
 2077TIP3    H127722   0.717   4.921  14.802  0.6151 -0.1794 -0.9678
 2077TIP3    H227723   0.662   5.057  14.764 -1.0422 -0.6262 -0.2338
 2078TIP3   OH227724   4.586   6.347  10.578 -0.5960  0.5727  0.3765
 2078TIP3    H127725   4.528   6.279  10.545  1.0498  0.8773 -3.4662
 2078TIP3    H227726   4.581   6.416  10.512  3.0513  1.1843  0.6382
 2079TIP3   OH227727   3.036   6.594  13.056 -0.2010  0.0006 -0.0241
 2079TIP3    H127728   3.106   6.639  13.011 -2.0637  3.4277  0.3503
 2079TIP3    H227729   2.973   6.572  12.987 -0.4988  0.2900  0.1542
 2080TIP3   OH227730   0.935   4.741  10.863 -0.3134  0.1209 -0.5088
 2080TIP3    H127731   0.854   4.710  10.824 -0.8660 -0.4947  1.0702
 2080TIP3    H227732   0.999   4.673  10.844 -0.2489  0.4526 -1.4776
 2081TIP3   OH227733   5.624   2.582   2.017  0.1577 -0.1682  0.0573
 2081TIP3    H127734   5.596   2.667   1.982  1.6808  0.3568  0.0721
 2081TIP3    H227735   5.665   2.603   2.101  0.4053 -0.9466  0.1307
 2082TIP3   OH227736   4.223   2.385   5.209  0.2518 -0.8435 -0.1983
 2082TIP3    H127737   4.178   2.468   5.227 -1.1257 -1.7284  0.5672
 2082TIP3    H227738   4.255   2.395   5.120  1.4976  1.1178  0.4301
 2083TIP3   OH227739   0.165   0.979  14.054  0.0330  0.6413 -0.4736
 2083TIP3    H127740   0.071   0.960  14.065  0.1301 -0.4963 -1.6180
 2083TIP3    H227741   0.184   0.957  13.964  1.9002 -1.1579  0.3313
 2084TIP3   OH227742   0.465   3.441   2.099  0.3747  0.1701 -0.0270
 2084TIP3    H127743   0.454   3.510   2.164 -0.3866  0.2089 -0.1964
 2084TIP3    H227744   0.449   3.360   2.147  1.4602  0.0908  0.2178
 2085TIP3   OH227745   3.722   4.978   0.758  0.2942 -0.6450 -0.1117
 2085TIP3    H127746   3.640   5.026   0.759  1.5094  1.4646  0.6089
 2085TIP3    H227747   3.722   4.928   0.840  0.4451  0.5990  0.6503
 2086TIP3   OH227748   0.719   2.083  11.963  0.1551  0.1909 -0.0070
 2086TIP3    H127749   0.711   2.091  11.868  1.0524 -0.1341 -0.1184
 2086TIP3    H227750   0.683   1.997  11.983 -2.1552  1.1891  0.2312
 2087TIP3   OH227751   2.999   4.089  13.706 -0.2702 -0.1967 -0.2597
 2087TIP3    H127752   2.983   4.183  13.709  1.2179  0.0799 -0.6174
 2087TIP3    H227753   3.019   4.070  13.614  0.5687 -0.6464  0.0000
 2088TIP3   OH227754   5.327   5.664  17.207 -0.7216  1.2723  0.0258
 2088TIP3    H127755   5.418   5.635  17.219 -1.3442 -1.3497 -1.4431
 2088TIP3    H227756   5.293   5.672  17.296 -0.1039 -1.2278  0.5236
 2089TIP3   OH227757   2.711   4.824  12.150  0.3376 -0.0076 -0.3451
 2089TIP3    H127758   2.637   4.768  12.129 -0.7356  1.2244  0.0536
 2089TIP3    H227759   2.724   4.878  12.072 -0.6805  1.3629  0.4057
 2090TIP3   OH227760   6.258   0.152  13.023 -0.4673  0.2032 -0.7077
 2090TIP3    H127761   6.278   0.208  12.948 -2.1782  0.6001 -0.8766
 2090TIP3    H227762   6.197   0.086  12.988  0.2712 -0.8032 -0.1269
 2091TIP3   OH227763   2.992   4.116   0.940  0.4579  0.1768 -0.4772
 2091TIP3    H127764   2.937   4.041   0.920  0.4150  0.1879 -0.4028
 2091TIP3    H227765   2.957   4.188   0.886 -0.0690  0.3769  0.1288
 2092TIP3   OH227766   4.734   4.452   6.504 -0.5268 -0.3140 -0.7272
 2092TIP3    H127767   4.822   4.418   6.521  0.5605  3.4665  1.9616
 2092TIP3    H227768   4.677   4.401   6.562  0.3051 -0.9050 -0.4156
 2093TIP3   OH227769   2.257   3.902  14.913 -0.6385 -0.5464 -0.2706
 2093TIP3    H127770   2.234   3.981  14.865  0.3664 -0.7176 -1.0383
 2093TIP3    H227771   2.233   3.830  14.854  3.4058 -0.7168 -1.8650
 2094TIP3   OH227772   0.854   3.215   1.276 -0.1637 -0.1705 -0.2006
 2094TIP3    H127773   0.842   3.155   1.349  1.3329  0.1058  0.2901
 2094TIP3    H227774   0.798   3.180   1.206  0.1323 -1.7158  0.3148
 2095TIP3   OH227775   2.486   6.157   6.411 -0.4577 -0.3337  0.8122
 2095TIP3    H127776   2.465   6.162   6.318  0.2820 -0.1194  0.6577
 2095TIP3    H227777   2.418   6.209   6.453  1.1134  2.3407  0.1136
 2096TIP3   OH227778   3.166   2.645  10.975  0.0261 -0.0711  0.3923
 2096TIP3    H127779   3.130   2.587  10.908  0.6377  1.7063 -1.5322
 2096TIP3    H227780   3.207   2.587  11.038 -4.3801 -2.0720  1.6091
 2097TIP3   OH227781   3.855   0.671  15.325  0.2030 -0.0109 -0.2600
 2097TIP3    H127782   3.871   0.579  15.346 -0.7339 -0.4074 -1.2186
 2097TIP3    H227783   3.911   0.720  15.385  1.9167 -1.2323 -0.8310
 2098TIP3   OH227784   2.140   0.189  14.611 -0.1352 -0.5563  0.2750
 2098TIP3    H127785   2.219   0.229  14.575 -1.0132  0.4003 -0.6002
 2098TIP3    H227786   2.138   0.220  14.702  1.2241 -1.7052  0.7265
 2099TIP3   OH227787   5.652   5.060  13.539  0.0903 -0.3531  0.5158
 2099TIP3    H127788   5.725   4.998  13.544  0.7748  0.4308  0.2678
 2099TIP3    H227789   5.687   5.135  13.491 -2.2739 -1.9564 -4.0728
 2100TIP3   OH227790   5.716   2.129   4.036  0.0949  0.6469 -0.3784
 2100TIP3    H127791   5.689   2.137   4.128  0.5735  0.8696 -0.2560
 2100TIP3    H227792   5.778   2.056   4.035  1.3445  1.6916 -0.2391
 2101TIP3   OH227793   1.901   2.967  16.971 -0.1859  0.3442 -0.1157
 2101TIP3    H127794   1.941   2.888  17.007 -0.4067  1.2722  2.2774
 2101TIP3    H227795   1.975   3.017  16.935  0.2897  0.2141  0.6673
 2102TIP3   OH227796   5.996   0.456   2.231 -0.3892  0.1566 -0.3359
 2102TIP3    H127797   5.960   0.531   2.183 -0.9592  0.9655  1.3204
 2102TIP3    H227798   6.087   0.451   2.202  0.1814  2.6400  0.8875
 2103TIP3   OH227799   6.634   1.488   0.090 -0.4846 -0.0973  0.1314
 2103TIP3    H127800   6.645   1.563   0.149  0.1470  0.3595 -0.5575
 2103TIP3    H227801   6.722   1.469   0.059 -0.5909 -1.3613  0.5655
 2104TIP3   OH227802   3.247   2.140  11.302 -0.0714 -0.1343  0.0793
 2104TIP3    H127803   3.248   2.208  11.369  0.0613  1.2386 -1.2877
 2104TIP3    H227804   3.334   2.100  11.306  0.1070  0.2885  0.3715
 2105TIP3   OH227805   6.296   2.331   2.170  0.3865 -0.1663 -0.1242
 2105TIP3    H127806   6.362   2.268   2.199  1.4208  0.6186 -0.7144
 2105TIP3    H227807   6.347   2.408   2.145 -0.8814  0.9460  0.7184
 2106TIP3   OH227808   3.309   3.664  13.001 -0.0684  0.0450 -0.2924
 2106TIP3    H127809   3.214   3.659  13.016 -0.0418 -0.0639 -0.1602
 2106TIP3    H227810   3.319   3.650  12.907 -0.2229  0.5743 -0.3867
 2107TIP3   OH227811   4.902   4.246  12.304  0.3292 -0.5939  0.0658
 2107TIP3    H127812   4.972   4.271  12.245  0.1140  0.4936  0.2622
 2107TIP3    H227813   4.823   4.249  12.249  0.4035 -1.6513 -0.1122
 2108TIP3   OH227814   2.092   1.808  13.039  0.2536 -0.0422 -0.0396
 2108TIP3    H127815   2.073   1.838  12.950 -2.6331 -2.2884 -0.2525
 2108TIP3    H227816   2.159   1.741  13.027  4.0430  3.5011  0.1101
 2109TIP3   OH227817   0.223   1.593   0.036 -0.1401  0.6431 -0.6316
 2109TIP3    H127818   0.181   1.511   0.008 -1.0960  0.2616  1.7960
 2109TIP3    H227819   0.300   1.600  -0.020  0.8825 -2.8063  0.1905
 2110TIP3   OH227820   0.845   3.982   1.546 -0.0855  0.4487 -0.3495
 2110TIP3    H127821   0.892   3.961   1.627 -0.8364 -1.4294 -0.3654
 2110TIP3    H227822   0.759   4.013   1.575  0.4179  1.8952 -0.3777
 2111TIP3   OH227823   1.603   2.310  14.894  0.0526 -0.1566 -0.0724
 2111TIP3    H127824   1.625   2.244  14.829  0.0135  1.0373 -1.3281
 2111TIP3    H227825   1.687   2.334  14.934 -0.0271 -1.5116  0.9552
 2112TIP3   OH227826   5.841   1.787  12.535 -0.3291  0.4090 -0.1106
 2112TIP3    H127827   5.920   1.738  12.516 -1.2538 -0.3543 -2.0958
 2112TIP3    H227828   5.871   1.876  12.554  1.1573 -0.3685  1.2337
 2113TIP3   OH227829   6.801   3.170   4.920 -0.5257 -0.0376 -0.0488
 2113TIP3    H127830   6.723   3.225   4.922  0.7645  1.8427  0.1683
 2113TIP3    H227831   6.819   3.149   5.012  0.8055  1.9011  0.1744
 2114TIP3   OH227832   0.309   5.772  13.770 -0.2829 -0.1406 -0.1164
 2114TIP3    H127833   0.351   5.851  13.735 -1.0201  0.3404  0.0666
 2114TIP3    H227834   0.379   5.706  13.771 -0.2968 -0.2570 -2.7631
 2115TIP3   OH227835   1.575   5.753  15.777  0.9304  0.0096  0.1320
 2115TIP3    H127836   1.553   5.842  15.803 -0.2629 -0.1489 -0.2559
 2115TIP3    H227837   1.655   5.732  15.824  0.6475  0.9182  1.0297
 2116TIP3   OH227838   0.806   6.478  16.382  0.0371 -0.0853  0.0415
 2116TIP3    H127839   0.848   6.534  16.316  0.9065  0.2602  0.8782
 2116TIP3    H227840   0.713   6.484  16.362  0.3843 -1.1469 -2.0647
 2117TIP3   OH227841   1.132   4.012  14.149  0.1101  0.2775  0.1609
 2117TIP3    H127842   1.093   3.965  14.223 -0.8509  0.7894 -0.0106
 2117TIP3    H227843   1.095   3.970  14.071 -0.2343  0.8601  0.0020
 2118TIP3   OH227844   1.142   2.549   3.026  0.3906 -0.0280 -0.0631
 2118TIP3    H127845   1.110   2.464   2.995  1.7740 -1.0382  1.2126
 2118TIP3    H227846   1.093   2.613   2.974  0.7527 -1.6117 -2.4365
 2119TIP3   OH227847   2.157   3.169   2.332  0.4718 -0.1059  0.6889
 2119TIP3    H127848   2.160   3.095   2.392 -1.1146 -1.9593 -1.4367
 2119TIP3    H227849   2.237   3.161   2.280  0.0896 -0.5706  0.1743
 2120TIP3   OH227850   5.707   0.709  12.834 -0.2456 -0.1019 -0.6300
 2120TIP3    H127851   5.716   0.652  12.758 -1.5387 -0.6491 -0.3949
 2120TIP3    H227852   5.613   0.729  12.839 -0.0171  0.8738  0.1380
 2121TIP3   OH227853   1.964   4.350   5.499  0.8260 -0.0217  0.8358
 2121TIP3    H127854   1.950   4.256   5.493 -0.3625  0.2056 -0.1369
 2121TIP3    H227855   2.013   4.362   5.580 -1.1404 -1.2571  2.2490
 2122TIP3   OH227856   0.117   3.950   0.035  0.2596 -0.0077 -0.0693
 2122TIP3    H127857   0.140   4.037   0.002 -1.0761  0.6781  0.7862
 2122TIP3    H227858   0.123   3.958   0.130  0.1174 -0.8505  0.0124
 2123TIP3   OH227859   5.625   5.763   4.220  1.0151 -0.6141 -0.3957
 2123TIP3    H127860   5.715   5.757   4.188  1.3222  2.6111 -0.3043
 2123TIP3    H227861   5.623   5.844   4.272 -1.6395 -1.2461  0.5898
 2124TIP3   OH227862   5.688   2.234   0.040 -0.1915  0.4515 -0.4317
 2124TIP3    H127863   5.709   2.221   0.132 -0.9434 -0.1520 -0.3403
 2124TIP3    H227864   5.707   2.150  -0.001 -0.4419  0.5313 -0.7134
 2125TIP3   OH227865   4.941   3.632   2.686 -1.1725  0.0047 -0.0798
 2125TIP3    H127866   4.978   3.659   2.770  2.2928  0.0455 -1.5180
 2125TIP3    H227867   4.872   3.696   2.668 -0.9719  0.8578  2.0147
 2126TIP3   OH227868   0.566   2.297  10.316  0.6475 -0.6816 -0.6205
 2126TIP3    H127869   0.577   2.303  10.221 -0.6037  0.2224 -0.7137
 2126TIP3    H227870   0.606   2.376  10.350  0.2509 -0.5453 -0.4696
 2127TIP3   OH227871   0.814   3.575   1.701 -0.0226 -0.4420 -0.0464
 2127TIP3    H127872   0.806   3.494   1.751 -0.1544 -0.3825  0.0293
 2127TIP3    H227873   0.808   3.644   1.767  0.0885 -0.3706 -0.1109
 2128TIP3   OH227874   5.963   6.401   3.866  0.6619  0.3597  0.3804
 2128TIP3    H127875   6.014   6.323   3.888  0.4957 -0.1581 -0.9839
 2128TIP3    H227876   6.018   6.474   3.891  0.2832 -0.1853  2.9045
 2129TIP3   OH227877   3.665   1.640  11.994  0.1471  0.7119  0.3335
 2129TIP3    H127878   3.697   1.623  12.083  2.6236  0.3764 -0.6035
 2129TIP3    H227879   3.712   1.577  11.939 -1.4886  0.8071 -1.2139
 2130TIP3   OH227880   4.153   6.089   0.679 -0.2600  0.1985  0.0824
 2130TIP3    H127881   4.210   6.148   0.729  0.5143 -0.5073  0.0401
 2130TIP3    H227882   4.201   6.007   0.676 -0.9149 -0.1576 -0.6775
 2131TIP3   OH227883   2.184   1.799  13.309  0.1538 -0.7997  0.0874
 2131TIP3    H127884   2.145   1.806  13.221  2.2589 -0.3869 -0.8361
 2131TIP3    H227885   2.228   1.882  13.323  2.7724 -2.1311  0.0746
 2132TIP3   OH227886   1.691   3.900  14.261  0.1894  0.0668  0.3312
 2132TIP3    H127887   1.700   3.842  14.185 -1.1743 -0.8820  0.8670
 2132TIP3    H227888   1.770   3.884  14.313  0.6166 -0.0749 -0.3666
 2133TIP3   OH227889   2.714   1.795  17.108  0.1122  0.1452 -0.0365
 2133TIP3    H127890   2.632   1.841  17.093  0.6543  0.7512 -1.1928
 2133TIP3    H227891   2.688   1.713  17.150 -1.2993 -0.6235 -2.2945
 2134TIP3   OH227892   3.979   4.840   1.611  0.0685 -0.0872  0.3099
 2134TIP3    H127893   4.033   4.910   1.574 -0.0743 -0.1578 -0.0298
 2134TIP3    H227894   3.920   4.886   1.672 -0.7074  0.2261 -0.6600
 2135TIP3   OH227895   2.508   5.700   5.006 -0.5019  0.3659 -1.1571
 2135TIP3    H127896   2.497   5.605   5.000  0.2892 -0.1401  3.5816
 2135TIP3    H227897   2.419   5.735   4.995 -1.0153 -1.0154 -1.4842
 2136TIP3   OH227898   6.455   4.831   3.450 -0.1549 -0.1500 -0.2589
 2136TIP3    H127899   6.476   4.921   3.474  0.1597 -0.3931  0.3768
 2136TIP3    H227900   6.367   4.836   3.412 -0.7985  0.1692  1.2677
 2137TIP3   OH227901   2.484   1.214   4.432  0.5697 -0.8187 -0.6597
 2137TIP3    H127902   2.438   1.295   4.411 -0.0006 -1.2539 -1.0911
 2137TIP3    H227903   2.418   1.146   4.426  1.0828 -1.3439 -0.4545
 2138TIP3   OH227904   6.052   0.791   1.455 -0.1149 -0.6362 -0.4583
 2138TIP3    H127905   6.033   0.836   1.537 -1.6857 -0.9812 -0.6122
 2138TIP3    H227906   6.017   0.849   1.387  0.6430 -0.6343 -0.8543
 2139TIP3   OH227907   0.555   5.138   1.384 -0.0662 -0.1004  0.0788
 2139TIP3    H127908   0.632   5.171   1.430 -1.0725 -0.3040  1.9752
 2139TIP3    H227909   0.544   5.048   1.415 -2.2856  0.6176  1.5220
 2140TIP3   OH227910   0.617   5.558  12.701  0.3992 -0.1833 -0.4782
 2140TIP3    H127911   0.596   5.470  12.729  0.5725 -0.0129  0.1926
 2140TIP3    H227912   0.567   5.571  12.620  0.8593 -1.1098 -0.9165
 2141TIP3   OH227913   4.669   5.580  13.502  0.7315 -0.2601  0.1574
 2141TIP3    H127914   4.657   5.669  13.537  1.9421  0.3847 -1.0032
 2141TIP3    H227915   4.756   5.583  13.462  0.3572 -1.6968 -0.7550
 2142TIP3   OH227916   3.171   0.862  12.220 -0.3370  0.1694 -0.0277
 2142TIP3    H127917   3.091   0.864  12.273 -0.7887 -1.0271 -0.6406
 2142TIP3    H227918   3.140   0.873  12.130 -0.0068 -2.1835 -0.4500
 2143TIP3   OH227919   2.672   4.603   4.250  0.3773 -0.4159  0.2869
 2143TIP3    H127920   2.578   4.608   4.233  0.3574 -2.1187 -0.2855
 2143TIP3    H227921   2.703   4.693   4.244 -0.9200 -0.0487 -1.3202
 2144TIP3   OH227922   4.353   2.320   2.721 -0.2799  0.4040 -0.4111
 2144TIP3    H127923   4.294   2.394   2.704 -1.7799 -0.3727  1.2661
 2144TIP3    H227924   4.326   2.253   2.658  0.1954  0.7960 -1.0360
 2145TIP3   OH227925   2.442   5.411   4.355 -0.6331 -0.4292 -0.4667
 2145TIP3    H127926   2.384   5.341   4.326 -1.8420  0.1115  0.6204
 2145TIP3    H227927   2.422   5.484   4.297 -0.2575 -0.5757 -0.7882
 2146TIP3   OH227928   3.662   0.223  15.797 -0.2616 -0.5327 -0.7298
 2146TIP3    H127929   3.626   0.309  15.773 -0.5046 -0.5901 -0.5764
 2146TIP3    H227930   3.698   0.188  15.715  0.8462  0.1939 -0.5691
 2147TIP3   OH227931   0.940   3.835   4.735  0.1207  0.4921 -0.0104
 2147TIP3    H127932   0.856   3.878   4.747  0.5218  1.3995 -0.3487
 2147TIP3    H227933   0.955   3.788   4.816  1.1762  3.6740  1.7210
 2148TIP3   OH227934   2.065   0.424  15.879  0.5009 -0.4398 -0.0444
 2148TIP3    H127935   2.019   0.502  15.910 -0.7685 -1.7021  1.3104
 2148TIP3    H227936   2.132   0.407  15.946 -0.7118 -1.8021  0.8669
 2149TIP3   OH227937   6.268   4.249   6.476  0.6481 -0.5537  0.1004
 2149TIP3    H127938   6.335   4.311   6.448  0.1930  0.2324  0.7317
 2149TIP3    H227939   6.270   4.253   6.572 -1.3306  0.6026  0.1120
 2150TIP3   OH227940   5.910   3.403   4.666  0.3445 -0.0407 -0.2097
 2150TIP3    H127941   5.815   3.395   4.665  0.3043  0.3071  0.5001
 2150TIP3    H227942   5.933   3.426   4.575 -0.0558 -2.0707 -0.8436
 2151TIP3   OH227943   0.005   5.147   3.139 -0.3941 -0.2279  0.1528
 2151TIP3    H127944   0.050   5.205   3.200 -0.0030  0.3050 -0.6406
 2151TIP3    H227945  -0.087   5.169   3.148 -0.2933  0.1700  0.2072
 2152TIP3   OH227946   5.137   1.948   1.176 -0.0862 -0.2050  0.0378
 2152TIP3    H127947   5.106   1.861   1.151  0.6151 -0.4698  0.0588
 2152TIP3    H227948   5.098   1.964   1.261 -0.6486 -0.2766 -0.2073
 2153TIP3   OH227949   4.369   5.569   0.747  0.5035  0.1948 -0.1073
 2153TIP3    H127950   4.332   5.616   0.822  1.8463 -0.9339  1.2839
 2153TIP3    H227951   4.316   5.598   0.673  0.8748  3.3936  0.8127
 2154TIP3   OH227952   1.044   4.700   0.152  0.2786  0.1698  0.1720
 2154TIP3    H127953   1.005   4.787   0.156  1.9297  0.9624 -0.3990
 2154TIP3    H227954   0.976   4.641   0.184  0.3348  2.0624  4.1780
 2155TIP3   OH227955   0.474   4.350  12.968  0.1063  0.5969 -0.4027
 2155TIP3    H127956   0.426   4.329  13.048 -0.6847  0.3692 -0.9255
 2155TIP3    H227957   0.406   4.356  12.900  0.8725 -0.3452 -1.2792
 2156TIP3   OH227958   4.992   4.385   4.297 -0.4697 -0.2443 -0.0010
 2156TIP3    H127959   4.955   4.460   4.342 -0.9036 -1.1199  1.1181
 2156TIP3    H227960   4.942   4.310   4.329  1.3718 -1.2843  0.5488
 2157TIP3   OH227961   1.996   2.328   1.487 -0.3913  0.3686 -0.1700
 2157TIP3    H127962   2.044   2.273   1.425 -1.7732 -0.4019 -0.5905
 2157TIP3    H227963   1.945   2.266   1.539 -2.7516  1.2581 -1.3160
 2158TIP3   OH227964   1.903   6.596  15.898  0.4998 -0.2606  0.1621
 2158TIP3    H127965   1.814   6.593  15.864  0.3559  0.1267  0.5084
 2158TIP3    H227966   1.946   6.665  15.848  0.3515  0.1583  0.6162
 2159TIP3   OH227967   4.721   6.490  14.311 -0.4188  0.4350 -0.2567
 2159TIP3    H127968   4.652   6.470  14.248 -2.1150  1.3679  1.2496
 2159TIP3    H227969   4.705   6.581  14.337  1.2847  0.6249  0.2364
 2160TIP3   OH227970   1.865   2.514  11.520  0.3104  0.1745 -0.3667
 2160TIP3    H127971   1.953   2.545  11.500  0.3504 -0.5410 -1.3000
 2160TIP3    H227972   1.812   2.539  11.445  0.4296 -2.3470 -1.3429
 2161TIP3   OH227973   4.291   1.461   4.183 -0.1277  0.1140  0.2389
 2161TIP3    H127974   4.210   1.433   4.141  0.7445 -0.7024 -0.9117
 2161TIP3    H227975   4.293   1.556   4.170  0.4805 -0.2149 -2.1948
 2162TIP3   OH227976   4.948   4.554  12.674  0.4202  0.3576 -0.2487
 2162TIP3    H127977   4.873   4.577  12.619  0.3172 -0.1277 -0.3097
 2162TIP3    H227978   4.994   4.637  12.687 -0.3062  0.7193  0.0595
 2163TIP3   OH227979   0.353   2.879   6.467  0.2443  0.3260  0.3391
 2163TIP3    H127980   0.416   2.949   6.452  0.8591 -0.2775  0.0798
 2163TIP3    H227981   0.403   2.798   6.452 -1.3435 -0.1193 -2.9743
 2164TIP3   OH227982   4.874   3.427   2.528 -0.5599  0.2052  0.1881
 2164TIP3    H127983   4.917   3.499   2.575 -3.0456  0.0577  2.7840
 2164TIP3    H227984   4.804   3.469   2.479 -0.6409 -0.1644 -0.0132
 2165TIP3   OH227985   2.850   1.613   3.560 -0.1289 -0.0344 -0.3808
 2165TIP3    H127986   2.907   1.607   3.636  0.4722 -0.7733 -0.8862
 2165TIP3    H227987   2.851   1.525   3.522 -0.7342  0.2287 -1.0176
 2166TIP3   OH227988   3.779   4.320   5.861  0.3968 -0.2464  0.8795
 2166TIP3    H127989   3.793   4.405   5.902 -0.7713  0.7240 -0.6903
 2166TIP3    H227990   3.685   4.306   5.866  0.1908  0.0451 -1.7371
 2167TIP3   OH227991   1.753   0.135  13.635 -0.4668  0.0459  0.0317
 2167TIP3    H127992   1.761   0.172  13.547  2.1429 -3.3126 -1.2375
 2167TIP3    H227993   1.771   0.209  13.693  0.7617  1.6711 -2.3179
 2168TIP3   OH227994   1.206   2.426   1.473  0.2804 -0.2370  0.4218
 2168TIP3    H127995   1.145   2.392   1.539 -0.1848  1.1404  0.7205
 2168TIP3    H227996   1.151   2.462   1.405  0.7602  0.1197  0.2164
 2169TIP3   OH227997   1.727   3.281  13.339 -0.0249  0.5119  0.6755
 2169TIP3    H127998   1.735   3.374  13.315  2.0803  0.6236  1.6267
 2169TIP3    H227999   1.666   3.280  13.413 -0.2882  1.1015  0.4699
 2170TIP3   OH228000   5.898   0.024   5.543  0.3633  0.3322 -0.6437
 2170TIP3    H128001   5.931  -0.059   5.577  0.6357  0.4133 -0.7101
 2170TIP3    H228002   5.890   0.081   5.620 -0.9293 -0.1257 -0.4304
 2171TIP3   OH228003   6.118   1.753  14.985  0.4010  0.1880 -0.1950
 2171TIP3    H128004   6.163   1.727  15.065 -0.5220  0.2478  0.3545
 2171TIP3    H228005   6.148   1.691  14.919  0.7064 -0.2435  0.3426
 2172TIP3   OH228006   5.191   0.011  11.108  0.8634 -0.0432  0.2903
 2172TIP3    H128007   5.149   0.075  11.051  0.7646 -0.4497 -0.0955
 2172TIP3    H228008   5.120  -0.024  11.161  1.2076  1.5304  1.8346
 2173TIP3   OH228009   5.631   1.064   2.549 -0.1210  0.2019  0.0488
 2173TIP3    H128010   5.678   1.134   2.594 -1.1151  1.7670 -1.2353
 2173TIP3    H228011   5.669   1.063   2.461 -0.4461 -0.5485 -0.0841
 2174TIP3   OH228012   4.741   5.690   5.845  0.1472 -0.6330 -0.4022
 2174TIP3    H128013   4.679   5.763   5.840  2.1324  1.1337 -0.3753
 2174TIP3    H228014   4.716   5.632   5.773 -0.8328  0.6184 -1.0895
 2175TIP3   OH228015   5.606   5.624   0.259  0.1399 -0.0870  0.3583
 2175TIP3    H128016   5.585   5.717   0.251  0.6834  0.1270  1.2927
 2175TIP3    H228017   5.524   5.579   0.240 -0.5201  0.6442  1.3847
 2176TIP3   OH228018   0.251   3.188   2.908 -0.3506 -0.6215 -0.9252
 2176TIP3    H128019   0.346   3.179   2.903 -0.1541 -1.1780  2.7603
 2176TIP3    H228020   0.236   3.283   2.898  0.7654 -0.2729  0.6185
 2177TIP3   OH228021   0.129   1.970  14.276  0.2228 -0.4748  0.5245
 2177TIP3    H128022   0.056   1.969  14.338  0.4659  0.8644  0.8586
 2177TIP3    H228023   0.100   1.914  14.204 -0.6546 -0.8902  1.1823
 2178TIP3   OH228024   3.945   0.618  16.853 -0.3772 -0.4897  0.5120
 2178TIP3    H128025   3.894   0.646  16.777  1.6954  0.2083 -0.6672
 2178TIP3    H228026   3.998   0.546  16.820  0.1229 -0.5451  1.4477
 2179TIP3   OH228027   6.625   0.901   0.595 -0.4289  0.6748  0.0731
 2179TIP3    H128028   6.591   0.962   0.660 -0.9708  0.3681  0.0791
 2179TIP3    H228029   6.605   0.814   0.631  1.7230  0.4391  0.8401
 2180TIP3   OH228030   0.142   6.302   4.735  0.2312  0.0942 -0.0127
 2180TIP3    H128031   0.231   6.322   4.766  0.3882  0.7015 -0.8493
 2180TIP3    H228032   0.091   6.293   4.815  0.3667  2.8759  0.4484
 2181TIP3   OH228033   0.758   0.651  14.924 -0.4298 -0.0534  0.3032
 2181TIP3    H128034   0.765   0.570  14.873  1.4501 -0.3634  1.0224
 2181TIP3    H228035   0.729   0.622  15.011  3.0551 -0.3477  1.4474
 2182TIP3   OH228036   0.433   6.044  17.263 -0.1743 -0.3065 -0.3071
 2182TIP3    H128037   0.371   5.991  17.314 -1.6639 -0.0093 -1.7531
 2182TIP3    H228038   0.510   5.988  17.253  0.0455 -0.4596  2.0209
 2183TIP3   OH228039   4.184   0.946  12.419  0.0742 -0.1290  0.1182
 2183TIP3    H128040   4.150   0.953  12.329 -0.0003  3.8015  0.3817
 2183TIP3    H228041   4.273   0.912  12.408  0.2006  0.6773 -1.4861
 2184TIP3   OH228042   0.315   5.219  15.808  0.2704  0.4681 -0.2308
 2184TIP3    H128043   0.264   5.192  15.884  1.6325  1.1778  0.9675
 2184TIP3    H228044   0.340   5.137  15.766  0.3963  0.0131  0.7096
 2185TIP3   OH228045   0.163   1.955  15.485 -0.5770  0.1764  0.6502
 2185TIP3    H128046   0.096   1.933  15.550 -0.4226 -3.0264 -0.1728
 2185TIP3    H228047   0.244   1.962  15.536 -0.7883 -0.3983  1.0823
 2186TIP3   OH228048   5.686   1.929  10.501 -0.0347  0.3773 -0.5562
 2186TIP3    H128049   5.617   1.892  10.445 -0.2008  0.4562 -0.4058
 2186TIP3    H228050   5.763   1.875  10.483 -1.0490 -1.9797  1.8664
 2187TIP3   OH228051   2.082   5.613  14.800  0.1037 -0.1498  0.3273
 2187TIP3    H128052   2.045   5.568  14.876 -2.3463  1.4555  0.1327
 2187TIP3    H228053   2.017   5.601  14.731  1.2560  0.3563 -0.8782
 2188TIP3   OH228054   2.111   1.183  15.390  0.3039  0.4719  0.1557
 2188TIP3    H128055   2.195   1.137  15.390  0.0336 -0.0670 -1.6977
 2188TIP3    H228056   2.046   1.115  15.409  0.0438  0.3381 -1.1452
 2189TIP3   OH228057   4.446   0.318   6.105  0.5227  0.2971 -0.0640
 2189TIP3    H128058   4.396   0.239   6.084 -0.4316  1.3192 -1.7143
 2189TIP3    H228059   4.480   0.302   6.194 -1.1409 -1.2155  0.3219
 2190TIP3   OH228060   3.683   0.619  11.794 -0.5739  0.2601 -0.1505
 2190TIP3    H128061   3.699   0.553  11.862  1.6143  1.2390  0.3140
 2190TIP3    H228062   3.670   0.568  11.714 -0.9720 -0.8016  0.5746
 2191TIP3   OH228063   3.599   5.436  15.274  0.5488 -0.5946  0.0304
 2191TIP3    H128064   3.689   5.451  15.245  0.6255 -0.3897  0.3652
 2191TIP3    H228065   3.545   5.465  15.201  0.7577 -0.7986 -0.2039
 2192TIP3   OH228066   5.446   6.015   0.832  0.5605  0.7341  0.5817
 2192TIP3    H128067   5.360   6.028   0.873  0.1910 -0.1094  0.0975
 2192TIP3    H228068   5.455   6.089   0.772 -1.2292 -0.7774 -1.6643
 2193TIP3   OH228069   2.916   2.484   2.074  0.1718  0.2231  0.3305
 2193TIP3    H128070   2.868   2.450   2.149 -0.6488  0.1948 -0.1980
 2193TIP3    H228071   3.007   2.456   2.089 -0.1281 -0.4692  0.9099
 2194TIP3   OH228072   3.681   3.958  16.124  0.3890 -0.4130  0.0592
 2194TIP3    H128073   3.684   3.868  16.155 -0.0231 -0.1706  0.8189
 2194TIP3    H228074   3.639   4.007  16.195 -0.8773  0.0874 -1.0153
 2195TIP3   OH228075   1.790   2.335  15.270  0.1712 -0.0087  0.2629
 2195TIP3    H128076   1.789   2.240  15.258  1.6500  0.0163 -0.0844
 2195TIP3    H228077   1.733   2.350  15.346  0.2700 -1.2011  0.5810
 2196TIP3   OH228078   4.096   6.036   2.041  0.0762  0.3745  0.2540
 2196TIP3    H128079   4.167   5.990   1.997  1.7180  0.8007  2.3881
 2196TIP3    H228080   4.113   6.129   2.022 -1.1416  0.3746 -0.9721
 2197TIP3   OH228081   3.863   2.967  16.231  0.2547 -0.2394  0.1736
 2197TIP3    H128082   3.953   2.963  16.199  0.1334 -0.5254 -0.1412
 2197TIP3    H228083   3.871   2.968  16.326  0.6239  0.8231  0.1334
 2198TIP3   OH228084   4.058   5.366   1.996  0.2111 -0.2412  0.0913
 2198TIP3    H128085   4.105   5.348   2.078  1.6481  0.7305 -0.5066
 2198TIP3    H228086   4.126   5.387   1.933 -0.9412 -0.2773 -1.1836
 2199TIP3   OH228087   4.769   2.181  14.813  0.4406 -0.4335  0.2468
 2199TIP3    H128088   4.728   2.124  14.747  1.4573 -1.8242  0.7783
 2199TIP3    H228089   4.699   2.201  14.874  0.3962 -2.3656  0.8667
 2200TIP3   OH228090   3.779   0.688   5.396 -0.4834  0.3945  0.1708
 2200TIP3    H128091   3.734   0.757   5.348 -2.1269 -1.0512 -0.4419
 2200TIP3    H228092   3.871   0.697   5.370 -0.4551  3.0699  1.0523
 2201TIP3   OH228093   6.165   5.439   1.167  0.6294  0.6506 -0.1383
 2201TIP3    H128094   6.258   5.454   1.180  1.6317 -2.5876 -2.7541
 2201TIP3    H228095   6.140   5.500   1.097  1.2887  0.1410 -0.8291
 2202TIP3   OH228096   1.341   4.865   1.911  0.4887  0.0125  0.6636
 2202TIP3    H128097   1.348   4.840   1.819  0.6855  3.0753 -0.2183
 2202TIP3    H228098   1.370   4.956   1.913 -1.7148  0.7258  3.3758
 2203TIP3   OH228099   0.975   1.962   1.540 -0.5572 -0.9650 -0.3136
 2203TIP3    H128100   1.030   2.037   1.562  1.1848 -2.5640  0.9164
 2203TIP3    H228101   0.973   1.960   1.444 -2.5481  1.9899 -0.3976
 2204TIP3   OH228102   3.225   5.055   0.113 -0.0625 -0.2361  0.2746
 2204TIP3    H128103   3.244   4.963   0.132 -0.3065 -0.7281 -1.7398
 2204TIP3    H228104   3.166   5.082   0.182  0.2828 -1.5039  1.0810
 2205TIP3   OH228105   3.858   2.108  14.851  0.3746  0.2304 -0.0713
 2205TIP3    H128106   3.893   2.044  14.788  1.0308 -0.2011  0.7201
 2205TIP3    H228107   3.929   2.172  14.860 -0.0487  0.7525 -0.4008
 2206TIP3   OH228108   3.052   0.348   0.090 -0.0414  0.3723  0.1010
 2206TIP3    H128109   2.999   0.273   0.060  0.9677 -0.4874  0.4443
 2206TIP3    H228110   3.124   0.352   0.027  0.0393  0.9110  0.2287
 2207TIP3   OH228111   4.764   4.363   5.752  0.6580  0.0063 -0.3888
 2207TIP3    H128112   4.692   4.341   5.693  2.0423 -1.2667 -1.6405
 2207TIP3    H228113   4.775   4.458   5.743 -1.5664  0.4043  0.6639
 2208TIP3   OH228114   1.675   4.462   6.057 -0.5732 -0.3997  0.2967
 2208TIP3    H128115   1.635   4.375   6.063  0.2837 -0.7127  1.5604
 2208TIP3    H228116   1.657   4.504   6.141  0.5952 -0.0493  0.3886
 2209TIP3   OH228117   4.734   2.568  15.830 -0.3110 -0.1361 -0.4263
 2209TIP3    H128118   4.803   2.628  15.856 -1.3762  0.7687  0.3813
 2209TIP3    H228119   4.661   2.625  15.805 -1.5812 -1.0750  1.0355
 2210TIP3   OH228120   0.585   3.072  11.114  0.6908  0.7838 -0.4373
 2210TIP3    H128121   0.593   3.119  11.197 -0.0209  0.3756 -0.1283
 2210TIP3    H228122   0.558   2.983  11.139 -0.3622  0.8959 -1.1449
 2211TIP3   OH228123   3.232   6.126   4.869 -0.2780  0.8669 -0.2262
 2211TIP3    H128124   3.322   6.144   4.897 -0.1453 -0.3466  0.1595
 2211TIP3    H228125   3.187   6.098   4.949 -0.7753  0.6492 -0.5740
 2212TIP3   OH228126   0.612   1.538  16.256  0.3740  0.3455  0.1258
 2212TIP3    H128127   0.598   1.449  16.289  0.6445  0.7473  1.3321
 2212TIP3    H228128   0.610   1.594  16.334 -0.5216  1.4884 -0.6952
 2213TIP3   OH228129   2.740   5.254  11.765 -0.1386 -0.1292 -0.4349
 2213TIP3    H128130   2.727   5.339  11.808  0.0239 -0.5960  0.5725
 2213TIP3    H228131   2.822   5.263  11.718  0.6214 -0.1705  0.8413
 2214TIP3   OH228132   6.339   2.084  14.359  0.2987  0.0156 -0.0644
 2214TIP3    H128133   6.336   1.989  14.352  0.9719 -0.2758  2.8881
 2214TIP3    H228134   6.371   2.114  14.274 -0.3535 -2.3413 -1.1728
 2215TIP3   OH228135   5.174   0.610  14.318  0.0567 -0.2224 -0.0846
 2215TIP3    H128136   5.158   0.699  14.288  0.1855 -0.5927 -1.2526
 2215TIP3    H228137   5.246   0.579  14.263 -1.0730 -1.6156 -0.7851
 2216TIP3   OH228138   5.532   5.087   3.621  0.2601 -0.2728  0.0934
 2216TIP3    H128139   5.529   5.097   3.526  1.1808  0.3926  0.1284
 2216TIP3    H228140   5.620   5.053   3.638  0.6327  1.0134  0.8187
 2217TIP3   OH228141   1.847   2.088  10.948  0.2704  0.6779 -0.1830
 2217TIP3    H128142   1.841   2.184  10.957  1.1480  0.7322 -0.1898
 2217TIP3    H228143   1.823   2.071  10.857  0.0573  0.8850 -0.1667
 2218TIP3   OH228144   3.207   6.475  11.022  0.0104 -0.7711 -0.0033
 2218TIP3    H128145   3.223   6.569  11.029 -0.2943 -0.6601 -0.7317
 2218TIP3    H228146   3.283   6.442  10.973  1.0417 -1.1977  1.8175
 2219TIP3   OH228147   4.749   3.740   3.024 -0.2109  0.5091 -0.2299
 2219TIP3    H128148   4.741   3.834   3.011 -3.8043  0.4624  0.9424
 2219TIP3    H228149   4.792   3.731   3.110  1.4057  1.0247 -0.9702
 2220TIP3   OH228150   4.060   6.231  15.206 -0.0261  0.0213 -0.4693
 2220TIP3    H128151   4.112   6.157  15.237  0.0582  0.6387  0.9211
 2220TIP3    H228152   4.117   6.276  15.144  1.0634  0.6235  0.9454
 2221TIP3   OH228153   0.447   0.278  16.461  0.1242 -0.3890 -0.4076
 2221TIP3    H128154   0.416   0.307  16.375 -2.3142  0.7850  0.8191
 2221TIP3    H228155   0.542   0.287  16.456 -0.2209  3.6906 -1.6232
 2222TIP3   OH228156   4.128   6.472   2.874 -0.8004 -0.3133 -0.8375
 2222TIP3    H128157   4.084   6.555   2.860 -0.2138 -0.2508 -2.4289
 2222TIP3    H228158   4.221   6.492   2.859 -0.5857 -1.1059 -0.5734
 2223TIP3   OH228159   2.688   5.332  15.003  0.4173 -0.7888 -0.4295
 2223TIP3    H128160   2.714   5.388  14.929  1.1730 -0.5309  0.0260
 2223TIP3    H228161   2.764   5.277  15.020  0.3715 -0.6138  0.3798
 2224TIP3   OH228162   6.686   2.902  14.356 -0.0107  0.1920 -0.2387
 2224TIP3    H128163   6.597   2.936  14.369 -0.8925 -1.8923 -0.4746
 2224TIP3    H228164   6.710   2.867  14.442  0.6711  0.9335 -0.1265
 2225TIP3   OH228165   6.173   3.899   4.513 -0.0965 -0.0861  0.1081
 2225TIP3    H128166   6.180   3.814   4.470  1.4198 -0.5301  1.1678
 2225TIP3    H228167   6.200   3.883   4.604 -0.7097  1.3401  0.5704
 2226TIP3   OH228168   0.658   1.510   2.896 -0.2234  0.0764  0.5818
 2226TIP3    H128169   0.617   1.476   2.816  0.7297  0.7684 -0.2067
 2226TIP3    H228170   0.606   1.587   2.918 -0.2414  0.1177  0.3995
 2227TIP3   OH228171   3.727   1.223   4.096 -0.2466 -0.4848 -0.6073
 2227TIP3    H128172   3.636   1.251   4.095  0.3527  1.5717 -0.7678
 2227TIP3    H228173   3.752   1.226   4.188  0.8507  3.1615 -0.9604
 2228TIP3   OH228174   4.259   5.204  12.811  0.2088 -0.5934 -0.1945
 2228TIP3    H128175   4.217   5.118  12.813 -1.7482  0.3360  0.1131
 2228TIP3    H228176   4.304   5.207  12.727  0.1363 -1.8398 -0.2845
 2229TIP3   OH228177   6.013   4.353   4.346  0.1936 -0.8534  0.9422
 2229TIP3    H128178   6.040   4.274   4.392  2.3934 -1.1273 -0.7635
 2229TIP3    H228179   6.082   4.417   4.365  1.9049 -1.3902 -3.0127
 2230TIP3   OH228180   4.424   5.473   3.445 -0.0846  0.3758  0.0907
 2230TIP3    H128181   4.335   5.508   3.437  0.3052  1.2019 -0.6635
 2230TIP3    H228182   4.481   5.547   3.424  0.8241  0.2198  1.9288
 2231TIP3   OH228183   0.353   3.365  15.145  0.2871 -0.0572  0.2251
 2231TIP3    H128184   0.362   3.295  15.209  0.0341 -0.4110 -0.1258
 2231TIP3    H228185   0.440   3.373  15.106  0.3562 -0.0695  0.3754
 2232TIP3   OH228186   5.916   5.663   0.762  0.2175 -0.0990 -0.6833
 2232TIP3    H128187   5.858   5.734   0.787  1.0760  0.2803  0.2506
 2232TIP3    H228188   5.911   5.661   0.666 -2.6789 -1.2188 -0.5783
 2233TIP3   OH228189   0.268   6.521  15.174 -0.0950 -0.6404 -0.0421
 2233TIP3    H128190   0.231   6.437  15.201 -0.3695 -1.3456 -2.5116
 2233TIP3    H228191   0.322   6.500  15.098  0.6880  1.2669 -0.0371
 2234TIP3   OH228192   6.694   5.527  11.388 -0.1077  0.2694 -0.6273
 2234TIP3    H128193   6.648   5.444  11.383  1.1685 -0.3856 -2.0600
 2234TIP3    H228194   6.740   5.534  11.304  0.1530  2.2058 -0.3513
 2235TIP3   OH228195   0.199   2.582  16.607  0.3459  0.1072  0.5073
 2235TIP3    H128196   0.285   2.586  16.650  1.4744  1.2935 -1.7592
 2235TIP3    H228197   0.183   2.489  16.594  0.5219 -0.2117  2.4015
 2236TIP3   OH228198   6.601   2.649   2.416  0.5288 -0.4229  0.3691
 2236TIP3    H128199   6.567   2.718   2.473 -1.1828 -1.4469  0.6187
 2236TIP3    H228200   6.661   2.599   2.471 -1.2707 -1.5298  1.3691
 2237TIP3   OH228201   1.963   2.105   6.219 -0.0469  0.0876 -0.1633
 2237TIP3    H128202   2.013   2.124   6.299  0.3465 -1.8002  0.0454
 2237TIP3    H228203   1.984   2.178   6.161  2.2223 -0.1622  0.2761
 2238TIP3   OH228204   6.713   1.534   3.426  0.1865 -0.7003 -0.2247
 2238TIP3    H128205   6.621   1.522   3.403  0.0915  0.6405 -0.5558
 2238TIP3    H228206   6.750   1.583   3.353  0.6594  0.6593  0.9058
 2239TIP3   OH228207   6.781   5.815  17.162 -0.5501 -0.2418 -0.4408
 2239TIP3    H128208   6.820   5.903  17.158 -1.4882  0.1853 -0.3122
 2239TIP3    H228209   6.687   5.831  17.163 -0.7361 -1.2934 -1.2506
 2240TIP3   OH228210   3.374   6.714  12.035 -0.1975  0.0479  0.2398
 2240TIP3    H128211   3.398   6.805  12.015  0.7661  0.2110  2.0423
 2240TIP3    H228212   3.447   6.681  12.086 -0.6586 -1.6862 -0.2027
 2241TIP3   OH228213   3.999   4.337  11.651 -0.1649  0.3623 -0.0015
 2241TIP3    H128214   3.951   4.259  11.623  1.4332  0.6528 -3.8181
 2241TIP3    H228215   4.006   4.391  11.573  3.1691  2.0023  1.3213
 2242TIP3   OH228216   5.275   4.051  11.518 -0.5183  0.6213  0.2105
 2242TIP3    H128217   5.335   3.980  11.538 -0.2092  1.4105  2.1518
 2242TIP3    H228218   5.189   4.019  11.547 -0.0307  1.8612  3.1747
 2243TIP3   OH228219   4.947   4.104   1.370  0.0752 -0.0902 -0.3556
 2243TIP3    H128220   5.038   4.131   1.356 -0.4646  1.0933 -1.5832
 2243TIP3    H228221   4.897   4.151   1.304 -1.2907 -1.6955 -0.5016
 2244TIP3   OH228222   2.634   0.125  16.416 -0.3339 -0.1006  0.2411
 2244TIP3    H128223   2.583   0.060  16.368 -2.3029  0.8528  0.9597
 2244TIP3    H228224   2.630   0.204  16.362  0.2484  0.0221  0.3755
 2245TIP3   OH228225   1.390   5.984  16.373 -0.0608  0.0561  0.1168
 2245TIP3    H128226   1.411   5.953  16.285  0.1139 -0.5757  0.3827
 2245TIP3    H228227   1.474   6.009  16.410 -0.2513  1.3948 -0.2890
 2246TIP3   OH228228   1.617   5.417   2.420 -0.3549  0.0799  0.0332
 2246TIP3    H128229   1.569   5.449   2.344 -0.0634 -0.6102 -0.4390
 2246TIP3    H228230   1.584   5.470   2.493 -1.9834 -0.5213 -0.2444
 2247TIP3   OH228231   2.987   6.777   3.435  0.2078 -0.5882  0.4421
 2247TIP3    H128232   3.058   6.822   3.390  0.1199 -1.8084 -0.9449
 2247TIP3    H228233   3.017   6.772   3.526  0.6493  1.3599  0.4271
 2248TIP3   OH228234   2.175   1.511   4.499  0.0410 -0.2861 -0.1881
 2248TIP3    H128235   2.166   1.558   4.416 -1.8830 -1.7355 -0.8521
 2248TIP3    H228236   2.247   1.555   4.544  0.6614  0.9681 -2.3202
 2249TIP3   OH228237   2.053   5.542  16.515  0.8437 -0.5789 -0.3959
 2249TIP3    H128238   1.973   5.513  16.471  0.7547  1.3707 -1.6135
 2249TIP3    H228239   2.041   5.518  16.607 -1.7375  0.8487 -0.3187
 2250TIP3   OH228240   0.760   3.634   6.025 -0.1972 -0.0732 -0.1017
 2250TIP3    H128241   0.828   3.669   6.083  0.3291  0.2572 -0.9086
 2250TIP3    H228242   0.716   3.567   6.077 -0.0683  0.5767  0.8593
 2251TIP3   OH228243   6.287   0.393   2.167  0.1029  0.1771 -0.0002
 2251TIP3    H128244   6.276   0.488   2.164 -0.3966  0.1155 -0.1845
 2251TIP3    H228245   6.357   0.379   2.231  1.0444  0.7316 -0.8991
 2252TIP3   OH228246   3.532   4.389  15.602 -0.5150 -0.1182 -0.1383
 2252TIP3    H128247   3.615   4.404  15.555  0.1250  1.4904  1.4841
 2252TIP3    H228248   3.551   4.414  15.692 -2.4368 -0.9333  0.5004
 2253TIP3   OH228249   6.721   5.449   6.636  0.5577 -1.1711 -0.8693
 2253TIP3    H128250   6.649   5.480   6.691  0.8621  0.8190 -1.5553
 2253TIP3    H228251   6.782   5.407   6.697 -0.6029 -1.8277 -0.1378
 2254TIP3   OH228252   3.153   3.429  12.117  0.0334 -0.1557  0.1221
 2254TIP3    H128253   3.159   3.438  12.021  0.8378 -0.5557  0.1257
 2254TIP3    H228254   3.173   3.336  12.133 -1.1325 -0.3233  0.5964
 2255TIP3   OH228255   1.399   1.020  11.882 -0.0092 -0.7037 -0.0706
 2255TIP3    H128256   1.469   1.084  11.895 -0.2044 -0.3815 -0.6016
 2255TIP3    H228257   1.441   0.936  11.900  0.1806 -0.4110  0.8837
 2256TIP3   OH228258   5.349   4.277  11.408 -0.0762 -0.0875 -0.0478
 2256TIP3    H128259   5.341   4.191  11.449  3.1906 -0.3152  0.2250
 2256TIP3    H228260   5.378   4.258  11.319  2.6797  0.7333  0.6134
 2257TIP3   OH228261   1.402   3.644   3.695 -0.2448  0.0602 -0.6174
 2257TIP3    H128262   1.479   3.589   3.705 -1.3108 -1.5794 -1.0918
 2257TIP3    H228263   1.397   3.695   3.776  0.3121 -1.1528  0.1894
 2258TIP3   OH228264   0.202   3.199   5.666  0.1849 -0.5778  0.2666
 2258TIP3    H128265   0.276   3.259   5.670  0.3588 -0.8041  0.4790
 2258TIP3    H228266   0.135   3.246   5.615  0.1753 -0.0515  0.7589
 2259TIP3   OH228267   1.966   2.990  10.786  0.1079  0.6255 -0.5571
 2259TIP3    H128268   1.901   2.921  10.769 -0.8941  1.7186 -1.2364
 2259TIP3    H228269   2.032   2.980  10.718  0.0972  0.1808 -0.5019
 2260TIP3   OH228270   0.534   5.463  14.599  0.0871 -1.0760  0.3065
 2260TIP3    H128271   0.459   5.461  14.540  0.1756 -2.3748  0.2225
 2260TIP3    H228272   0.513   5.398  14.666  1.8325 -2.6414 -0.6089
 2261TIP3   OH228273   5.418   4.862  12.188  0.3382  0.0694  0.0639
 2261TIP3    H128274   5.394   4.890  12.276 -0.1247 -1.0717  0.2993
 2261TIP3    H228275   5.513   4.875  12.184  0.3070  0.4631  0.6073
 2262TIP3   OH228276   2.297   4.224  15.451 -0.3401 -0.0600  0.5890
 2262TIP3    H128277   2.238   4.299  15.452  0.2648  0.4225  0.9592
 2262TIP3    H228278   2.251   4.156  15.402 -1.0908  0.3941  0.6724
 2263TIP3   OH228279   1.782   3.574   2.142  0.2714 -0.3540 -0.6252
 2263TIP3    H128280   1.719   3.621   2.087  1.1456 -0.8504 -2.0790
 2263TIP3    H228281   1.855   3.635   2.154  0.8568 -0.8752 -1.4824
 2264TIP3   OH228282   0.688   2.678  14.994  0.0615 -0.2895  0.1385
 2264TIP3    H128283   0.704   2.657  14.902  0.3242  0.1135  0.0909
 2264TIP3    H228284   0.674   2.773  14.994  0.2567 -0.2652  0.5446
 2265TIP3   OH228285   4.744   2.190  16.729  0.5653  0.2459 -0.5284
 2265TIP3    H128286   4.703   2.264  16.684  0.1913  0.9964  1.0027
 2265TIP3    H228287   4.684   2.170  16.802  1.6884 -0.2295  0.2778
 2266TIP3   OH228288   4.257   1.918  11.727  0.4401 -0.2829 -0.4901
 2266TIP3    H128289   4.259   1.883  11.816 -2.9184  0.2991 -0.1021
 2266TIP3    H228290   4.206   1.853  11.677  1.9645 -0.4121 -1.9109
 2267TIP3   OH228291   3.825   3.246   5.490 -0.5474 -0.1350  1.1295
 2267TIP3    H128292   3.822   3.301   5.412  1.9034 -1.3319  0.1143
 2267TIP3    H228293   3.891   3.179   5.469  0.3987 -0.2879  4.3597
 2268TIP3   OH228294   0.543   6.675  11.938  0.1743  0.6702 -0.8352
 2268TIP3    H128295   0.480   6.717  11.996 -0.6704  0.2721 -1.4397
 2268TIP3    H228296   0.493   6.605  11.895  1.6285 -1.1973  0.4174
 2269TIP3   OH228297   0.406   5.382   1.520 -0.2006 -0.3049 -0.0810
 2269TIP3    H128298   0.384   5.339   1.602 -0.0024  0.3926  0.3350
 2269TIP3    H228299   0.424   5.310   1.459  1.0162 -0.8081  0.8550
 2270TIP3   OH228300   6.660   5.802  15.395 -0.2985 -0.6541  0.3517
 2270TIP3    H128301   6.732   5.832  15.451  0.2909  0.2041 -0.8509
 2270TIP3    H228302   6.651   5.709  15.415  0.5523 -0.5660  1.1657
 2271TIP3   OH228303   2.308   5.429   4.644  0.3912 -0.4880 -0.1879
 2271TIP3    H128304   2.337   5.402   4.557  0.0357  1.4964 -0.9273
 2271TIP3    H228305   2.225   5.474   4.630  0.3573 -0.0831  1.1717
 2272TIP3   OH228306   1.278   5.717  12.367 -0.4005  0.7626  0.0742
 2272TIP3    H128307   1.310   5.636  12.407 -1.8007 -0.5441 -1.3861
 2272TIP3    H228308   1.249   5.771  12.440  1.8131  0.5374  1.1730
 2273TIP3   OH228309   2.522   4.992   1.046  0.1667  0.6857 -0.1001
 2273TIP3    H128310   2.498   4.912   1.001 -1.2838  1.2316 -0.3085
 2273TIP3    H228311   2.473   5.061   1.002  1.3847  1.6970  0.0799
 2274TIP3   OH228312   3.757   5.133  15.764 -0.5314  0.1910  0.1654
 2274TIP3    H128313   3.752   5.192  15.839 -0.7242 -2.8851  2.6571
 2274TIP3    H228314   3.726   5.049  15.797  0.8618 -1.6460 -2.9570
 2275TIP3   OH228315   4.043   5.188  16.136 -0.0940  0.4565 -0.3240
 2275TIP3    H128316   4.012   5.270  16.099  1.6613  0.5103 -1.7733
 2275TIP3    H228317   4.065   5.209  16.227 -3.3843  0.5985  0.4912
 2276TIP3   OH228318   0.047   6.334  12.027 -0.9130 -0.2518 -0.1616
 2276TIP3    H128319   0.123   6.277  12.027 -1.1328 -0.5741 -1.9357
 2276TIP3    H228320   0.079   6.418  12.061  0.2416 -0.3618 -0.9826
 2277TIP3   OH228321   3.443   6.091  16.121 -0.0131 -0.1151  0.7153
 2277TIP3    H128322   3.371   6.109  16.060 -0.1519 -2.8546 -0.0193
 2277TIP3    H228323   3.420   6.006  16.160  2.5216 -0.7271  0.9287
 2278TIP3   OH228324   4.050   4.049   2.070  0.0055  1.1273  0.6668
 2278TIP3    H128325   4.024   3.982   2.132  0.9108  0.9185  0.8239
 2278TIP3    H228326   3.984   4.045   2.001  0.0971  0.0217  0.6353
 2279TIP3   OH228327   0.833   6.428  14.246 -0.0572  0.1082  0.2771
 2279TIP3    H128328   0.757   6.432  14.187  1.5267  0.4057 -1.7952
 2279TIP3    H228329   0.908   6.421  14.187  1.4768 -0.9222  2.3227
 2280TIP3   OH228330   1.858   1.197  14.768 -0.1251  0.4466 -0.3168
 2280TIP3    H128331   1.860   1.194  14.672 -0.0381 -0.9555 -0.2710
 2280TIP3    H228332   1.900   1.116  14.796  2.2778  2.0492  0.9401
 2281TIP3   OH228333   2.714   5.626  10.639  0.5588  0.3780 -0.5245
 2281TIP3    H128334   2.647   5.694  10.626  1.7307  1.1792 -2.4432
 2281TIP3    H228335   2.787   5.672  10.681  1.1737  0.2131 -1.4062
 2282TIP3   OH228336   6.754   6.565   3.516 -0.1145  0.1563  0.2624
 2282TIP3    H128337   6.769   6.647   3.561 -1.0421  0.6199 -0.2605
 2282TIP3    H228338   6.659   6.558   3.509 -0.0089 -0.1993 -1.0571
 2283TIP3   OH228339   3.777   1.447   0.189  0.4175  0.4268 -0.0533
 2283TIP3    H128340   3.773   1.417   0.098  0.9455  0.5477 -0.1158
 2283TIP3    H228341   3.870   1.460   0.206  0.4427 -0.8595  0.9140
 2284TIP3   OH228342   3.617   6.739   5.662 -0.2192 -0.2021  0.0592
 2284TIP3    H128343   3.637   6.766   5.752  2.0262  0.4436 -0.5759
 2284TIP3    H228344   3.636   6.646   5.660 -1.9026 -0.5750  0.6622
 2285TIP3   OH228345   5.533   0.591  12.480 -0.6882 -0.3967  0.8743
 2285TIP3    H128346   5.537   0.567  12.387 -1.2121  2.0643  0.1858
 2285TIP3    H228347   5.624   0.606  12.505 -0.6386  0.0381  0.4444
 2286TIP3   OH228348   4.580   0.646   6.287 -0.4938 -0.3956 -0.2329
 2286TIP3    H128349   4.629   0.604   6.216  0.0099 -0.6512  0.2541
 2286TIP3    H228350   4.560   0.574   6.347 -0.1998 -0.0451  0.2865
 2287TIP3   OH228351   4.113   6.166   0.244  0.2585 -0.0436 -0.4317
 2287TIP3    H128352   4.209   6.173   0.239  0.1933  1.5822  0.3424
 2287TIP3    H228353   4.098   6.092   0.302  1.0581  0.2001  0.1008
 2288TIP3   OH228354   5.076   2.396   4.880  0.2349  0.4922 -0.2647
 2288TIP3    H128355   5.124   2.434   4.806 -2.2510  0.9035 -1.7311
 2288TIP3    H228356   5.092   2.456   4.953  0.9906  1.2236 -1.0260
 2289TIP3   OH228357   6.683   6.698   3.271 -0.1035  0.6295 -0.0267
 2289TIP3    H128358   6.732   6.636   3.326  0.7200  1.6121  0.3586
 2289TIP3    H228359   6.704   6.784   3.307 -2.4583  1.0571  0.4088
 2290TIP3   OH228360   6.235   6.467   3.835  0.0733 -0.0849 -0.2047
 2290TIP3    H128361   6.290   6.545   3.830 -0.3901  0.2786  0.3266
 2290TIP3    H228362   6.277   6.405   3.775 -0.3104  1.0194 -1.6440
 2291TIP3   OH228363   1.213   4.082   6.721  0.2735 -0.0354 -0.3087
 2291TIP3    H128364   1.213   4.018   6.650 -1.5160  1.2162 -1.4918
 2291TIP3    H228365   1.131   4.131   6.709  1.0513  1.7141  1.2495
 2292TIP3   OH228366   3.923   2.367  10.877 -0.3302 -0.7230 -0.2990
 2292TIP3    H128367   4.002   2.313  10.885 -1.2391 -1.7623  2.0904
 2292TIP3    H228368   3.882   2.336  10.796  1.6760 -0.1706 -1.5696
 2293TIP3   OH228369   2.138   5.552   3.944  0.0237 -0.3231 -0.6661
 2293TIP3    H128370   2.113   5.635   3.904 -0.1893 -0.7360 -1.3996
 2293TIP3    H228371   2.102   5.485   3.885 -0.4140 -0.9390  0.2930
 2294TIP3   OH228372   4.125   6.463   3.493  0.1793  0.4480  0.2083
 2294TIP3    H128373   4.122   6.413   3.411  0.8680  0.4535  0.1743
 2294TIP3    H228374   4.136   6.554   3.465 -1.7008  0.6896  0.2552
 2295TIP3   OH228375   5.237   1.593   6.414  0.2379 -0.4315  0.5100
 2295TIP3    H128376   5.317   1.629   6.375 -0.1094 -0.3887 -0.1808
 2295TIP3    H228377   5.166   1.644   6.376 -0.1275 -0.5403  1.0386
 2296TIP3   OH228378   3.165   1.744  13.988  0.6950  0.5467 -0.3159
 2296TIP3    H128379   3.145   1.837  13.975 -2.5656 -0.1964 -0.8555
 2296TIP3    H228380   3.209   1.741  14.073  1.3774  2.6345 -0.5588
 2297TIP3   OH228381   5.462   2.118  15.822  0.0544  0.6355  0.0950
 2297TIP3    H128382   5.385   2.175  15.823  0.6957  1.5518 -1.7165
 2297TIP3    H228383   5.441   2.049  15.885 -1.0439  2.4553  1.8153
 2298TIP3   OH228384   2.587   2.361  16.921 -0.0940 -0.4980  0.2506
 2298TIP3    H128385   2.591   2.395  17.011  0.6621 -0.3439  0.1598
 2298TIP3    H228386   2.605   2.267  16.930  0.3337 -0.4169  0.2161
 2299TIP3   OH228387   2.196   2.075   0.836 -0.3144 -0.5595  0.3728
 2299TIP3    H128388   2.109   2.107   0.814  0.8263  1.3307 -1.4992
 2299TIP3    H228389   2.180   2.005   0.900 -3.3283 -2.0325 -1.8881
 2300TIP3   OH228390   2.370   4.833   0.815 -0.2329  0.5851  0.0288
 2300TIP3    H128391   2.287   4.808   0.774  1.1027 -0.3281 -2.2266
 2300TIP3    H228392   2.384   4.767   0.883  1.2990 -2.6438 -3.2441
 2301TIP3   OH228393   1.530   1.847   1.465  0.2271  0.1592 -0.2882
 2301TIP3    H128394   1.521   1.874   1.556  1.1636  0.5740 -0.3053
 2301TIP3    H228395   1.621   1.870   1.442  0.4200 -1.1631 -0.9187
 2302TIP3   OH228396   2.972   3.400   2.129  0.7430 -0.4249 -0.1474
 2302TIP3    H128397   3.005   3.339   2.195  0.5369 -0.5641 -0.1747
 2302TIP3    H228398   2.985   3.355   2.046 -1.0323 -1.1732 -0.0461
 2303TIP3   OH228399   2.916   2.140   1.717  0.0008 -0.4721 -0.2919
 2303TIP3    H128400   2.915   2.045   1.708 -1.8041 -0.5814  0.6353
 2303TIP3    H228401   2.860   2.171   1.646 -1.1918 -0.2692  0.7175
 2304TIP3   OH228402   5.958   5.279  12.022 -0.4310  0.9733 -0.4466
 2304TIP3    H128403   6.002   5.277  12.107 -0.2604  1.9839 -0.4975
 2304TIP3    H228404   5.957   5.372  11.998  0.4974  0.5950 -2.0496
 2305TIP3   OH228405   6.630   2.968  11.329 -0.1108  0.5192 -0.2432
 2305TIP3    H128406   6.560   2.940  11.270  1.3769 -1.1832 -1.2893
 2305TIP3    H228407   6.601   2.941  11.416 -0.9230  0.1580 -0.6270
 2306TIP3   OH228408   1.406   0.616   4.105 -0.5797  0.0200 -0.0183
 2306TIP3    H128409   1.411   0.555   4.032  2.2082 -0.5624  0.5977
 2306TIP3    H228410   1.401   0.559   4.183  1.9881  0.5196  0.5572
 2307TIP3   OH228411   6.132   3.015   3.043  0.3709 -0.2607 -0.0644
 2307TIP3    H128412   6.108   3.065   2.965  0.1125 -1.1139 -0.5391
 2307TIP3    H228413   6.048   2.990   3.082  0.4917 -0.9421 -0.2332
 2308TIP3   OH228414   4.466   3.009   0.020 -0.8405 -0.0162 -0.6190
 2308TIP3    H128415   4.537   3.022   0.083  0.1204  0.3462 -1.7473
 2308TIP3    H228416   4.406   3.081   0.036  0.3949  1.2241 -1.4203
 2309TIP3   OH228417   2.127   5.337   2.255  0.6381 -0.1967 -0.0118
 2309TIP3    H128418   2.032   5.345   2.268  0.9027  0.4709  1.5270
 2309TIP3    H228419   2.142   5.382   2.172 -0.6182 -1.8078 -1.1561
 2310TIP3   OH228420   0.193   5.409  16.999  0.2233 -0.2474  0.2688
 2310TIP3    H128421   0.116   5.354  17.011 -0.4722  0.8312  0.8184
 2310TIP3    H228422   0.203   5.416  16.904 -0.6955  0.0770  0.1937
 2311TIP3   OH228423   3.641   5.193   2.841  0.3070  0.0657  0.9580
 2311TIP3    H128424   3.602   5.116   2.883  3.3645 -1.0803  1.8038
 2311TIP3    H228425   3.617   5.266   2.899 -1.6611 -0.3766  0.7424
 2312TIP3   OH228426   1.548   3.303  13.127  0.4314 -0.2870 -0.5586
 2312TIP3    H128427   1.625   3.269  13.172  0.3275 -0.1421 -0.2730
 2312TIP3    H228428   1.573   3.304  13.035 -0.0956 -2.5721 -0.7573
 2313TIP3   OH228429   3.613   4.328  15.900  0.2309  0.0382 -0.5391
 2313TIP3    H128430   3.534   4.338  15.954 -0.3942 -2.4308 -0.9315
 2313TIP3    H228431   3.675   4.283  15.957  0.7943  0.5404 -0.7570
 2314TIP3   OH228432   4.635   3.758   1.917  0.1815  0.1360 -0.5373
 2314TIP3    H128433   4.683   3.739   1.998  0.6032  0.8738 -0.6086
 2314TIP3    H228434   4.702   3.791   1.857 -0.0920 -0.6362 -1.2686
 2315TIP3   OH228435   2.844   3.477   0.071  0.1793 -0.3037  0.4760
 2315TIP3    H128436   2.753   3.503   0.086  0.3171 -0.9269  2.5543
 2315TIP3    H228437   2.894   3.521   0.140  1.5661  0.5551 -1.0381
 2316TIP3   OH228438   6.364   6.639  10.883  0.4181  0.4908  0.4072
 2316TIP3    H128439   6.437   6.604  10.832  0.1630 -0.2310  0.5311
 2316TIP3    H228440   6.329   6.710  10.830  1.0147  0.6279  0.2005
 2317TIP3   OH228441   6.090   5.971   4.140  0.2903 -0.5012 -0.1556
 2317TIP3    H128442   6.113   6.064   4.151 -0.7724 -0.4946  2.3441
 2317TIP3    H228443   6.174   5.926   4.135  0.8426  0.4248  0.5042
 2318TIP3   OH228444   1.809   3.225   5.206 -0.3309  0.5458 -0.2142
 2318TIP3    H128445   1.877   3.168   5.172  0.5336  1.2608  0.2888
 2318TIP3    H228446   1.853   3.309   5.220 -0.7589  0.4113  2.2321
 2319TIP3   OH228447   3.659   5.543  13.644 -0.2422  0.6950 -0.1877
 2319TIP3    H128448   3.629   5.634  13.652 -1.0198  0.6402 -2.3827
 2319TIP3    H228449   3.622   5.512  13.562  1.5912 -1.0299 -0.3964
 2320TIP3   OH228450   4.937   6.373  13.023 -0.0397 -0.0704 -0.5143
 2320TIP3    H128451   5.013   6.424  12.995  2.1968 -3.2756 -0.4982
 2320TIP3    H228452   4.899   6.341  12.941  0.5510 -1.0964 -0.4000
 2321TIP3   OH228453   6.386   6.118   1.491  0.0607 -0.0483  0.1361
 2321TIP3    H128454   6.468   6.087   1.452  1.6773  2.0312  1.7521
 2321TIP3    H228455   6.356   6.043   1.544  2.5259  0.1346  1.9125
 2322TIP3   OH228456   5.549   2.720  14.766  0.0486  0.1970 -0.0624
 2322TIP3    H128457   5.569   2.698  14.857  0.3735 -1.5327 -0.5291
 2322TIP3    H228458   5.542   2.815  14.765  0.1153  0.2343  1.7559
 2323TIP3   OH228459   0.094   3.317  14.923 -0.6080  0.4851  0.9060
 2323TIP3    H128460   0.040   3.344  14.848 -0.6811 -1.2167  0.3187
 2323TIP3    H228461   0.054   3.361  14.998 -2.6548 -0.5113  0.4350
 2324TIP3   OH228462   3.446   5.530   6.469  0.1981 -0.2084  0.2284
 2324TIP3    H128463   3.425   5.451   6.420 -1.7174  1.0917 -1.1067
 2324TIP3    H228464   3.463   5.596   6.402  0.9181  0.7609  1.3332
 2325TIP3   OH228465   5.499   3.261   1.892 -0.5223 -0.1430 -0.1970
 2325TIP3    H128466   5.445   3.266   1.971  2.3167 -1.5946  1.9404
 2325TIP3    H228467   5.551   3.342   1.893  1.0371 -1.1418  0.6030
 2326TIP3   OH228468   1.279   4.808  12.086 -0.0072  0.4686 -0.1570
 2326TIP3    H128469   1.184   4.812  12.087 -0.0110  0.2785  0.3065
 2326TIP3    H228470   1.308   4.890  12.125  0.0401  1.2783 -1.8668
 2327TIP3   OH228471   1.904   2.180  12.074  0.0201 -1.0435 -0.1343
 2327TIP3    H128472   1.934   2.249  12.015  0.9360 -1.7261 -0.4771
 2327TIP3    H228473   1.809   2.180  12.066  0.0540 -0.1795 -0.5324
 2328TIP3   OH228474   0.752   4.966  12.895  0.0656 -0.1831 -0.0830
 2328TIP3    H128475   0.690   5.013  12.950 -0.1069  0.6203 -0.9538
 2328TIP3    H228476   0.726   4.874  12.902 -1.6870  0.2216 -1.0103
 2329TIP3   OH228477   4.980   3.965   4.047 -0.3584  0.0493 -0.1111
 2329TIP3    H128478   5.046   3.896   4.036 -0.0443  0.4569 -0.8349
 2329TIP3    H228479   5.030   4.041   4.076 -0.6956 -0.0144  0.6199
 2330TIP3   OH228480   1.555   5.380   0.583  0.1706 -0.0614  0.5098
 2330TIP3    H128481   1.545   5.474   0.591  0.9002  0.1586 -1.0338
 2330TIP3    H228482   1.569   5.364   0.490 -1.5120 -1.8652  0.5216
 2331TIP3   OH228483   2.267   6.663  10.915 -0.2198 -0.0833  0.4277
 2331TIP3    H128484   2.202   6.670  10.845  0.4905  0.8211 -0.1458
 2331TIP3    H228485   2.340   6.614  10.876  0.2664  0.6067  0.4555
 2332TIP3   OH228486   0.113   3.388  17.214 -0.6499  0.4280  0.5474
 2332TIP3    H128487   0.208   3.401  17.217 -0.6699  0.9007 -0.8719
 2332TIP3    H228488   0.077   3.470  17.248 -0.5931  0.9664 -0.6921
 2333TIP3   OH228489   0.385   1.702   3.543  0.0013  0.0100 -0.3891
 2333TIP3    H128490   0.324   1.772   3.568  0.4849  0.5292 -0.6503
 2333TIP3    H228491   0.405   1.658   3.625  0.9781  1.2210  0.0318
 2334TIP3   OH228492   5.167   1.475  12.260 -0.3401  0.1892 -0.1053
 2334TIP3    H128493   5.229   1.546  12.278 -1.4245  1.1259 -0.0455
 2334TIP3    H228494   5.194   1.441  12.174 -0.0270  0.8890 -0.2886
 2335TIP3   OH228495   6.302   5.105   5.959 -0.1396 -0.1848 -0.2060
 2335TIP3    H128496   6.398   5.103   5.963 -0.0383  3.1418  0.6924
 2335TIP3    H228497   6.274   5.089   6.050 -0.4795 -1.4865 -0.5263
 2336TIP3   OH228498   1.360   3.957   5.578  0.1656  0.4535 -0.3016
 2336TIP3    H128499   1.380   4.041   5.535  1.6843 -0.4048 -1.3261
 2336TIP3    H228500   1.446   3.916   5.589 -0.5570 -0.8635  0.4070
 2337TIP3   OH228501   2.431   5.638   1.307  0.0570  0.0622 -0.1877
 2337TIP3    H128502   2.336   5.653   1.302  0.1479  1.7357  2.4426
 2337TIP3    H228503   2.469   5.710   1.257 -0.0376 -0.4959 -1.0741
 2338TIP3   OH228504   3.109   6.092  12.765 -0.3242  0.7952  0.1501
 2338TIP3    H128505   3.145   6.162  12.818  0.7052 -1.4007  2.4563
 2338TIP3    H228506   3.021   6.078  12.800 -0.4388  0.7950 -0.1401
 2339TIP3   OH228507   0.812   3.914   3.216 -0.1588 -0.4987  0.1904
 2339TIP3    H128508   0.854   3.880   3.294  2.9755  0.9196 -0.7801
 2339TIP3    H228509   0.848   3.862   3.144 -0.9909 -0.0594 -0.5632
 2340TIP3   OH228510   2.449   5.038  17.076 -0.5420 -0.5824  0.3222
 2340TIP3    H128511   2.450   5.081  17.162 -0.0845 -0.6958  0.3749
 2340TIP3    H228512   2.509   4.964  17.086  1.0789  0.5705 -0.6760
 2341TIP3   OH228513   5.354   1.109   4.899  0.3614  0.3862 -0.2119
 2341TIP3    H128514   5.422   1.116   4.966  1.6327  0.5613 -1.4936
 2341TIP3    H228515   5.349   1.015   4.880  1.0890  0.4835 -0.9406
 2342TIP3   OH228516   3.497   4.446  12.141 -0.3139  0.3462  0.5602
 2342TIP3    H128517   3.537   4.363  12.112 -0.8877  0.2591  0.0099
 2342TIP3    H228518   3.560   4.513  12.114 -1.1898  0.3404 -1.6093
 2343TIP3   OH228519   4.627   5.351   2.160 -0.1452 -0.1754 -0.7136
 2343TIP3    H128520   4.556   5.412   2.182  1.9685  0.8632  3.6761
 2343TIP3    H228521   4.607   5.272   2.211  1.3691 -0.1620 -0.0661
 2344TIP3   OH228522   1.746   3.176  10.842  0.0551 -0.1154 -0.1177
 2344TIP3    H128523   1.814   3.123  10.801  1.2979  0.6890  0.8389
 2344TIP3    H228524   1.666   3.157  10.792  0.3853 -3.1191  0.4034
 2345TIP3   OH228525   1.918   1.996  12.515  0.0316 -0.3313  0.0710
 2345TIP3    H128526   2.002   1.983  12.560 -1.4592 -0.9692  2.7356
 2345TIP3    H228527   1.881   2.075  12.555 -1.0509 -0.5562 -0.4708
 2346TIP3   OH228528   1.872   3.813   3.707  0.3368  0.3859 -0.0598
 2346TIP3    H128529   1.836   3.739   3.757 -1.7840  1.3661 -0.0821
 2346TIP3    H228530   1.866   3.887   3.767  0.8408  0.9039 -0.6438
 2347TIP3   OH228531   0.494   1.708   3.044  0.9510  0.0561 -0.6195
 2347TIP3    H128532   0.417   1.656   3.025 -0.9227  2.5102  0.0411
 2347TIP3    H228533   0.512   1.693   3.136 -0.5161  1.7463 -0.0455
 2348TIP3   OH228534   3.376   2.433   5.024  0.2849  0.9356 -0.0127
 2348TIP3    H128535   3.458   2.465   5.061 -0.5737  0.9819  1.8869
 2348TIP3    H228536   3.361   2.349   5.069  0.1678  0.0812 -1.6049
 2349TIP3   OH228537   6.095   3.778   4.808 -0.4281  0.5564 -0.1938
 2349TIP3    H128538   6.033   3.725   4.759  0.1696  1.2631 -1.7530
 2349TIP3    H228539   6.174   3.724   4.812  0.3183  1.4695 -2.1467
 2350TIP3   OH228540   5.500   3.197   2.835  0.3886 -0.1949 -0.5101
 2350TIP3    H128541   5.452   3.175   2.755 -0.5445 -0.4301  0.1072
 2350TIP3    H228542   5.484   3.291   2.847  0.8738 -0.0692 -0.8204
 2351TIP3   OH228543   3.429   3.987  13.781 -0.2643 -0.0913  0.5985
 2351TIP3    H128544   3.503   3.995  13.842  0.8431 -1.0640 -0.5914
 2351TIP3    H228545   3.426   3.894  13.759 -0.4425  0.3064 -1.0967
 2352TIP3   OH228546   1.009   6.671  12.352  0.2600 -0.5194 -0.3453
 2352TIP3    H128547   0.972   6.736  12.292 -2.6056 -1.7900 -0.0320
 2352TIP3    H228548   0.997   6.587  12.307  1.2837 -1.1475  0.5271
 2353TIP3   OH228549   6.300   5.683   1.000 -0.1875 -0.9630  0.1898
 2353TIP3    H128550   6.251   5.616   0.953 -2.5229  1.0497 -0.3407
 2353TIP3    H228551   6.273   5.766   0.960  2.2262  0.3760  1.1761
 2354TIP3   OH228552   5.489   6.242   2.016  0.1033  0.0977  0.7169
 2354TIP3    H128553   5.420   6.177   2.032  0.5089  0.0585  2.4092
 2354TIP3    H228554   5.558   6.192   1.973 -0.3189 -0.1977  0.3747
 2355TIP3   OH228555   0.338   4.704   4.365  0.2784 -0.0627 -0.2359
 2355TIP3    H128556   0.252   4.698   4.323  0.7592  0.9059 -1.4063
 2355TIP3    H228557   0.340   4.793   4.402  0.8801  0.0266 -0.4791
 2356TIP3   OH228558   1.749   3.234   0.617 -0.4324 -0.1013 -0.0742
 2356TIP3    H128559   1.735   3.291   0.541  0.2130  0.1358 -0.0106
 2356TIP3    H228560   1.671   3.178   0.618 -0.6949  0.2445 -0.6022
 2357TIP3   OH228561   5.898   1.995  14.572 -0.2985 -0.0788  0.5776
 2357TIP3    H128562   5.911   1.917  14.625  0.8422 -0.6318 -0.4695
 2357TIP3    H228563   5.978   2.047  14.584  0.2130 -0.4627 -0.9694
 2358TIP3   OH228564   2.901   6.655  12.368 -0.0556 -0.2000 -0.2350
 2358TIP3    H128565   2.835   6.591  12.343  0.1974 -1.0589  1.2112
 2358TIP3    H228566   2.924   6.632  12.458  0.6646  1.4013  0.0132
 2359TIP3   OH228567   5.667   6.190   2.667 -0.7871  0.5940  0.0906
 2359TIP3    H128568   5.667   6.096   2.651  0.5324  0.9711 -2.5261
 2359TIP3    H228569   5.605   6.225   2.603 -3.1436  1.3240  2.6733
 2360TIP3   OH228570   1.700   5.123   1.647  0.1788 -0.1371  0.4517
 2360TIP3    H128571   1.696   5.214   1.617 -0.1208 -0.7267 -1.3262
 2360TIP3    H228572   1.789   5.095   1.626  0.7812  0.2194  2.4439
 2361TIP3   OH228573   1.460   1.604   4.294  0.0700 -0.0807  0.1876
 2361TIP3    H128574   1.486   1.606   4.201 -1.5719 -0.4307 -0.2937
 2361TIP3    H228575   1.472   1.512   4.319 -0.2703 -0.1551  0.0841
 2362TIP3   OH228576   2.077   6.650   6.414  0.4000  0.2517 -0.5926
 2362TIP3    H128577   2.085   6.723   6.476  0.6229 -0.1929 -0.0955
 2362TIP3    H228578   2.039   6.690   6.336 -0.6648  0.6610  0.1193
 2363TIP3   OH228579   3.998   4.550  12.569  0.2337 -0.0105  0.2737
 2363TIP3    H128580   4.020   4.584  12.482 -0.0443 -0.7374 -0.0877
 2363TIP3    H228581   3.988   4.456  12.555 -1.4308  0.0889  0.7629
 2364TIP3   OH228582   3.953   0.085  16.070 -0.7294 -0.6442 -0.1476
 2364TIP3    H128583   3.962   0.006  16.123  0.7791  0.5229  1.3694
 2364TIP3    H228584   4.025   0.142  16.098 -1.0694  0.7839 -2.0727
 2365TIP3   OH228585   5.939   1.568  16.846  0.2439  0.1675  0.0064
 2365TIP3    H128586   5.967   1.631  16.913 -0.5564 -1.0591  1.5089
 2365TIP3    H228587   5.845   1.559  16.859  0.6158 -2.7250  1.0421
 2366TIP3   OH228588   0.697   6.433  11.443  0.2794 -0.7020 -0.0735
 2366TIP3    H128589   0.688   6.484  11.524  1.0645 -2.2510  1.0080
 2366TIP3    H228590   0.716   6.344  11.472  0.2535 -1.3517 -1.9662
 2367TIP3   OH228591   1.110   3.632  17.241 -0.3040 -0.6558  0.6247
 2367TIP3    H128592   1.095   3.723  17.217  2.4559 -0.6574 -1.3547
 2367TIP3    H228593   1.070   3.582  17.170 -0.0243 -0.9041  0.6372
 2368TIP3   OH228594   6.517   3.381   5.585 -0.4672 -0.5147  0.1539
 2368TIP3    H128595   6.585   3.317   5.562  0.5242  0.4327  0.4466
 2368TIP3    H228596   6.449   3.367   5.519 -0.7396 -2.5925  0.8272
 2369TIP3   OH228597   0.981   2.707   1.497  0.5095 -0.0366 -0.5796
 2369TIP3    H128598   0.988   2.626   1.448  3.1092 -0.2305 -0.0107
 2369TIP3    H228599   1.072   2.727   1.523 -0.3265  1.9757  0.9824
 2370TIP3   OH228600   4.462   0.812   5.647  0.0990  0.2663 -0.1528
 2370TIP3    H128601   4.369   0.796   5.665  0.4250 -1.6679 -0.1453
 2370TIP3    H228602   4.508   0.756   5.709  1.2725  0.2566 -1.0361
 2371TIP3   OH228603   5.959   0.973   0.164  0.0066  0.1918 -0.4313
 2371TIP3    H128604   5.885   0.998   0.108  1.1846  0.9732 -1.6862
 2371TIP3    H228605   5.988   1.055   0.204 -0.1633 -0.1995  0.5021
 2372TIP3   OH228606   4.402   0.824  12.656 -0.1156 -0.2606  0.3495
 2372TIP3    H128607   4.473   0.823  12.720  0.8641  0.7600 -0.7065
 2372TIP3    H228608   4.412   0.907  12.610 -1.3744 -0.5677 -0.5104
 2373TIP3   OH228609   5.322   4.552   0.486 -0.7490  0.0303  0.0548
 2373TIP3    H128610   5.329   4.646   0.500  0.7845 -0.3079  1.7842
 2373TIP3    H228611   5.394   4.531   0.427 -1.6924  0.0699 -1.1337
 2374TIP3   OH228612   6.353   5.647   0.347 -0.1207  0.0747  0.3381
 2374TIP3    H128613   6.400   5.626   0.266  0.2637 -2.3393  1.1297
 2374TIP3    H228614   6.411   5.708   0.393  0.3880  0.2296 -0.4922
 2375TIP3   OH228615   5.085   4.807   4.441  0.0273  0.2634  0.5763
 2375TIP3    H128616   5.158   4.867   4.426 -0.7895  1.4752  1.4386
 2375TIP3    H228617   5.020   4.831   4.376  0.7279 -1.4310 -0.8128
 2376TIP3   OH228618   3.678   3.795  13.823 -0.5111  0.4980  0.0371
 2376TIP3    H128619   3.672   3.799  13.919 -0.7796 -1.0426  0.0949
 2376TIP3    H228620   3.772   3.803  13.805 -0.4403  0.5896  0.4433
 2377TIP3   OH228621   3.782   1.975   5.766 -0.3446 -0.0251  0.2832
 2377TIP3    H128622   3.832   2.010   5.840  0.5245 -1.9273  0.6291
 2377TIP3    H228623   3.791   2.041   5.698 -0.7852  1.5548  1.6976
 2378TIP3   OH228624   0.947   1.756   0.403 -0.3493 -0.6342 -0.3522
 2378TIP3    H128625   0.971   1.675   0.357 -1.2696  0.0615 -2.0993
 2378TIP3    H228626   0.964   1.825   0.340 -1.3635  0.3854  0.4703
 2379TIP3   OH228627   3.722   6.301  13.144  0.0556 -0.1383 -0.1332
 2379TIP3    H128628   3.803   6.292  13.095 -0.3878 -1.6209 -0.6226
 2379TIP3    H228629   3.671   6.223  13.122 -1.3256  0.5523  0.4993
 2380TIP3   OH228630   6.225   5.357  13.126  1.3437 -0.2583  0.2763
 2380TIP3    H128631   6.215   5.336  13.033 -0.2382  1.6847 -0.0178
 2380TIP3    H228632   6.317   5.337  13.145  1.2784 -2.2267 -1.2699
 2381TIP3   OH228633   5.683   2.938   0.467  0.2281  0.0006  0.4034
 2381TIP3    H128634   5.736   2.942   0.546 -0.6330 -0.6476  1.0286
 2381TIP3    H228635   5.621   3.011   0.477  0.6492  0.4195 -0.0597
 2382TIP3   OH228636   6.270   2.689   5.213 -0.1112 -0.2575  0.4714
 2382TIP3    H128637   6.180   2.657   5.227  0.1137 -1.0819  0.0609
 2382TIP3    H228638   6.324   2.634   5.270 -0.0111  1.1894  1.8283
 2383TIP3   OH228639   1.972   5.257  12.994 -0.1006 -0.1160  0.9317
 2383TIP3    H128640   1.941   5.169  12.972 -1.9844  1.1319 -1.5210
 2383TIP3    H228641   1.894   5.312  12.989  1.4219  2.0468  0.4796
 2384TIP3   OH228642   1.834   1.294  16.818  0.6739  0.3035  0.5501
 2384TIP3    H128643   1.789   1.284  16.902  1.0498  1.6392  0.9362
 2384TIP3    H228644   1.863   1.386  16.818 -0.6655  0.7702 -1.7047
 2385TIP3   OH228645   2.673   5.999  15.296  0.0041 -0.0988  0.8469
 2385TIP3    H128646   2.714   5.915  15.277  1.2574  0.3132  1.6491
 2385TIP3    H228647   2.630   5.986  15.381  2.5773  0.8510  2.3583
 2386TIP3   OH228648   1.464   1.084   1.798  0.1515  0.3623 -0.1056
 2386TIP3    H128649   1.535   1.116   1.743  0.8943  1.3165  1.3614
 2386TIP3    H228650   1.392   1.145   1.783  0.3054  0.5398 -0.1198
 2387TIP3   OH228651   0.197   0.351   4.788  0.5022  0.2944  0.5190
 2387TIP3    H128652   0.251   0.404   4.846  0.8788  0.2544  0.2028
 2387TIP3    H228653   0.142   0.299   4.847  2.5861 -1.5401  0.8891
 2388TIP3   OH228654   6.289   4.977   1.003 -0.2416 -0.3960 -0.3914
 2388TIP3    H128655   6.242   5.058   0.981 -0.4286 -0.1441  0.9241
 2388TIP3    H228656   6.326   4.948   0.919 -0.2212  1.0229 -0.8958
 2389TIP3   OH228657   3.756   6.399   2.469  0.0885  0.0939  0.0287
 2389TIP3    H128658   3.821   6.330   2.468 -1.3914 -1.3261 -0.1664
 2389TIP3    H228659   3.704   6.385   2.390 -0.2395  1.4256 -0.0159
 2390TIP3   OH228660   5.216   3.658   2.465  0.5674  0.8446  0.6448
 2390TIP3    H128661   5.273   3.712   2.409 -0.5294  0.9390 -0.4053
 2390TIP3    H228662   5.215   3.705   2.549  1.4269  1.2452  0.4460
 2391TIP3   OH228663   1.342   2.798  12.123  0.1798  0.3633  0.4606
 2391TIP3    H128664   1.381   2.829  12.205 -0.6815  1.3573  0.5102
 2391TIP3    H228665   1.416   2.764  12.073  0.9099  0.9798  1.1005
 2392TIP3   OH228666   5.310   2.055   1.847 -0.1346  0.1210  0.2523
 2392TIP3    H128667   5.326   2.116   1.775  2.0320 -0.4553  0.2139
 2392TIP3    H228668   5.221   2.024   1.832 -0.2136  1.0534 -1.3856
 2393TIP3   OH228669   6.207   0.042  15.547  0.5802  0.3262 -0.4221
 2393TIP3    H128670   6.279   0.093  15.511  0.0141 -0.2729 -2.4614
 2393TIP3    H228671   6.177  -0.012  15.474 -1.3028 -0.1340  0.6606
 2394TIP3   OH228672   4.042   3.227  13.745  0.3371 -0.5284 -0.0602
 2394TIP3    H128673   3.975   3.284  13.782  0.7392  0.4405 -0.8237
 2394TIP3    H228674   4.071   3.173  13.819 -1.3885 -1.0706  0.2445
 2395TIP3   OH228675   4.955   6.081  14.611  0.1898 -0.1547 -0.0491
 2395TIP3    H128676   4.904   6.134  14.549 -0.0422 -1.1826 -0.7646
 2395TIP3    H228677   4.948   6.128  14.694 -0.8557  0.4009 -0.4297
 2396TIP3   OH228678   3.750   6.520   4.704  0.2062  0.1578 -0.3925
 2396TIP3    H128679   3.719   6.437   4.741 -2.8838  0.6827 -1.6616
 2396TIP3    H228680   3.781   6.496   4.616  0.7490  0.1024 -0.1872
 2397TIP3   OH228681   5.899   1.116  15.052  0.1301  0.3548  0.3935
 2397TIP3    H128682   5.838   1.167  14.998 -0.1066 -0.1017  0.2360
 2397TIP3    H228683   5.844   1.072  15.116  0.2620 -0.3297  0.0348
 2398TIP3   OH228684   3.958   6.099  11.795 -0.5982  0.1988 -0.2889
 2398TIP3    H128685   3.899   6.051  11.854  1.5689 -2.8090 -0.4600
 2398TIP3    H228686   3.910   6.103  11.712 -1.3186 -0.6351  0.0728
 2399TIP3   OH228687   1.144   1.950  15.727 -0.1102 -0.5283 -0.1899
 2399TIP3    H128688   1.079   1.881  15.714 -1.0417 -0.2180  2.4345
 2399TIP3    H228689   1.225   1.913  15.693 -1.0176 -2.1273 -0.6842
 2400TIP3   OH228690   4.390   2.445   0.061 -0.1741 -0.3074 -0.0649
 2400TIP3    H128691   4.299   2.421   0.077 -0.1473 -0.6968 -0.5017
 2400TIP3    H228692   4.385   2.517  -0.001 -0.2162  0.2244  0.5516
 2401TIP3   OH228693   2.849   6.729  14.158 -0.2052  0.5314 -0.1944
 2401TIP3    H128694   2.900   6.805  14.187  0.5498 -0.1070  0.2012
 2401TIP3    H228695   2.910   6.679  14.103  0.2582 -1.2162  1.8067
 2402TIP3   OH228696   3.966   5.464  16.086  0.1273  0.0884 -0.4479
 2402TIP3    H128697   3.932   5.536  16.032 -0.4936 -1.7369 -2.5387
 2402TIP3    H228698   4.057   5.488  16.103  0.1730  0.9868 -1.8406
 2403TIP3   OH228699   5.526   6.508  15.523  0.4891 -0.0176  0.4251
 2403TIP3    H128700   5.541   6.528  15.430 -0.3480 -0.0894  0.2709
 2403TIP3    H228701   5.577   6.574  15.570  1.5729 -0.4772 -0.0876
 2404TIP3   OH228702   1.577   4.937   0.735 -0.4448  0.0437 -0.3905
 2404TIP3    H128703   1.594   4.889   0.816 -0.0701 -0.8075 -0.9635
 2404TIP3    H228704   1.630   5.016   0.743  2.6630 -1.8405 -1.4735
 2405TIP3   OH228705   0.945   2.811  17.210  0.2878 -0.2703 -0.1571
 2405TIP3    H128706   0.884   2.832  17.280 -1.5264 -0.4624 -1.6614
 2405TIP3    H228707   0.916   2.727  17.177  0.2313  0.4862 -2.0956
 2406TIP3   OH228708   1.411   1.801  14.963  0.1032  0.3850 -0.3949
 2406TIP3    H128709   1.335   1.844  14.924  0.3836  0.3270 -1.0213
 2406TIP3    H228710   1.483   1.862  14.946 -0.0693  1.1687  1.5500
 2407TIP3   OH228711   3.968   1.858   2.600 -0.4210 -0.0919 -0.1316
 2407TIP3    H128712   4.017   1.854   2.518  0.1982 -0.8334  0.2686
 2407TIP3    H228713   4.000   1.937   2.643  0.3358 -0.4938  0.0598
 2408TIP3   OH228714   1.844   6.322  15.434  0.7542  0.0357 -0.8901
 2408TIP3    H128715   1.874   6.233  15.454 -0.2912 -0.1486 -0.0853
 2408TIP3    H228716   1.862   6.371  15.514 -2.2140 -0.3834  0.1058
 2409TIP3   OH228717   3.373   6.073   0.991  0.0428 -0.4041 -0.9304
 2409TIP3    H128718   3.365   5.997   1.049  1.1027  0.9087  1.0061
 2409TIP3    H228719   3.448   6.121   1.025 -0.1051  1.0898 -2.6396
 2410TIP3   OH228720   1.223   4.960  11.713 -0.3848 -0.5062 -0.4295
 2410TIP3    H128721   1.288   4.911  11.763 -0.4534  0.7191  0.8953
 2410TIP3    H228722   1.270   5.036  11.680 -0.6302 -0.7145 -1.2774
 2411TIP3   OH228723   1.362   3.987  10.702  0.3580  0.3086 -0.3485
 2411TIP3    H128724   1.361   4.049  10.629  2.1723  0.0241 -0.6516
 2411TIP3    H228725   1.366   3.901  10.660  0.0430  0.0835  0.0804
 2412TIP3   OH228726   6.440   2.815   1.762 -0.4958 -0.3582 -0.4709
 2412TIP3    H128727   6.479   2.744   1.711  0.3002 -0.7129  0.5956
 2412TIP3    H228728   6.508   2.881   1.767 -0.8621  0.0271 -0.5708
 2413TIP3   OH228729   5.470   5.689  15.209 -0.1332  0.9936 -0.8774
 2413TIP3    H128730   5.378   5.674  15.231  0.0744  0.2143 -0.5012
 2413TIP3    H228731   5.519   5.638  15.274  0.5050 -0.4993 -2.4727
 2414TIP3   OH228732   2.828   4.187  13.228  0.1538 -0.4859  0.0628
 2414TIP3    H128733   2.761   4.255  13.238 -0.6196 -1.1507 -0.5556
 2414TIP3    H228734   2.870   4.181  13.315  0.3262  0.8730  0.0809
 2415TIP3   OH228735   0.014   0.361   2.255 -0.3383  0.1972 -0.0186
 2415TIP3    H128736   0.030   0.273   2.223 -1.0115  0.6296 -1.5881
 2415TIP3    H228737  -0.028   0.407   2.182 -2.0930  1.1652  1.5205
 2416TIP3   OH228738   2.467   1.207  16.391 -0.1926  0.6558  0.1226
 2416TIP3    H128739   2.413   1.163  16.457 -1.0338  0.9199 -0.3931
 2416TIP3    H228740   2.447   1.162  16.309  1.3394 -0.1012  0.1441
 2417TIP3   OH228741   2.234   6.040   3.095 -0.3199 -0.3773 -0.0897
 2417TIP3    H128742   2.147   6.030   3.057 -1.1562 -1.7106  2.1082
 2417TIP3    H228743   2.226   6.006   3.184  2.2696  0.1549  0.3925
 2418TIP3   OH228744   1.502   3.272  13.521 -0.1392 -0.4404 -0.1337
 2418TIP3    H128745   1.415   3.312  13.527 -0.6631 -1.7023  1.0039
 2418TIP3    H228746   1.532   3.266  13.612 -0.1223 -2.7267 -0.2624
 2419TIP3   OH228747   5.994   2.570  16.333 -0.3383 -0.4122 -0.3815
 2419TIP3    H128748   5.928   2.583  16.265  1.2798  0.9498 -1.7519
 2419TIP3    H228749   6.048   2.649  16.329  1.2907 -1.4370  0.7710
 2420TIP3   OH228750   1.383   0.864  13.301 -0.3481  0.0396  0.2401
 2420TIP3    H128751   1.390   0.888  13.208 -0.1175 -1.0550 -0.0345
 2420TIP3    H228752   1.336   0.780  13.300 -1.0795  0.4451  1.1674
 2421TIP3   OH228753   3.335   4.693  14.271  0.3594  0.1315  0.5045
 2421TIP3    H128754   3.368   4.704  14.182 -0.1110 -0.3478  0.2716
 2421TIP3    H228755   3.246   4.661  14.260  0.7756 -1.2617  1.1634
 2422TIP3   OH228756   4.930   3.731  12.371 -0.6649  0.1083  0.3979
 2422TIP3    H128757   4.946   3.791  12.299  0.6880 -0.2582  0.3646
 2422TIP3    H228758   5.018   3.707  12.402 -1.1875 -1.2786  0.8735
 2423TIP3   OH228759   5.497   6.421   4.386  0.0722  0.6047  0.1670
 2423TIP3    H128760   5.491   6.461   4.299  1.0216 -1.3074 -0.7980
 2423TIP3    H228761   5.408   6.391   4.405  0.1886 -0.3716 -0.8177
 2424TIP3   OH228762   5.134   0.031   2.131  0.6589  0.2387  0.5592
 2424TIP3    H128763   5.058  -0.026   2.145  1.0692 -0.5040 -0.2256
 2424TIP3    H228764   5.145   0.033   2.036  1.1732  0.9400  0.6347
 2425TIP3   OH228765   6.299   0.152   3.141 -0.4960  0.1988 -0.3763
 2425TIP3    H128766   6.302   0.229   3.084 -1.6536  1.2183  0.9278
 2425TIP3    H228767   6.372   0.165   3.202  0.4115 -0.6345 -1.2522
 2426TIP3   OH228768   0.222   3.542   2.010  0.0837  0.4067  0.2261
 2426TIP3    H128769   0.195   3.565   2.099 -0.1678 -0.5209  0.3939
 2426TIP3    H228770   0.278   3.465   2.021 -1.2929 -0.7292 -0.5426
 2427TIP3   OH228771   3.726   5.206  13.593  0.5614 -0.1432  0.0234
 2427TIP3    H128772   3.666   5.280  13.600  1.5530  0.5192  1.7332
 2427TIP3    H228773   3.675   5.132  13.626  0.6338  0.3887  1.3475
 2428TIP3   OH228774   2.293   2.451   3.923 -0.1167  0.2031  0.3309
 2428TIP3    H128775   2.241   2.380   3.884  1.1204 -1.5132  1.6956
 2428TIP3    H228776   2.261   2.457   4.013 -0.2087  1.3732  0.2150
 2429TIP3   OH228777   3.230   1.613  10.857 -0.0297 -0.2677  0.1712
 2429TIP3    H128778   3.263   1.688  10.806  1.3951 -0.0910  1.3209
 2429TIP3    H228779   3.270   1.537  10.815 -1.3490 -0.3812 -0.8980
 2430TIP3   OH228780   4.368   2.978  12.754  0.3406 -0.6076 -0.6178
 2430TIP3    H128781   4.373   2.999  12.661 -0.1870 -1.6378 -0.8813
 2430TIP3    H228782   4.459   2.981  12.784  0.2255  3.2643 -0.3565
 2431TIP3   OH228783   0.686   2.043   0.218 -0.0763 -0.0874  0.1385
 2431TIP3    H128784   0.759   2.040   0.280 -0.1242 -0.0372  0.1969
 2431TIP3    H228785   0.723   2.009   0.136 -0.1069 -0.4671  0.2841
 2432TIP3   OH228786   2.595   2.633   5.390  0.5481  0.5239  0.3093
 2432TIP3    H128787   2.668   2.668   5.441  2.4689 -2.4101 -0.2547
 2432TIP3    H228788   2.630   2.623   5.301 -1.9923  3.2921 -1.0736
 2433TIP3   OH228789   1.058   2.491   4.293 -0.0265 -0.0532  0.8975
 2433TIP3    H128790   1.059   2.467   4.386  1.3370 -2.8885  0.1791
 2433TIP3    H228791   1.065   2.408   4.246  0.1112  1.4065 -1.7576
 2434TIP3   OH228792   2.083   0.791   0.720 -0.5521 -0.0679 -0.2336
 2434TIP3    H128793   1.988   0.792   0.732 -0.2242  1.5556  2.7458
 2434TIP3    H228794   2.110   0.705   0.753 -0.9631 -0.3913 -0.7461
 2435TIP3   OH228795   2.951   0.496  11.590 -0.2259  0.2379  0.1004
 2435TIP3    H128796   2.927   0.547  11.513  2.5631 -0.4422 -1.2969
 2435TIP3    H228797   2.991   0.559  11.649  1.6648  0.0260 -0.9106
 2436TIP3   OH228798   0.118   2.331  16.726 -0.1750  0.5196  0.3143
 2436TIP3    H128799   0.172   2.333  16.647  1.8069  0.1359  1.6171
 2436TIP3    H228800   0.087   2.240  16.731  1.3822  0.0077  1.0509
 2437TIP3   OH228801   0.633   1.129  12.936  0.3995 -0.3082 -0.1156
 2437TIP3    H128802   0.618   1.046  12.982  0.9821 -0.2719  0.1518
 2437TIP3    H228803   0.722   1.153  12.961 -0.1394  0.9288  0.6305
 2438TIP3   OH228804   2.667   0.846  13.768 -0.5376 -0.3482  0.2775
 2438TIP3    H128805   2.633   0.932  13.744  0.1899 -0.5494 -1.5123
 2438TIP3    H228806   2.689   0.855  13.861 -2.0667  0.8641  0.5518
 2439TIP3   OH228807   1.812   2.854  13.633 -0.4329  0.5298  0.3735
 2439TIP3    H128808   1.836   2.769  13.670  0.4391  0.9219  0.7367
 2439TIP3    H228809   1.746   2.889  13.693 -0.9009  0.0508  0.1420
 2440TIP3   OH228810   3.490   0.896   1.956  0.5700 -0.0617 -0.5512
 2440TIP3    H128811   3.495   0.815   1.905  0.3262 -0.9461  0.8139
 2440TIP3    H228812   3.405   0.891   2.000  0.7393  0.7431 -0.1389
 2441TIP3   OH228813   3.605   1.434   5.919  0.4839  0.0450  0.5323
 2441TIP3    H128814   3.662   1.385   5.979  1.1109  1.9844  1.5557
 2441TIP3    H228815   3.537   1.471   5.976 -1.3319 -1.5290 -0.5625
 2442TIP3   OH228816   2.851   4.398   1.718  0.1817  0.5619 -0.3953
 2442TIP3    H128817   2.923   4.359   1.668 -0.5579 -1.9501  0.4110
 2442TIP3    H228818   2.893   4.435   1.796  1.0300  2.3933 -1.6725
 2443TIP3   OH228819   5.882   2.554  14.782 -0.2586 -0.9156  0.0568
 2443TIP3    H128820   5.854   2.645  14.787 -1.3330 -1.1692 -1.0929
 2443TIP3    H228821   5.977   2.558  14.769  0.0058 -0.0131  2.0859
 2444TIP3   OH228822   2.158   5.110   5.502  0.5135  0.4093  0.6485
 2444TIP3    H128823   2.119   5.067   5.578  1.2303  2.0560  1.9768
 2444TIP3    H228824   2.122   5.198   5.503  1.5353  0.8494 -0.1696
 2445TIP3   OH228825   3.564   3.078   3.036  0.6201 -0.1870  0.6431
 2445TIP3    H128826   3.485   3.130   3.021  0.4437 -1.0519 -1.7227
 2445TIP3    H228827   3.633   3.126   2.990  0.5282 -1.7578 -1.2432
 2446TIP3   OH228828   3.244   0.489  11.384 -0.1503 -0.3213  0.4627
 2446TIP3    H128829   3.328   0.476  11.339 -0.7546  0.0984 -0.8299
 2446TIP3    H228830   3.268   0.523  11.470  0.9940  0.4193 -0.1260
 2447TIP3   OH228831   4.767   3.206   2.248  0.5611 -0.5947 -0.2064
 2447TIP3    H128832   4.747   3.291   2.209  2.3466  0.6316  1.4459
 2447TIP3    H228833   4.692   3.186   2.303 -0.2262 -0.4796 -1.2351
 2448TIP3   OH228834   4.698   5.992   6.604 -0.6632  0.4929  0.1988
 2448TIP3    H128835   4.707   6.086   6.593  0.1348  0.2738 -1.1357
 2448TIP3    H228836   4.622   5.981   6.662  0.3669  2.0006  1.8835
 2449TIP3   OH228837   2.987   1.752  10.053  0.1675  0.0400  0.1528
 2449TIP3    H128838   2.928   1.744  10.128  0.3337 -2.0875  0.0775
 2449TIP3    H228839   2.939   1.806   9.990 -1.3546 -0.9774  0.4288
 2450TIP3   OH228840   2.742   3.630   5.548  0.4620 -0.3692  0.1585
 2450TIP3    H128841   2.765   3.581   5.627 -0.2620 -1.6891 -0.4306
 2450TIP3    H228842   2.798   3.707   5.550  1.8938 -1.4122  0.9280
 2451TIP3   OH228843   4.554   5.532   4.718 -0.1219 -0.8822  0.3362
 2451TIP3    H128844   4.595   5.619   4.722 -0.4461 -0.7657  1.1361
 2451TIP3    H228845   4.576   5.499   4.631 -1.1416  0.5567 -0.4739
 2452TIP3   OH228846   0.037   0.167   1.397 -0.3712 -0.3198 -0.0765
 2452TIP3    H128847  -0.012   0.249   1.395 -1.0631 -0.7256  0.0076
 2452TIP3    H228848  -0.030   0.098   1.397  0.2103 -0.9007 -0.8435
 2453TIP3   OH228849   1.845   4.114  15.692  0.5280 -0.0564 -0.1478
 2453TIP3    H128850   1.806   4.027  15.682 -1.1957  0.6396  0.2788
 2453TIP3    H228851   1.833   4.135  15.784 -1.5396  1.7232 -0.7548
 2454TIP3   OH228852   3.209   1.322  11.954 -0.4085 -0.1511  0.1568
 2454TIP3    H128853   3.116   1.341  11.953 -0.1199  1.3696 -2.5487
 2454TIP3    H228854   3.247   1.386  11.894  2.4610 -0.3631  1.6577
 2455TIP3   OH228855   4.315   2.855   4.124 -0.3011 -0.1491 -0.1167
 2455TIP3    H128856   4.346   2.863   4.034  0.2628  1.4891  0.2039
 2455TIP3    H228857   4.274   2.769   4.128 -1.6978  0.3748 -2.3511
 2456TIP3   OH228858   3.376   3.356  13.474 -0.3028  0.8280  0.0443
 2456TIP3    H128859   3.373   3.381  13.567  0.6699 -0.9377  0.5654
 2456TIP3    H228860   3.287   3.373  13.442 -0.3132  2.6625  0.9589
 2457TIP3   OH228861   0.483   1.073   1.687  0.3638 -0.4516 -0.0448
 2457TIP3    H128862   0.571   1.081   1.724 -0.2040  0.8194  1.0778
 2457TIP3    H228863   0.487   1.121   1.604  1.1091 -1.6133 -0.6833
 2458TIP3   OH228864   6.223   4.150   5.738  0.2519 -0.5736 -0.1103
 2458TIP3    H128865   6.188   4.065   5.764 -0.1073 -0.8708 -1.5075
 2458TIP3    H228866   6.309   4.154   5.779  2.2880 -3.6637 -3.7151
 2459TIP3   OH228867   6.642   5.551  15.462  0.1042 -0.6890  0.4097
 2459TIP3    H128868   6.678   5.470  15.425 -0.1153 -1.1785  1.2713
 2459TIP3    H228869   6.593   5.523  15.539 -1.3582  0.0878 -0.2233
 2460TIP3   OH228870   4.624   6.027  12.864  0.4636 -0.3293 -0.5075
 2460TIP3    H128871   4.617   6.033  12.768  1.2382  0.1787 -0.5346
 2460TIP3    H228872   4.556   6.087  12.895 -2.0717 -2.9779 -0.6922
 2461TIP3   OH228873   5.720   0.626   1.993  0.4343 -0.0956  0.3584
 2461TIP3    H128874   5.690   0.587   2.075  0.8980 -0.2981  0.4305
 2461TIP3    H228875   5.670   0.582   1.925 -0.5355  0.6295  0.5837
 2462TIP3   OH228876   4.171   5.002   2.909 -0.3049  0.1213 -1.1818
 2462TIP3    H128877   4.121   4.926   2.936 -0.8897  0.3940 -1.4896
 2462TIP3    H228878   4.128   5.076   2.953  1.7623  0.0120  1.1353
 2463TIP3   OH228879   0.337   0.108   0.739 -0.3403  0.6121  0.0064
 2463TIP3    H128880   0.407   0.131   0.799  0.8440  1.0536 -1.5053
 2463TIP3    H228881   0.297   0.029   0.777  0.5066  0.7689  1.2430
 2464TIP3   OH228882   6.553   3.188  17.156  0.1847 -0.4123 -0.1142
 2464TIP3    H128883   6.491   3.224  17.092 -0.2563 -0.6786  0.1580
 2464TIP3    H228884   6.527   3.096  17.165  0.2088 -0.3622  0.4830
 2465TIP3   OH228885   0.060   4.421  12.715  0.3463  0.3352  0.2559
 2465TIP3    H128886   0.096   4.381  12.794 -0.1857 -0.7434 -0.0475
 2465TIP3    H228887   0.135   4.463  12.673  1.5136 -2.8608 -0.9676
 2466TIP3   OH228888   0.488   0.898   0.634 -0.3131  0.0697  0.0736
 2466TIP3    H128889   0.436   0.928   0.708  1.3037  0.5808  1.0152
 2466TIP3    H228890   0.557   0.964   0.624 -0.5502  0.0449 -1.9231
 2467TIP3   OH228891   1.542   3.230  13.799 -0.3697  0.5989 -0.3544
 2467TIP3    H128892   1.463   3.211  13.851  0.6539 -1.1559  0.6040
 2467TIP3    H228893   1.598   3.280  13.858 -0.5067  1.3390 -0.8410
 2468TIP3   OH228894   6.203   2.009   4.612  0.3590 -0.2128  0.3196
 2468TIP3    H128895   6.241   2.077   4.668  2.0400 -0.7911 -0.0598
 2468TIP3    H228896   6.238   1.927   4.648 -1.6166 -0.8924  0.7530
 2469TIP3   OH228897   5.908   1.933  14.911 -0.2188  0.8178 -0.2379
 2469TIP3    H128898   5.916   1.852  14.861 -1.7336  0.9372 -0.6891
 2469TIP3    H228899   5.994   1.943  14.953  1.2163  0.9069 -3.0679
 2470TIP3   OH228900   0.243   0.910  14.411 -0.2917 -0.2760 -0.0068
 2470TIP3    H128901   0.171   0.908  14.474 -0.8103  0.8972 -0.5305
 2470TIP3    H228902   0.217   0.848  14.343 -0.4738 -0.3817  0.1576
 2471TIP3   OH228903   5.134   6.141   2.871 -0.3037 -0.2256  0.5815
 2471TIP3    H128904   5.158   6.206   2.806 -1.3066 -0.8584 -0.4458
 2471TIP3    H228905   5.188   6.064   2.850 -0.2846 -0.2714  0.7921
 2472TIP3   OH228906   2.861   5.574  12.406  0.6059  0.3428 -0.3472
 2472TIP3    H128907   2.859   5.519  12.484  3.4465 -1.1484 -1.2601
 2472TIP3    H228908   2.799   5.645  12.425  0.1683 -0.7692  2.6467
 2473TIP3   OH228909   4.435   4.084   5.339  0.0697 -0.0233 -0.0397
 2473TIP3    H128910   4.357   4.042   5.301 -0.1118 -0.1305  0.4536
 2473TIP3    H228911   4.502   4.015   5.338 -0.0240 -0.1158  0.1197
 2474TIP3   OH228912   6.722   0.828  11.847 -0.1035  0.0966  0.0423
 2474TIP3    H128913   6.629   0.832  11.869  0.0571 -3.1645  1.6082
 2474TIP3    H228914   6.757   0.911  11.880 -1.4980 -0.9595  4.5253
 2475TIP3   OH228915   5.806   1.374   5.286 -0.2054  0.2908 -0.6750
 2475TIP3    H128916   5.733   1.421   5.327 -0.7553  0.6998 -2.0998
 2475TIP3    H228917   5.795   1.283   5.315  1.1354  1.0660  2.4662
 2476TIP3   OH228918   6.467   1.604  15.561 -0.1638  0.0551  0.1982
 2476TIP3    H128919   6.434   1.515  15.576 -0.8083  0.1531 -0.6024
 2476TIP3    H228920   6.528   1.595  15.487  0.7190  0.0756  0.9124
 2477TIP3   OH228921   2.642   6.557  16.294  0.2696  0.0115 -0.6496
 2477TIP3    H128922   2.614   6.471  16.261 -0.3030 -0.9190  2.1590
 2477TIP3    H228923   2.562   6.609  16.297  0.6241  0.6824 -2.3937
 2478TIP3   OH228924   4.624   1.669   4.037 -0.0128 -0.3830  0.1543
 2478TIP3    H128925   4.558   1.605   4.009  0.2213  0.3736 -2.2289
 2478TIP3    H228926   4.587   1.754   4.014  1.4275  0.0986 -0.4814
 2479TIP3   OH228927   2.577   2.894  16.670  0.2550  0.1725  0.2203
 2479TIP3    H128928   2.643   2.837  16.710  0.4633 -0.3288 -0.8256
 2479TIP3    H228929   2.606   2.905  16.580 -2.2332 -1.8761 -0.8970
 2480TIP3   OH228930   1.453   2.153   0.246 -0.2139  0.2564 -0.1337
 2480TIP3    H128931   1.515   2.092   0.207 -0.1993 -0.2324  0.6413
 2480TIP3    H228932   1.396   2.179   0.174 -0.0000 -0.4052 -0.5406
 2481TIP3   OH228933   6.363   3.428   1.515  0.0472  0.1254  0.3841
 2481TIP3    H128934   6.403   3.396   1.596 -1.4343  0.8645  1.4315
 2481TIP3    H228935   6.332   3.350   1.470 -0.8761 -0.1379  1.4805
 2482TIP3   OH228936   0.133   1.117   6.107  0.4022 -0.1501 -0.1501
 2482TIP3    H128937   0.177   1.043   6.148  1.6537 -0.1886 -1.5073
 2482TIP3    H228938   0.094   1.166   6.180  0.1081 -1.7791  0.8040
 2483TIP3   OH228939   1.646   0.916  15.495 -0.3005 -0.2417 -0.2216
 2483TIP3    H128940   1.561   0.953  15.471 -0.1369 -2.0413 -4.0919
 2483TIP3    H228941   1.625   0.834  15.540 -0.6502 -0.5823 -0.9932
 2484TIP3   OH228942   2.556   0.924   2.093  0.2227 -0.3055 -0.2478
 2484TIP3    H128943   2.565   0.828   2.095 -1.6018 -0.5239 -1.4263
 2484TIP3    H228944   2.471   0.941   2.133 -0.3317  0.6651 -1.7884
 2485TIP3   OH228945   0.461   2.194  16.154 -0.8068 -0.5114 -0.0126
 2485TIP3    H128946   0.380   2.216  16.108 -1.0587 -2.2893 -0.4604
 2485TIP3    H228947   0.498   2.121  16.104  0.2143 -0.8187  1.1716
 2486TIP3   OH228948   4.957   2.740  12.674  0.2167 -0.0012 -0.0968
 2486TIP3    H128949   4.956   2.682  12.598 -1.1565  0.3053 -0.3369
 2486TIP3    H228950   4.992   2.823  12.641  1.0914 -0.3422 -0.0257
 2487TIP3   OH228951   5.210   2.656  12.989  0.6006  0.1484 -0.8043
 2487TIP3    H128952   5.118   2.633  13.001  1.0985 -1.4183  0.1662
 2487TIP3    H228953   5.216   2.747  13.019 -0.5306  0.1333 -0.5000
 2488TIP3   OH228954   5.685   1.807   4.841  0.3137  0.4558 -0.1760
 2488TIP3    H128955   5.769   1.819   4.884  0.5911 -0.2924 -0.5042
 2488TIP3    H228956   5.682   1.877   4.775  1.3033 -0.3697 -1.1166
 2489TIP3   OH228957   3.318   6.534  12.271  0.0756  0.1850  0.0311
 2489TIP3    H128958   3.257   6.572  12.208 -1.6198 -1.9011  0.3718
 2489TIP3    H228959   3.275   6.546  12.356  0.2907 -0.9805  0.3147
 2490TIP3   OH228960   3.678   1.806   0.766  0.3091 -0.0113  0.1535
 2490TIP3    H128961   3.655   1.761   0.685  2.4937 -2.5378  0.8374
 2490TIP3    H228962   3.630   1.759   0.834 -2.4505  2.8429  0.2898
 2491TIP3   OH228963   4.375   6.819   2.706 -0.4714 -0.0134  0.1103
 2491TIP3    H128964   4.463   6.819   2.743 -0.6954 -2.1585  0.6915
 2491TIP3    H228965   4.318   6.800   2.780 -1.1150 -2.1639 -0.8877
 2492TIP3   OH228966   6.033   1.432  15.898  0.2061  0.5428  0.0169
 2492TIP3    H128967   5.992   1.359  15.944 -1.7483  1.2156 -0.5954
 2492TIP3    H228968   6.103   1.461  15.956  1.7079 -2.4743 -0.2024
 2493TIP3   OH228969   3.930   6.472   0.703 -0.4835  0.4734 -0.2213
 2493TIP3    H128970   4.000   6.414   0.731 -1.4849 -0.1902  0.9922
 2493TIP3    H228971   3.919   6.454   0.610  0.6480  0.2665 -0.3192
 2494TIP3   OH228972   1.253   6.527  14.409  0.2476 -0.1181 -0.2101
 2494TIP3    H128973   1.160   6.546  14.419  0.5061  2.3938 -2.0478
 2494TIP3    H228974   1.256   6.456  14.345 -0.3802  0.0964 -0.4775
 2495TIP3   OH228975   2.310   4.104  16.559 -0.3596  0.1088  0.4604
 2495TIP3    H128976   2.353   4.154  16.629 -0.9514  2.8883 -1.1257
 2495TIP3    H228977   2.274   4.027  16.604  1.9687  0.2466  2.6606
 2496TIP3   OH228978   6.554   5.523   2.487 -0.0848  0.4609  0.4360
 2496TIP3    H128979   6.620   5.455   2.503  1.7932  1.4530 -2.5774
 2496TIP3    H228980   6.472   5.475   2.478  1.1394 -1.4044 -1.1882
 2497TIP3   OH228981   3.070   6.495   3.611 -0.2426  0.6669  0.5399
 2497TIP3    H128982   2.988   6.509   3.562 -0.4340 -0.1501  0.6210
 2497TIP3    H228983   3.095   6.583   3.641 -0.0075  1.2325 -1.2051
 2498TIP3   OH228984   2.814   6.230   4.609 -0.1041  1.0010 -0.1557
 2498TIP3    H128985   2.865   6.215   4.689 -0.1625 -0.5033 -0.3826
 2498TIP3    H228986   2.877   6.221   4.538 -0.0836  2.1854 -0.2940
 2499TIP3   OH228987   5.944   0.118   3.924  0.3304  0.4311 -0.2198
 2499TIP3    H128988   5.868   0.066   3.898  0.6621 -0.1985  0.0565
 2499TIP3    H228989   5.982   0.070   3.998 -0.3414  1.9375  1.1389
 2500TIP3   OH228990   6.656   4.381   5.547  0.1638 -0.6370 -0.1084
 2500TIP3    H128991   6.743   4.422   5.554 -0.2777  0.4286 -0.6713
 2500TIP3    H228992   6.650   4.355   5.455 -0.9680  1.2638 -0.5865
 2501TIP3   OH228993   0.313   2.220   1.367  0.2786  0.1170 -0.2418
 2501TIP3    H128994   0.237   2.279   1.360  0.7095  0.8520  1.1046
 2501TIP3    H228995   0.308   2.166   1.288 -0.9244  1.0125 -0.8062
 2502TIP3   OH228996   1.607   4.685  15.229  0.6434 -0.0540 -0.1605
 2502TIP3    H128997   1.614   4.589  15.230  1.9378  0.0358  1.1081
 2502TIP3    H228998   1.557   4.706  15.308  0.6683  0.3339 -0.2493
 2503TIP3   OH228999   2.000   5.239  16.949 -0.2041  0.1904  0.3496
 2503TIP3    H129000   2.094   5.227  16.935 -0.3137 -1.1629  0.7585
 2503TIP3    H229001   1.991   5.255  17.042 -0.3125  1.0484  0.1952
 2504TIP3   OH229002   1.545   5.349  15.969  0.2409  0.7201  0.7558
 2504TIP3    H129003   1.546   5.315  15.880 -0.3481  0.9759  0.6453
 2504TIP3    H229004   1.611   5.298  16.016  0.9770  1.0076  0.0255
 2505TIP3   OH229005   5.866   2.831  14.834  0.0815  0.0954  0.8710
 2505TIP3    H129006   5.867   2.895  14.762 -0.4281 -0.8934 -0.0239
 2505TIP3    H229007   5.942   2.854  14.887 -0.5882  1.9977  1.0425
 2506TIP3   OH229008   0.417   2.502   2.728 -0.2872 -0.6055 -0.2850
 2506TIP3    H129009   0.505   2.537   2.744  0.0288 -1.9002  0.8497
 2506TIP3    H229010   0.369   2.576   2.689  0.6503  0.8001  1.1436
 2507TIP3   OH229011   2.815   0.469  14.398 -1.0837 -0.6929  0.3258
 2507TIP3    H129012   2.845   0.430  14.481 -0.7152 -0.7695  0.1554
 2507TIP3    H229013   2.886   0.453  14.337 -0.2825  1.5729  0.6443
 2508TIP3   OH229014   4.001   5.792   4.141 -0.0180 -0.3675  0.4905
 2508TIP3    H129015   4.027   5.881   4.168  1.0004 -0.0993 -1.3076
 2508TIP3    H229016   3.965   5.804   4.053 -0.7805 -1.6156  0.6307
 2509TIP3   OH229017   2.787   0.445   1.533 -0.3517 -0.2357 -0.1354
 2509TIP3    H129018   2.738   0.502   1.591  0.6162 -0.7273  1.1864
 2509TIP3    H229019   2.855   0.501   1.495 -0.7581 -0.0034 -0.5301
 2510TIP3   OH229020   5.325   5.725  12.594 -0.0320 -0.9136 -0.2487
 2510TIP3    H129021   5.383   5.758  12.525  0.6739 -2.6008 -0.4708
 2510TIP3    H229022   5.241   5.770  12.578  0.9164  0.8474 -0.4719
 2511TIP3   OH229023   3.503   0.427   5.314  0.0770  0.4522 -0.2252
 2511TIP3    H129024   3.458   0.377   5.245  1.2219 -0.8521 -0.0441
 2511TIP3    H229025   3.561   0.487   5.267  0.2963  0.0980 -0.4051
 2512TIP3   OH229026   2.730   5.562  13.847  0.4444 -0.9375  0.1508
 2512TIP3    H129027   2.655   5.614  13.817  1.2586 -0.5153 -1.1937
 2512TIP3    H229028   2.785   5.554  13.770  0.5845 -3.3922  0.4752
 2513TIP3   OH229029   2.678   5.368   3.341  0.1949  0.8742  0.4883
 2513TIP3    H129030   2.619   5.317   3.397  0.2499 -0.1775 -0.4109
 2513TIP3    H229031   2.755   5.313   3.329  0.5930  1.4914  0.1386
 2514TIP3   OH229032   1.243   5.675  13.199  0.4158 -0.2278  0.2134
 2514TIP3    H129033   1.209   5.639  13.281  0.0261 -1.3133 -0.4142
 2514TIP3    H229034   1.186   5.750  13.180  0.2366 -0.2367  0.7105
 2515TIP3   OH229035   4.456   6.353  14.586 -0.1629 -0.4347  0.3087
 2515TIP3    H129036   4.451   6.421  14.653  3.4203 -0.6469  0.9201
 2515TIP3    H229037   4.411   6.389  14.510  0.3383  1.9954  1.1291
 2516TIP3   OH229038   5.147   3.390   5.400 -0.1005  0.1150  0.0705
 2516TIP3    H129039   5.137   3.431   5.486  2.0893  0.0112  0.3941
 2516TIP3    H229040   5.217   3.327   5.412 -1.3470 -1.5593 -1.2291
 2517TIP3   OH229041   1.923   5.609  12.551 -0.4675  0.2926 -0.1212
 2517TIP3    H129042   1.894   5.518  12.547 -0.7423  0.3294  0.7463
 2517TIP3    H229043   1.842   5.660  12.551 -0.4173  0.4188  1.8757
 2518TIP3   OH229044   2.464   3.071   0.374 -0.2446  0.1831  0.0795
 2518TIP3    H129045   2.414   3.000   0.414  2.6328 -1.3921  1.0008
 2518TIP3    H229046   2.503   3.118   0.447 -0.3376  1.3649 -0.6170
 2519TIP3   OH229047   5.026   6.151  15.290 -0.6041  1.1006  0.8163
 2519TIP3    H129048   5.043   6.120  15.201  0.8273  0.6348  1.2346
 2519TIP3    H229049   4.975   6.231  15.278 -1.5826  0.3193 -0.3729
 2520TIP3   OH229050   2.565   3.052  13.588  0.2816 -0.3209  0.1158
 2520TIP3    H129051   2.496   3.117  13.577 -1.2169 -2.3404 -3.4274
 2520TIP3    H229052   2.554   3.021  13.678 -0.9052  2.1076  0.8672
 2521TIP3   OH229053   6.107   4.826   5.863  0.0941  0.5923 -0.0250
 2521TIP3    H129054   6.106   4.860   5.952 -2.3413  1.4374 -0.3501
 2521TIP3    H229055   6.200   4.807   5.846  0.8076  2.0502  2.0508
 2522TIP3   OH229056   1.382   2.457  12.181  0.2575  0.1914  0.1017
 2522TIP3    H129057   1.380   2.382  12.240  1.0732  0.1534  0.0802
 2522TIP3    H229058   1.347   2.530  12.233 -1.3546 -0.3876 -0.1505
 2523TIP3   OH229059   4.618   1.984  13.887 -0.2843 -0.3850  0.4155
 2523TIP3    H129060   4.666   1.936  13.820 -0.1546 -0.2102  0.3845
 2523TIP3    H229061   4.545   1.926  13.910 -0.7095 -0.1554 -0.3554
 2524TIP3   OH229062   5.113   2.613   6.064  0.1878  0.0180  0.5533
 2524TIP3    H129063   5.061   2.552   6.116  2.1401 -0.5122  1.9340
 2524TIP3    H229064   5.064   2.695   6.068 -2.0159 -1.1830 -0.6050
 2525TIP3   OH229065   2.116   5.196   5.257  0.2183  0.6575 -0.0939
 2525TIP3    H129066   2.020   5.199   5.248  0.1251 -2.4330 -0.8336
 2525TIP3    H229067   2.131   5.137   5.330  1.5858  1.3911  0.2300
 2526TIP3   OH229068   0.789   0.738   1.360  0.5733  0.1759  0.2597
 2526TIP3    H129069   0.841   0.819   1.365 -0.8755  1.0449  1.5390
 2526TIP3    H229070   0.840   0.675   1.412  0.1963  1.1283  1.8321
 2527TIP3   OH229071   5.809   6.690   3.809  0.6386 -0.2393 -0.0975
 2527TIP3    H129072   5.717   6.713   3.819  1.1938  1.9124  0.4212
 2527TIP3    H229073   5.809   6.596   3.794 -1.6914 -0.1408 -0.8964
 2528TIP3   OH229074   3.197   0.682   2.496  0.1488  0.0856  0.0915
 2528TIP3    H129075   3.156   0.650   2.416  0.8891 -1.3133  0.2569
 2528TIP3    H229076   3.245   0.761   2.469  0.4534 -0.4164 -0.8457
 2529TIP3   OH229077   2.477   2.810  10.906 -0.1231 -0.1251  0.5333
 2529TIP3    H129078   2.414   2.771  10.845  0.0728 -1.3526  1.1234
 2529TIP3    H229079   2.426   2.877  10.952 -0.0365  1.5387 -1.6652
 2530TIP3   OH229080   3.976   0.637   4.683  0.4315 -0.2679 -0.1184
 2530TIP3    H129081   4.031   0.639   4.605  2.0368 -1.5198  0.9579
 2530TIP3    H229082   3.954   0.728   4.700  2.2774  0.2678 -0.5085
 2531TIP3   OH229083   4.746   3.241   1.049  0.2985  0.3449  0.3025
 2531TIP3    H129084   4.720   3.301   0.980  0.0934  1.6315  1.4683
 2531TIP3    H229085   4.819   3.285   1.093 -0.1103 -0.0594  1.4070
 2532TIP3   OH229086   2.686   0.204   3.073  0.0385 -0.1761 -0.4285
 2532TIP3    H129087   2.743   0.129   3.088 -0.4417 -0.2936  0.8494
 2532TIP3    H229088   2.746   0.276   3.051  0.7640 -0.0382  1.9179
 2533TIP3   OH229089   1.769   5.437  12.392 -0.0959 -0.1989 -0.8784
 2533TIP3    H129090   1.823   5.357  12.386 -0.1463 -0.1970 -1.3906
 2533TIP3    H229091   1.728   5.432  12.478 -0.7163 -1.1215 -1.2265
 2534TIP3   OH229092   1.245   0.105  13.494  0.1161 -0.0500 -0.7969
 2534TIP3    H129093   1.164   0.110  13.546 -0.8271 -0.0855 -2.2214
 2534TIP3    H229094   1.308   0.159  13.542 -0.5977 -0.4353  0.6081
 2535TIP3   OH229095   3.414   4.847   2.341 -0.2576 -0.6966  0.2990
 2535TIP3    H129096   3.381   4.829   2.253 -0.6432 -3.7821  0.9915
 2535TIP3    H229097   3.459   4.766   2.367  1.1580  0.6733  2.3726
 2536TIP3   OH229098   0.590   6.435  12.130  0.0824 -0.0557 -0.7829
 2536TIP3    H129099   0.585   6.428  12.035 -2.0073  1.0996 -0.7957
 2536TIP3    H229100   0.653   6.505  12.146  1.9674 -1.6098 -1.2362
 2537TIP3   OH229101   2.540   4.603   2.730 -0.6040 -0.5708 -0.7657
 2537TIP3    H129102   2.482   4.664   2.776 -0.2905 -0.0110 -1.1044
 2537TIP3    H229103   2.612   4.589   2.791 -0.9081 -0.9779 -0.4953
 2538TIP3   OH229104   4.811   5.649   2.410 -0.2440  0.6548 -0.5627
 2538TIP3    H129105   4.831   5.646   2.504 -0.4587  0.0182 -0.5326
 2538TIP3    H229106   4.717   5.628   2.405  0.4768 -2.6430 -1.1530
 2539TIP3   OH229107   0.267   5.954  14.663 -0.0151  0.1589  0.2830
 2539TIP3    H129108   0.331   6.004  14.714  0.6025  0.8665 -1.1624
 2539TIP3    H229109   0.234   6.016  14.598 -1.5754 -0.4332  0.4995
 2540TIP3   OH229110   4.966   1.431  15.178  0.3170  0.6234 -0.1374
 2540TIP3    H129111   5.013   1.407  15.257  0.0302  1.1824  0.2107
 2540TIP3    H229112   4.998   1.519  15.157 -0.1500  0.7782 -0.2161
 2541TIP3   OH229113   5.393   2.077  14.714  0.4454  0.3762  0.0826
 2541TIP3    H129114   5.321   2.021  14.743  1.1426 -0.1197  0.8395
 2541TIP3    H229115   5.462   2.064  14.779  0.8965  1.5225 -0.1611
 2542TIP3   OH229116   2.967   6.511   4.963 -0.5697  0.2554  0.1589
 2542TIP3    H129117   2.998   6.479   5.048 -0.7362  0.1782  0.1903
 2542TIP3    H229118   2.916   6.589   4.984  0.3858  0.9283  0.0275
 2543TIP3   OH229119   3.671   5.073  17.223 -0.1128  0.3450 -0.1493
 2543TIP3    H129120   3.593   5.109  17.180 -0.6301  0.8459  1.1508
 2543TIP3    H229121   3.702   5.004  17.165 -1.3234  0.3880 -0.8609
 2544TIP3   OH229122   6.377   5.430   3.171 -0.4450  0.1207 -0.2942
 2544TIP3    H129123   6.395   5.462   3.260 -1.1125 -1.6403  0.5050
 2544TIP3    H229124   6.464   5.413   3.135 -0.1934  0.0701  0.3218
 2545TIP3   OH229125   0.121   1.377   3.920 -0.0765 -0.3273 -0.7187
 2545TIP3    H129126   0.112   1.403   3.828 -0.0789  0.0417 -0.6136
 2545TIP3    H229127   0.198   1.320   3.921 -0.7280 -1.2262 -1.1410
 2546TIP3   OH229128   1.723   5.134   2.159 -0.3035 -1.1865  0.0236
 2546TIP3    H129129   1.729   5.098   2.070  3.0063 -0.5369 -0.0579
 2546TIP3    H229130   1.723   5.229   2.147 -0.7646 -1.0987  0.6789
 2547TIP3   OH229131   4.945   5.531   1.083 -0.9370  0.4113  0.0013
 2547TIP3    H129132   4.949   5.612   1.134  0.7710  0.2331  0.1818
 2547TIP3    H229133   4.921   5.559   0.995 -1.0079  1.0429  0.2173
 2548TIP3   OH229134   2.566   1.332  14.366  0.0785  0.0650  0.1043
 2548TIP3    H129135   2.543   1.302  14.454  0.3101 -1.2536 -0.2700
 2548TIP3    H229136   2.657   1.304  14.354 -0.2526 -0.5906 -0.9065
 2549TIP3   OH229137   5.106   1.524   3.870 -0.5837 -0.3290  0.1495
 2549TIP3    H129138   5.034   1.587   3.869 -0.4188 -0.0623  2.1865
 2549TIP3    H229139   5.171   1.560   3.810 -1.1025  0.6876  0.1897
 2550TIP3   OH229140   3.755   0.347   5.642  0.0364  0.1105 -0.2423
 2550TIP3    H129141   3.660   0.344   5.638  0.1115 -2.8791 -0.9179
 2550TIP3    H229142   3.782   0.364   5.551  0.1664 -1.0185 -0.4254
 2551TIP3   OH229143   4.633   5.495   3.212  0.0748 -0.3424 -0.0675
 2551TIP3    H129144   4.583   5.574   3.232 -1.0593 -0.4044 -2.5205
 2551TIP3    H229145   4.603   5.431   3.277  0.7427  1.0981  1.7110
 2552TIP3   OH229146   2.051   2.596   5.442 -0.1845 -0.3861 -0.1400
 2552TIP3    H129147   2.092   2.513   5.468 -0.7020 -1.2854 -2.0846
 2552TIP3    H229148   2.124   2.657   5.433  0.3578 -1.0038 -0.0239
 2553TIP3   OH229149   3.682   5.788  12.377  0.6605 -0.0841  0.4869
 2553TIP3    H129150   3.628   5.853  12.332 -0.5824 -1.9188 -0.7663
 2553TIP3    H229151   3.732   5.838  12.441 -0.2152  2.0985 -0.4858
 2554TIP3   OH229152   6.448   1.099   0.433 -0.0903 -0.4456  0.3344
 2554TIP3    H129153   6.440   1.191   0.455 -1.0605  0.2441 -2.7019
 2554TIP3    H229154   6.543   1.084   0.425  0.1569 -0.1761  2.5781
 2555TIP3   OH229155   5.019   3.807   0.142  0.1351  0.3027 -0.1830
 2555TIP3    H129156   4.952   3.831   0.206 -2.1552 -0.3776 -2.2575
 2555TIP3    H229157   5.051   3.891   0.109 -0.6826  0.6236 -0.1732
 2556TIP3   OH229158   4.815   5.840   2.196 -0.3258  0.2091  0.6773
 2556TIP3    H129159   4.752   5.884   2.253  0.0616 -0.2246  1.4340
 2556TIP3    H229160   4.850   5.768   2.248 -0.4057 -0.5545 -0.2989
 2557TIP3   OH229161   3.615   0.613   5.147  0.1323  0.0675 -1.0176
 2557TIP3    H129162   3.557   0.666   5.093 -0.2936 -0.6452 -1.2644
 2557TIP3    H229163   3.700   0.618   5.103  0.2359  0.9750 -0.7439
 2558TIP3   OH229164   1.764   6.107   0.507 -0.2901  0.2499  0.4838
 2558TIP3    H129165   1.751   6.073   0.596  1.5312  0.9635  1.0450
 2558TIP3    H229166   1.739   6.035   0.450 -1.0484 -0.3737  1.5893
 2559TIP3   OH229167   4.838   3.226   1.543 -0.5272 -0.1723 -0.1689
 2559TIP3    H129168   4.852   3.137   1.576 -0.2126 -1.0325 -2.5804
 2559TIP3    H229169   4.753   3.251   1.580 -1.9493 -2.5407 -1.7148
 2560TIP3   OH229170   4.241   1.989  17.286  0.1266 -0.4012 -0.0032
 2560TIP3    H129171   4.268   1.905  17.249 -1.5813 -0.8431 -0.3030
 2560TIP3    H229172   4.237   2.048  17.212  0.3379 -0.3149  0.0523
 2561TIP3   OH229173   0.472   3.732  10.632 -0.1711 -1.1677  0.0644
 2561TIP3    H129174   0.385   3.766  10.611 -0.0968 -0.5314  0.7719
 2561TIP3    H229175   0.506   3.700  10.548  1.2945  3.9366 -1.5161
 2562TIP3   OH229176   3.237   4.479  16.609 -0.7349  0.1373  0.6377
 2562TIP3    H129177   3.308   4.476  16.673 -1.0111 -1.8595  0.8716
 2562TIP3    H229178   3.173   4.415  16.640 -0.2997 -1.7872 -2.2480
 2563TIP3   OH229179   6.178   1.255   4.415 -0.3700  0.1604  0.0086
 2563TIP3    H129180   6.263   1.299   4.415 -0.7031  0.8111 -0.5513
 2563TIP3    H229181   6.197   1.166   4.386  0.2691  0.0130  0.8526
 2564TIP3   OH229182   2.473   6.666  14.889 -0.0687 -0.5533  0.2560
 2564TIP3    H129183   2.398   6.722  14.908 -0.1711 -0.2856 -0.8536
 2564TIP3    H229184   2.437   6.594  14.837  0.8347  1.0501 -2.7271
 2565TIP3   OH229185   6.158   0.336  17.121  0.4103  0.3904  0.0703
 2565TIP3    H129186   6.169   0.307  17.031  1.1156 -0.1626  0.3249
 2565TIP3    H229187   6.168   0.431  17.117 -0.6025  0.4716 -0.5831
 2566TIP3   OH229188   4.329   2.368   3.706 -0.1875  0.2449 -0.0058
 2566TIP3    H129189   4.356   2.459   3.713 -0.4635  0.2659  0.8582
 2566TIP3    H229190   4.249   2.363   3.759 -0.4956 -0.3661 -0.5212
 2567TIP3   OH229191   0.524   3.983   4.882 -0.1431  0.2755  0.1644
 2567TIP3    H129192   0.473   3.934   4.818 -2.8748  2.9293  0.2075
 2567TIP3    H229193   0.610   3.993   4.841 -0.6042 -1.4736 -1.3192
 2568TIP3   OH229194   3.909   5.275   6.605 -0.2889 -0.5615 -0.1332
 2568TIP3    H129195   3.995   5.298   6.570 -0.6934 -0.5582 -1.1381
 2568TIP3    H229196   3.914   5.296   6.698  0.3340  0.7593 -0.4656
 2569TIP3   OH229197   0.437   1.708  17.188 -0.2603  0.2159 -0.1639
 2569TIP3    H129198   0.375   1.774  17.157  1.2428  0.9735 -1.6326
 2569TIP3    H229199   0.511   1.758  17.223  0.8692 -0.6631 -1.2428
 2570TIP3   OH229200   0.165   2.690   5.067  0.3094  0.5194  0.0531
 2570TIP3    H129201   0.171   2.634   4.990  0.6209 -0.5439  0.8387
 2570TIP3    H229202   0.073   2.686   5.093  0.4558 -0.1288  0.4747
 2571TIP3   OH229203   4.211   5.739   5.766  0.4219  0.1378  0.2284
 2571TIP3    H129204   4.267   5.808   5.731  0.4327  0.0786  0.1255
 2571TIP3    H229205   4.126   5.754   5.725  1.0703 -1.4221 -1.8140
 2572TIP3   OH229206   3.923   1.360   3.916 -0.1375  0.3737 -0.0861
 2572TIP3    H129207   3.953   1.348   4.006 -0.0700 -0.5514 -0.2286
 2572TIP3    H229208   3.846   1.304   3.908 -0.6003  1.0544 -0.3710
 2573TIP3   OH229209   2.849   0.771  14.356  0.1343  0.1443 -0.1478
 2573TIP3    H129210   2.859   0.677  14.343  2.7898  0.4521 -0.6258
 2573TIP3    H229211   2.844   0.807  14.267 -0.1509  0.5008  0.0134
 2574TIP3   OH229212   3.349   0.705   3.987  0.3838  0.1561  0.3522
 2574TIP3    H129213   3.428   0.756   3.970 -0.1070  1.0163  0.6442
 2574TIP3    H229214   3.361   0.625   3.935  0.7735  0.9208 -0.7420
 2575TIP3   OH229215   5.325   5.789   1.780 -0.0595 -0.0857  0.2127
 2575TIP3    H129216   5.247   5.834   1.750  0.0567 -0.8657 -1.2950
 2575TIP3    H229217   5.383   5.859   1.810 -0.5321  0.6439 -0.5669
 2576TIP3   OH229218   3.540   1.802  12.987 -0.4065 -0.0140  0.5881
 2576TIP3    H129219   3.569   1.724  13.035  0.1260  0.5753  1.2295
 2576TIP3    H229220   3.585   1.875  13.029 -1.0933  0.6760  0.1475
 2577TIP3   OH229221   1.121   0.577  12.878  0.5525  0.4366 -0.0821
 2577TIP3    H129222   1.206   0.548  12.910 -0.1967 -0.8980  0.7134
 2577TIP3    H229223   1.058   0.547  12.943 -0.7535 -0.3943 -1.6645
 2578TIP3   OH229224   2.103   6.224   4.379 -0.3049  0.2751  0.4403
 2578TIP3    H129225   2.080   6.164   4.308  0.5603 -2.3508  2.2566
 2578TIP3    H229226   2.194   6.247   4.363 -0.6191  1.0534 -0.2280
 2579TIP3   OH229227   2.837   3.305   5.208 -0.5846  0.6079  0.1809
 2579TIP3    H129228   2.895   3.322   5.134  1.8056 -1.8788  1.4127
 2579TIP3    H229229   2.865   3.367   5.275  1.2205 -1.0928  1.0408
 2580TIP3   OH229230   0.380   5.013  14.916 -0.0840  0.1125 -0.2798
 2580TIP3    H129231   0.472   5.036  14.924  0.1347 -0.7322 -0.2891
 2580TIP3    H229232   0.380   4.917  14.908 -0.8432  0.2350 -2.0347
 2581TIP3   OH229233   5.649   4.129  15.754  0.1631 -0.1474 -0.1819
 2581TIP3    H129234   5.561   4.156  15.726  0.8317 -0.2263 -2.5139
 2581TIP3    H229235   5.635   4.048  15.802 -1.0585 -0.2006 -0.6084
 2582TIP3   OH229236   4.862   2.148  14.374  0.2241  0.4464  0.3708
 2582TIP3    H129237   4.808   2.103  14.438  0.7655  2.5553  2.3524
 2582TIP3    H229238   4.804   2.214  14.335  0.6596  1.0387  0.7103
 2583TIP3   OH229239   2.139   2.348  13.178  0.0150  0.4435  0.2186
 2583TIP3    H129240   2.206   2.391  13.232 -1.2343  3.4943 -0.5814
 2583TIP3    H229241   2.060   2.400  13.191 -1.1778 -0.7671 -1.9386
 2584TIP3   OH229242   4.919   2.613  12.423 -0.3144  0.1455 -0.5330
 2584TIP3    H129243   5.005   2.600  12.384 -0.2375  0.2399 -0.3982
 2584TIP3    H229244   4.867   2.654  12.353 -1.1187 -2.5889 -1.5860
 2585TIP3   OH229245   1.787   1.924   1.499  0.3430 -0.6730  0.5294
 2585TIP3    H129246   1.786   1.979   1.577  1.3183 -0.9647  0.7583
 2585TIP3    H229247   1.834   1.975   1.434 -1.3656 -0.0076 -0.1928
 2586TIP3   OH229248   3.338   4.043   5.224 -0.3451  0.0598 -0.0439
 2586TIP3    H129249   3.293   4.116   5.182  3.1300  1.9639 -0.5760
 2586TIP3    H229250   3.354   4.072   5.314  0.2377 -0.4250  0.0130
 2587TIP3   OH229251   3.960   1.724  11.758  0.6411 -0.1546 -0.4494
 2587TIP3    H129252   3.925   1.642  11.724  2.5365 -1.0234 -0.3770
 2587TIP3    H229253   3.885   1.783  11.762 -0.9031 -2.1390  0.2998
 2588TIP3   OH229254   2.485   1.546  13.115  0.0473 -0.3905  0.1742
 2588TIP3    H129255   2.414   1.600  13.078  1.7999  1.1955 -0.9889
 2588TIP3    H229256   2.533   1.514  13.039 -0.4951 -3.0277  0.8895
 2589TIP3   OH229257   0.945   4.349   0.331  0.5096 -0.1843  0.4577
 2589TIP3    H129258   1.002   4.384   0.400  0.4437  1.3703 -0.2339
 2589TIP3    H229259   1.006   4.319   0.263  0.5549  3.1660 -1.0849
 2590TIP3   OH229260   1.382   2.309   3.479  0.2679  0.3316  0.1426
 2590TIP3    H129261   1.391   2.384   3.537 -1.0346  0.2058  0.5175
 2590TIP3    H229262   1.325   2.340   3.408 -0.1084 -0.2438  0.1905
 2591TIP3   OH229263   0.039   3.054  12.921 -0.3122 -0.3834  0.5082
 2591TIP3    H129264   0.091   3.095  12.851 -0.4371  0.5663  0.9622
 2591TIP3    H229265   0.096   3.056  12.998 -0.9784  0.5870  0.9889
 2592TIP3   OH229266   6.732   1.930  15.650  0.0847 -0.2444  0.0575
 2592TIP3    H129267   6.684   1.865  15.701  0.5051 -0.3749  0.2879
 2592TIP3    H229268   6.668   1.998  15.631  0.0274 -0.0119  1.0918
 2593TIP3   OH229269   0.314   0.721  17.001  0.0106  0.1863  0.0800
 2593TIP3    H129270   0.218   0.715  17.009 -0.1707 -0.6740 -2.4731
 2593TIP3    H229271   0.343   0.630  16.995  1.2069  0.3465  2.7582
 2594TIP3   OH229272   1.714   1.438  11.545 -0.3009 -0.3740  0.3713
 2594TIP3    H129273   1.637   1.412  11.594 -1.6172  0.7483 -1.0680
 2594TIP3    H229274   1.691   1.522  11.506  1.8606  0.2687  0.4074
 2595TIP3   OH229275   4.960   2.577  13.086  0.8639  0.1699 -0.0016
 2595TIP3    H129276   4.885   2.603  13.139  0.4749 -1.4563  0.2660
 2595TIP3    H229277   5.026   2.548  13.150  0.4230 -1.7104 -0.3538
 2596TIP3   OH229278   0.695   6.156  17.099 -0.8627  0.1831  0.2579
 2596TIP3    H129279   0.671   6.073  17.139 -0.2883 -0.2952 -0.3879
 2596TIP3    H229280   0.664   6.222  17.161 -0.6988 -0.5266  1.1098
 2597TIP3   OH229281   0.367   1.202  13.594 -0.3890  0.8267  0.6143
 2597TIP3    H129282   0.444   1.159  13.630 -0.1131  0.1191 -0.7799
 2597TIP3    H229283   0.380   1.199  13.499 -1.3720  2.1228  0.4256
 2598TIP3   OH229284   3.556   5.153  11.656 -0.2352 -0.4118  0.3279
 2598TIP3    H129285   3.626   5.089  11.642 -0.7842 -1.5902  2.7616
 2598TIP3    H229286   3.484   5.102  11.692 -2.4199  0.7742 -2.2091
 2599TIP3   OH229287   6.073   2.617   0.943  0.3514  0.2197  0.7010
 2599TIP3    H129288   5.992   2.565   0.945  0.3041  0.3243  1.9638
 2599TIP3    H229289   6.044   2.707   0.960  0.5020  0.5931 -0.9047
 2600TIP3   OH229290   4.336   4.517   6.290  0.4476  0.0114 -0.0417
 2600TIP3    H129291   4.333   4.426   6.261 -1.3092  0.5390 -1.6022
 2600TIP3    H229292   4.264   4.524   6.352  1.8037 -0.1344  1.5807
 2601TIP3   OH229293   1.725   6.702   3.689 -0.7162  0.3425 -0.3649
 2601TIP3    H129294   1.752   6.617   3.656 -2.3809  0.2344 -1.4969
 2601TIP3    H229295   1.705   6.754   3.611 -0.2375  1.6014  0.3256
 2602TIP3   OH229296   0.376   5.528   2.852  0.5735  0.5174  0.4973
 2602TIP3    H129297   0.348   5.574   2.773  0.6655  0.4481  0.4238
 2602TIP3    H229298   0.460   5.488   2.828  1.2565  1.5896  1.0425
 2603TIP3   OH229299   2.148   4.654   5.652  0.0535 -0.5377 -0.0332
 2603TIP3    H129300   2.201   4.594   5.598  1.6828  1.1131 -0.3216
 2603TIP3    H229301   2.190   4.739   5.641 -2.2836  0.6901  0.3050
 2604TIP3   OH229302   0.438   1.850   0.466  0.5486 -0.5389 -0.8826
 2604TIP3    H129303   0.396   1.817   0.386 -1.7126 -0.9324  0.4208
 2604TIP3    H229304   0.398   1.936   0.479  0.7947 -0.5463 -0.0921
 2605TIP3   OH229305   2.727   0.963   5.398 -0.0640 -0.0779  0.6296
 2605TIP3    H129306   2.702   1.017   5.473 -1.1883  0.6959 -0.2858
 2605TIP3    H229307   2.692   1.009   5.322 -1.6659 -2.4282 -0.1244
 2606TIP3   OH229308   2.561   6.121  14.443 -0.3965 -0.2866 -0.1640
 2606TIP3    H129309   2.531   6.065  14.514 -1.5492 -0.4372 -0.7597
 2606TIP3    H229310   2.620   6.065  14.392  0.9311  0.0168  1.0226
 2607TIP3   OH229311   1.736   2.026  10.692  0.0457 -0.9460 -0.4708
 2607TIP3    H129312   1.657   2.002  10.740  0.1351 -0.0821  0.1205
 2607TIP3    H229313   1.707   2.036  10.601 -0.5426 -0.5504 -0.2431
 2608TIP3   OH229314   1.752   3.382  10.222 -0.7182 -0.0800  0.0193
 2608TIP3    H129315   1.666   3.377  10.180 -0.5414 -0.0232 -0.3494
 2608TIP3    H229316   1.749   3.462  10.275 -0.4095  0.6610 -1.0683
 2609TIP3   OH229317   1.807   5.992  11.698  0.0737  0.2292  0.4209
 2609TIP3    H129318   1.788   5.916  11.753 -0.1109 -0.4551 -0.5793
 2609TIP3    H229319   1.734   5.996  11.636 -1.1208  2.5945  1.9217
 2610TIP3   OH229320   3.203   4.422   3.946 -0.1303  0.1881  0.8341
 2610TIP3    H129321   3.152   4.495   3.982  0.4260  1.8279 -1.5842
 2610TIP3    H229322   3.266   4.401   4.015 -2.2713 -0.0643  2.7750
 2611TIP3   OH229323   6.154   4.281   3.531  0.9656 -0.6160  0.3782
 2611TIP3    H129324   6.111   4.333   3.598  0.9866 -0.8088  0.5418
 2611TIP3    H229325   6.159   4.193   3.568 -1.6098 -1.3868 -1.0453
 2612TIP3   OH229326   3.196   4.613   5.547  0.1159  0.2190 -0.2388
 2612TIP3    H129327   3.164   4.683   5.605 -0.0872 -0.1526  0.1060
 2612TIP3    H229328   3.234   4.549   5.607 -1.1980 -0.7454 -0.4204
 2613TIP3   OH229329   6.221   1.315   6.296  0.3918  0.3923  0.4222
 2613TIP3    H129330   6.177   1.266   6.365  0.0859  0.3965  0.2309
 2613TIP3    H229331   6.257   1.392   6.341 -0.2029  0.6328  0.4974
 2614TIP3   OH229332   6.627   4.723   1.671  0.5691  0.0786 -0.4193
 2614TIP3    H129333   6.540   4.757   1.650  1.4438  2.1937 -0.7659
 2614TIP3    H229334   6.623   4.630   1.647 -1.2036  0.4297 -1.6027
 2615TIP3   OH229335   3.958   2.949   1.005 -0.1474  0.1387 -0.4084
 2615TIP3    H129336   3.924   2.876   0.954 -0.4906  0.9614 -1.3741
 2615TIP3    H229337   3.884   3.009   1.013 -0.4375 -0.5119  2.0591
 2616TIP3   OH229338   1.373   4.715  11.022  0.1690  0.1078  0.4307
 2616TIP3    H129339   1.319   4.746  11.095  1.2883 -0.4168  1.4927
 2616TIP3    H229340   1.440   4.782  11.012 -1.0522  1.1044 -1.3371
 2617TIP3   OH229341   6.301   2.004   5.962  0.0749  0.6208  0.1088
 2617TIP3    H129342   6.349   2.044   5.890 -0.1558 -1.0174 -0.9771
 2617TIP3    H229343   6.362   2.006   6.036  0.9857  0.6473 -0.6325
 2618TIP3   OH229344   5.628   4.399   2.185 -0.2459 -0.0346 -0.0747
 2618TIP3    H129345   5.578   4.427   2.261 -1.6748 -1.4231 -0.4635
 2618TIP3    H229346   5.706   4.455   2.184 -2.0703  2.5888  0.1981
 2619TIP3   OH229347   6.626   4.593  17.144 -0.6775 -0.0378  0.2120
 2619TIP3    H129348   6.535   4.564  17.155 -1.0155  1.6727  2.1158
 2619TIP3    H229349   6.674   4.512  17.122 -2.3135 -1.2985  1.1583
 2620TIP3   OH229350   3.435   3.845   0.122 -0.5171 -0.0247 -0.2650
 2620TIP3    H129351   3.450   3.917   0.183 -2.0904  0.6371 -0.6258
 2620TIP3    H229352   3.419   3.888   0.038  2.5107 -0.9573 -1.3782
 2621TIP3   OH229353   5.478   5.523   6.503  0.0745  0.2947 -0.4337
 2621TIP3    H129354   5.427   5.600   6.479  0.4717  2.4497  4.9415
 2621TIP3    H229355   5.418   5.449   6.490 -1.3239  1.7792 -2.7041
 2622TIP3   OH229356   4.205   4.972  12.185 -0.1600  0.3044 -0.7658
 2622TIP3    H129357   4.160   4.960  12.269  2.7395  0.7541  0.9378
 2622TIP3    H229358   4.146   5.027  12.134 -2.1404 -0.2333  0.8720
 2623TIP3   OH229359   5.721   6.546  16.842  0.0082 -0.3656 -0.4837
 2623TIP3    H129360   5.652   6.589  16.894  0.5981 -1.3375  1.1473
 2623TIP3    H229361   5.675   6.498  16.774 -0.8953 -0.4260  0.1682
 2624TIP3   OH229362   0.617   4.216  13.752  0.8950 -0.3261  0.6040
 2624TIP3    H129363   0.623   4.196  13.659 -1.5127 -0.8942  0.5639
 2624TIP3    H229364   0.700   4.184  13.789  3.4890  3.1068 -1.8484
 2625TIP3   OH229365   4.214   4.003   0.310  0.1632 -0.2478  0.1644
 2625TIP3    H129366   4.161   4.038   0.382  0.5343  2.1716 -0.6983
 2625TIP3    H229367   4.277   3.945   0.353  0.7159  1.5465  1.8870
 2626TIP3   OH229368   4.712   4.441   5.495  0.2667 -0.4411  1.0814
 2626TIP3    H129369   4.720   4.346   5.498 -1.0679 -0.6025 -0.2594
 2626TIP3    H229370   4.792   4.471   5.450 -0.1681 -1.0657 -0.1274
 2627TIP3   OH229371   5.820   3.996   4.403  0.3522 -0.3093 -0.4287
 2627TIP3    H129372   5.866   4.080   4.402  2.1972 -1.3038  0.0240
 2627TIP3    H229373   5.803   3.979   4.495 -2.3478  0.7727 -0.6605
 2628TIP3   OH229374   4.012   3.274   3.119  0.2097  0.0642 -0.2750
 2628TIP3    H129375   3.960   3.211   3.071  0.8078 -2.3481  2.1321
 2628TIP3    H229376   4.102   3.260   3.089  0.2002  0.5255 -0.5259
 2629TIP3   OH229377   4.166   1.379   2.331  0.0326 -0.1556  0.0417
 2629TIP3    H129378   4.131   1.377   2.241  1.7884 -2.7698 -0.6193
 2629TIP3    H229379   4.107   1.438   2.377 -0.9142  1.2625 -2.8318
 2630TIP3   OH229380   6.068   3.028  12.925  0.1650 -0.0469  0.2722
 2630TIP3    H129381   6.103   3.112  12.897 -0.5835  0.0194 -0.4834
 2630TIP3    H229382   6.143   2.982  12.963  0.2593  1.5593  2.1604
 2631TIP3   OH229383   6.672   0.921  16.518 -0.1109  0.6551  0.7761
 2631TIP3    H129384   6.640   1.007  16.491 -0.9393  0.4732  1.1325
 2631TIP3    H229385   6.764   0.935  16.541 -0.0286  1.2761  0.0782
 2632TIP3   OH229386   3.215   4.534  10.996  0.4457  0.1387  0.5070
 2632TIP3    H129387   3.253   4.572  10.917  3.8817  0.7183  2.3252
 2632TIP3    H229388   3.212   4.440  10.979 -3.5632  0.6257 -2.1535
 2633TIP3   OH229389   2.520   3.756   5.769 -0.3406  0.2568 -0.2667
 2633TIP3    H129390   2.609   3.746   5.804 -1.1977 -1.6134  1.5198
 2633TIP3    H229391   2.507   3.678   5.715 -0.7399  0.7566 -0.8991
 2634TIP3   OH229392   6.048   2.525  13.520 -0.4347 -0.5599 -0.1782
 2634TIP3    H129393   5.981   2.546  13.585 -0.8384  1.7664 -1.2733
 2634TIP3    H229394   6.009   2.459  13.464 -0.7518 -1.2694  0.8829
 2635TIP3   OH229395   5.589   1.186   0.001  0.3591  0.1631  0.6169
 2635TIP3    H129396   5.661   1.126  -0.019  2.7996  2.9596  0.5716
 2635TIP3    H229397   5.557   1.214  -0.084  1.6262  1.6161  0.5949
 2636TIP3   OH229398   2.362   0.340  16.934  0.2701 -0.6280 -0.0926
 2636TIP3    H129399   2.401   0.335  17.022 -1.2841 -0.1511  0.6440
 2636TIP3    H229400   2.419   0.400  16.886  1.0476 -0.7750  0.6238
 2637TIP3   OH229401   2.800   1.600  12.659  0.5922 -0.1132  0.5164
 2637TIP3    H129402   2.804   1.671  12.594  0.5625  0.5508  1.2300
 2637TIP3    H229403   2.891   1.585  12.684  0.4839  0.6363  1.3883
 2638TIP3   OH229404   2.554   1.509   6.302 -0.4763  0.2388 -0.1806
 2638TIP3    H129405   2.576   1.594   6.265  0.0855  0.2754  0.2101
 2638TIP3    H229406   2.578   1.517   6.395  1.4737 -0.9677 -0.5310
 2639TIP3   OH229407   4.024   4.814   1.945  0.3773  0.2020 -0.1566
 2639TIP3    H129408   3.940   4.848   1.976  0.7774  1.8337 -0.7548
 2639TIP3    H229409   4.033   4.729   1.986 -0.3484  1.1522  2.0538
 2640TIP3   OH229410   4.633   0.738   2.539 -0.3177 -0.0085 -0.4409
 2640TIP3    H129411   4.694   0.775   2.475  0.5994  0.2943  0.6075
 2640TIP3    H229412   4.558   0.799   2.537  1.0441  1.7848  1.0384
 2641TIP3   OH229413   2.128   5.313  11.481  0.1605  0.1291  0.3644
 2641TIP3    H129414   2.174   5.230  11.493  1.8001  1.4420  3.4833
 2641TIP3    H229415   2.183   5.362  11.420 -0.3843 -0.7239 -0.8334
 2642TIP3   OH229416   5.192   6.754   5.929  0.2799  0.0308 -0.5895
 2642TIP3    H129417   5.259   6.688   5.948 -0.8595 -0.0778  3.5699
 2642TIP3    H229418   5.200   6.817   6.001 -2.7542  1.0953 -1.1157
 2643TIP3   OH229419   4.365   3.183   4.025 -0.1783  0.4442  0.4015
 2643TIP3    H129420   4.323   3.139   4.099  2.1257 -4.0506 -0.7795
 2643TIP3    H229421   4.294   3.201   3.964 -1.3380 -0.8854  1.3243
 2644TIP3   OH229422   4.526   5.104   0.780  0.0726 -1.0180 -0.2991
 2644TIP3    H129423   4.445   5.077   0.824 -0.8707 -0.4509 -1.6743
 2644TIP3    H229424   4.523   5.200   0.781 -0.6035 -0.9938 -2.7724
 2645TIP3   OH229425   6.591   2.918   1.495 -0.1589 -0.3646  0.6948
 2645TIP3    H129426   6.669   2.911   1.441 -1.2099  1.6919 -1.1413
 2645TIP3    H229427   6.617   2.975   1.568 -0.1164  0.7958 -0.2276
 2646TIP3   OH229428   1.139   6.546  15.191  0.0737 -0.8609  0.1772
 2646TIP3    H129429   1.085   6.591  15.126 -0.5208 -1.1938  0.4384
 2646TIP3    H229430   1.076   6.504  15.249  0.6068 -0.6139  0.9367
 2647TIP3   OH229431   3.482   0.496  12.775 -1.1669 -0.4010  0.3731
 2647TIP3    H129432   3.514   0.406  12.774 -0.7122 -0.3083 -4.0744
 2647TIP3    H229433   3.400   0.492  12.725 -1.9235  1.3970  1.4335
 2648TIP3   OH229434   2.823   0.149  17.176  0.1524 -0.4723 -0.7011
 2648TIP3    H129435   2.910   0.139  17.136 -0.0811 -0.3227 -1.2524
 2648TIP3    H229436   2.798   0.239  17.156  0.5516 -0.0065  0.8346
 2649TIP3   OH229437   3.267   5.698   3.081  0.2410 -0.1474  0.0103
 2649TIP3    H129438   3.313   5.634   3.136 -0.7213 -0.7920  0.0691
 2649TIP3    H229439   3.285   5.782   3.123  0.1247 -0.5590  0.8969
 2650TIP3   OH229440   2.191   0.752   1.511 -0.6464  0.2604 -0.6781
 2650TIP3    H129441   2.202   0.687   1.442  1.0400 -1.5331  1.1807
 2650TIP3    H229442   2.184   0.700   1.591  2.2921  2.3892  1.0433
 2651TIP3   OH229443   6.076   0.408   2.517 -0.2567 -0.1749 -0.1815
 2651TIP3    H129444   6.027   0.444   2.444  1.3085  0.0791 -1.1197
 2651TIP3    H229445   6.009   0.365   2.571 -1.6565  1.1007 -0.8476
 2652TIP3   OH229446   1.213   1.662  17.101  0.0136 -0.5448  0.1537
 2652TIP3    H129447   1.258   1.745  17.117  0.9450 -0.8577 -0.7169
 2652TIP3    H229448   1.251   1.631  17.019 -2.0826 -0.6455 -0.8076
 2653TIP3   OH229449   1.720   5.758  12.238  0.5249 -0.1231 -0.3663
 2653TIP3    H129450   1.699   5.700  12.165 -0.2094 -1.5407  0.9370
 2653TIP3    H229451   1.760   5.702  12.303  0.7121  1.0291  0.5341
 2654TIP3   OH229452   5.387   2.492   5.207  0.0243 -0.5189  0.3922
 2654TIP3    H129453   5.462   2.551   5.209 -0.5162  0.1635  0.6150
 2654TIP3    H229454   5.421   2.410   5.170  0.6237  0.1392 -0.5285
 2655TIP3   OH229455   5.147   1.112  16.075 -0.4295 -0.3301  0.4813
 2655TIP3    H129456   5.149   1.018  16.096 -0.5137 -0.4801 -0.1773
 2655TIP3    H229457   5.229   1.145  16.111 -0.0122 -0.8168 -0.0080
 2656TIP3   OH229458   6.551   6.156  11.961 -0.3135 -0.1822 -0.2948
 2656TIP3    H129459   6.616   6.151  12.031 -0.5033  2.4511  0.0885
 2656TIP3    H229460   6.504   6.073  11.967  1.1555 -0.9406  1.2339
 2657TIP3   OH229461   0.051   0.542   0.066  0.3677  0.3137 -0.1839
 2657TIP3    H129462  -0.023   0.555   0.124  1.0553 -3.0236  1.5928
 2657TIP3    H229463   0.109   0.616   0.083 -1.0100  1.1620  0.8700
 2658TIP3   OH229464   5.074   2.162  15.177 -0.7089  0.2065  0.0252
 2658TIP3    H129465   5.131   2.231  15.143  1.9534 -0.9512  1.9317
 2658TIP3    H229466   5.052   2.109  15.101 -0.2145  1.3629 -0.9360
 2659TIP3   OH229467   2.172   2.207  15.586 -0.4590 -0.1661  0.5053
 2659TIP3    H129468   2.132   2.129  15.548 -0.5576  0.4370 -0.6651
 2659TIP3    H229469   2.101   2.250  15.634  0.1689 -2.0437  3.2503
 2660TIP3   OH229470   0.873   4.836  16.275 -0.0571  0.2920  0.9765
 2660TIP3    H129471   0.852   4.744  16.289  1.4149 -0.1385  0.4075
 2660TIP3    H229472   0.802   4.869  16.220  1.3734 -1.4615 -2.0300
 2661TIP3   OH229473   1.121   1.154   3.872 -0.8077 -0.9044 -0.3015
 2661TIP3    H129474   1.092   1.240   3.843  0.0230 -0.0145  1.4471
 2661TIP3    H229475   1.181   1.124   3.803 -0.6682  0.1530 -0.6440
 2662TIP3   OH229476   3.308   1.272  15.175 -0.2631 -0.2433  0.4101
 2662TIP3    H129477   3.268   1.310  15.097 -0.1551  0.6763  0.7987
 2662TIP3    H229478   3.302   1.341  15.241 -0.8135 -1.1900  1.3636
 2663TIP3   OH229479   1.348   2.866  16.550  0.0761  0.1985 -0.1231
 2663TIP3    H129480   1.368   2.929  16.481 -2.2921  2.6831  1.3416
 2663TIP3    H229481   1.272   2.818  16.518 -0.2514  0.4877  0.2131
 2664TIP3   OH229482   3.999   2.200   3.722 -0.2502  0.0387  0.6362
 2664TIP3    H129483   3.968   2.161   3.640 -0.2066 -0.6341  0.9438
 2664TIP3    H229484   3.962   2.146   3.791 -1.3681  1.3859  1.1098
 2665TIP3   OH229485   5.746   0.269  17.053 -0.0232  0.4376  0.1446
 2665TIP3    H129486   5.666   0.221  17.074 -0.8125  1.4519 -0.5371
 2665TIP3    H229487   5.757   0.332  17.124 -1.0322  1.7884 -0.8784
 2666TIP3   OH229488   0.094   4.125   4.008 -0.0765 -0.3020 -0.3707
 2666TIP3    H129489   0.002   4.100   3.996 -0.4242  1.4716 -1.7178
 2666TIP3    H229490   0.143   4.045   3.990 -1.3447 -1.1473 -0.1166
 2667TIP3   OH229491   5.443   2.575  12.363  0.1340  0.0313 -0.3488
 2667TIP3    H129492   5.438   2.509  12.294 -3.0357  0.3145 -0.4417
 2667TIP3    H229493   5.485   2.529  12.436 -1.9681 -2.1100 -0.4200
 2668TIP3   OH229494   1.949   3.149   1.578  0.2418  0.3120 -0.1803
 2668TIP3    H129495   1.903   3.187   1.653 -0.4422  1.3798 -1.1102
 2668TIP3    H229496   2.025   3.106   1.615 -0.5879  0.0268  1.2186
 2669TIP3   OH229497   5.653   4.320  12.572  0.3060 -0.2949  0.1533
 2669TIP3    H129498   5.731   4.268  12.590  0.0435 -0.6519  0.2470
 2669TIP3    H229499   5.589   4.257  12.540  0.1710  0.0545 -0.2615
 2670TIP3   OH229500   4.979   6.054  12.014 -0.1574 -0.1752 -0.1248
 2670TIP3    H129501   4.928   5.982  11.976 -0.3445  0.1353 -0.4580
 2670TIP3    H229502   4.972   6.040  12.108 -1.1238  0.0413 -0.1532
 2671TIP3   OH229503   5.341   1.199  12.297  0.3805  0.6733  0.1259
 2671TIP3    H129504   5.286   1.162  12.227  1.3008 -0.5696  0.0363
 2671TIP3    H229505   5.281   1.209  12.371  0.0427 -0.8386  0.0838
 2672TIP3   OH229506   0.369   2.128  14.284  0.0045  0.1264 -0.1124
 2672TIP3    H129507   0.372   2.127  14.380  0.2686 -0.8294 -0.1192
 2672TIP3    H229508   0.284   2.091  14.262 -0.0977  0.4424 -0.2407
 2673TIP3   OH229509   2.913   0.604   3.929  0.4024  0.0251  0.0325
 2673TIP3    H129510   2.822   0.597   3.956  1.5520 -1.1274  3.9417
 2673TIP3    H229511   2.944   0.685   3.970  1.0513  0.6180 -1.5878
 2674TIP3   OH229512   2.523   4.044  11.409 -0.3219  0.6711 -0.0526
 2674TIP3    H129513   2.553   4.086  11.489 -0.9183  0.2500  0.3991
 2674TIP3    H229514   2.428   4.057  11.409 -0.4074  0.0910 -0.3454
 2675TIP3   OH229515   0.865   5.089   5.049 -0.2463 -0.1566  0.4295
 2675TIP3    H129516   0.886   5.075   4.956 -0.1559  2.0240  0.1006
 2675TIP3    H229517   0.942   5.057   5.096 -0.4274 -1.5715 -0.2253
 2676TIP3   OH229518   0.103   5.913   2.614 -0.0560  0.1009 -0.3392
 2676TIP3    H129519   0.083   5.902   2.521 -2.6301 -0.3471  0.2379
 2676TIP3    H229520   0.179   5.971   2.616  1.2700 -1.4676 -2.7829
 2677TIP3   OH229521   3.287   6.767   5.109  0.2575 -0.6899 -0.2361
 2677TIP3    H129522   3.318   6.798   5.194 -2.1806  0.1567  0.4167
 2677TIP3    H229523   3.337   6.688   5.092  0.6930 -0.9447  2.0646
 2678TIP3   OH229524   5.885   4.381  15.957 -0.1323 -0.0803 -0.6411
 2678TIP3    H129525   5.899   4.296  15.916  1.6766 -0.7231  1.2314
 2678TIP3    H229526   5.829   4.429  15.895  0.1212 -2.0492 -2.4385
 2679TIP3   OH229527   1.933   5.086   1.506 -0.4917 -0.7869  0.1359
 2679TIP3    H129528   1.904   5.136   1.429  3.7388 -1.5255 -2.0655
 2679TIP3    H229529   1.907   4.996   1.487  1.3793 -1.1299 -0.9554
 2680TIP3   OH229530   0.315   2.840   4.080 -0.4679 -0.0441  0.0929
 2680TIP3    H129531   0.264   2.779   4.133 -1.5187  0.9404  0.2402
 2680TIP3    H229532   0.331   2.915   4.137  0.5922 -0.0665 -0.1645
 2681TIP3   OH229533   1.211   3.182  15.949  0.3583  0.1936 -0.4758
 2681TIP3    H129534   1.175   3.268  15.926  1.1033  1.0671  1.5775
 2681TIP3    H229535   1.197   3.174  16.043  2.2115 -1.0388 -0.2827
 2682TIP3   OH229536   4.216   5.465  15.757  0.5014  0.5232 -0.0043
 2682TIP3    H129537   4.178   5.422  15.680 -2.4314 -2.2740  2.8611
 2682TIP3    H229538   4.266   5.538  15.721 -1.3967 -0.2206 -4.5123
 2683TIP3   OH229539   5.859   6.380  16.411  0.1822 -0.5579  0.3171
 2683TIP3    H129540   5.947   6.345  16.397  0.8589  1.1220  0.2370
 2683TIP3    H229541   5.870   6.444  16.482 -0.7356  0.5674 -0.5439
 2684TIP3   OH229542   5.875   1.322  11.988  0.0475 -0.0997  0.4319
 2684TIP3    H129543   5.791   1.354  12.021 -0.0809 -0.6119  0.6134
 2684TIP3    H229544   5.913   1.397  11.941 -0.2890  0.2804  0.7621
 2685TIP3   OH229545   2.593   1.951  14.230  0.1420  0.0049  0.3185
 2685TIP3    H129546   2.689   1.951  14.223  0.1129  0.7012 -0.0703
 2685TIP3    H229547   2.562   1.940  14.140 -0.1694  2.8357  0.0382
 2686TIP3   OH229548   0.037   5.935   1.387 -0.1630  0.1052 -0.3246
 2686TIP3    H129549   0.118   5.933   1.336  0.4227  1.2077  0.5370
 2686TIP3    H229550   0.060   5.890   1.469 -0.2486  0.9541  0.1655
 2687TIP3   OH229551   4.083   4.896  15.087 -0.0639 -0.3821  0.1171
 2687TIP3    H129552   4.074   4.801  15.096  1.0153 -0.4710  0.2527
 2687TIP3    H229553   4.087   4.911  14.992  0.1345 -0.5090  0.1055
 2688TIP3   OH229554   6.447   5.463  13.273  0.4799 -0.4513 -0.0756
 2688TIP3    H129555   6.382   5.450  13.342  0.5860  0.2086  0.1436
 2688TIP3    H229556   6.444   5.556  13.253  0.9609 -0.5128 -0.4619
 2689TIP3   OH229557   3.178   1.777   1.623 -0.6976 -1.1536  0.0358
 2689TIP3    H129558   3.176   1.768   1.528 -0.4951 -2.7168  0.1622
 2689TIP3    H229559   3.220   1.696   1.654 -1.7268 -1.1421  1.5085
 2690TIP3   OH229560   1.495   0.331  14.664 -0.2619 -0.5655  0.3111
 2690TIP3    H129561   1.495   0.261  14.599 -1.2816  0.0101 -0.3198
 2690TIP3    H229562   1.569   0.387  14.640 -2.4504  1.3360 -2.2210
 2691TIP3   OH229563   5.959   1.192  15.388 -0.1300  0.3674 -0.1627
 2691TIP3    H129564   5.892   1.233  15.334 -0.1852  0.0453 -0.3444
 2691TIP3    H229565   6.042   1.215  15.345 -0.1675  0.1951 -0.3277
 2692TIP3   OH229566   0.311   0.127   1.408  0.1463 -0.0165  0.1341
 2692TIP3    H129567   0.317   0.061   1.477 -2.0765 -0.4332 -0.0305
 2692TIP3    H229568   0.219   0.154   1.409 -0.1176 -0.5577 -3.1280
 2693TIP3   OH229569   5.492   6.246  14.700  0.7881  0.1270  0.9828
 2693TIP3    H129570   5.455   6.180  14.758  1.1701 -1.0567 -0.1103
 2693TIP3    H229571   5.448   6.233  14.616  1.3466  0.8181  0.5695
 2694TIP3   OH229572   2.367   1.914  12.953 -0.2483 -0.4008  0.4238
 2694TIP3    H129573   2.438   1.976  12.941 -2.0619  1.2101 -2.4727
 2694TIP3    H229574   2.294   1.966  12.987 -1.1428 -1.3349 -0.0110
 2695TIP3   OH229575   5.225   3.423   1.877 -0.1845 -0.8328  0.0124
 2695TIP3    H129576   5.203   3.507   1.838  1.0218 -0.3109  0.4212
 2695TIP3    H229577   5.168   3.360   1.833 -1.5139  0.2743  0.1330
 2696TIP3   OH229578   6.410   2.406   5.765  0.1922 -0.1957  0.1425
 2696TIP3    H129579   6.454   2.420   5.849  0.2306  0.1935  0.0602
 2696TIP3    H229580   6.355   2.483   5.754 -0.1310 -0.4475  0.0072
 2697TIP3   OH229581   5.319   3.435  16.403  0.1804 -0.1227 -0.0171
 2697TIP3    H129582   5.252   3.482  16.452  0.5226 -1.6553  1.9847
 2697TIP3    H229583   5.303   3.343  16.421  1.4553 -0.6321 -1.3231
 2698TIP3   OH229584   1.413   0.764   2.895  0.2248 -0.2588 -0.2723
 2698TIP3    H129585   1.382   0.827   2.961 -0.2160 -0.2695 -0.4664
 2698TIP3    H229586   1.334   0.740   2.846  0.0512 -2.4627  1.0545
 2699TIP3   OH229587   0.249   3.889  12.513 -0.1441 -0.3075  0.0541
 2699TIP3    H129588   0.296   3.944  12.576 -1.9086 -1.2547  2.2826
 2699TIP3    H229589   0.286   3.802  12.525 -0.0113 -0.3508 -0.6987
 2700TIP3   OH229590   0.943   2.097   4.667 -0.5205  0.6039  0.1887
 2700TIP3    H129591   1.014   2.033   4.660 -2.5473 -1.5153 -2.2782
 2700TIP3    H229592   0.942   2.123   4.759  2.7886 -0.0322  0.4701
 2701TIP3   OH229593   1.731   0.625  13.127  0.1627 -0.0066 -0.1300
 2701TIP3    H129594   1.695   0.574  13.200  1.0029 -1.5476 -0.7576
 2701TIP3    H229595   1.823   0.635  13.149  0.2631  0.1542 -0.6280
 2702TIP3   OH229596   3.555   3.810  12.294  0.0312 -0.3992 -0.1495
 2702TIP3    H129597   3.525   3.900  12.305  2.2962 -0.0164  3.4488
 2702TIP3    H229598   3.476   3.757  12.304 -0.9159  1.0425  0.1572
 2703TIP3   OH229599   3.561   6.125  12.985  0.1794  0.1401 -0.0723
 2703TIP3    H129600   3.511   6.121  12.903  1.1444 -1.0501 -0.6169
 2703TIP3    H229601   3.580   6.034  13.006  0.0661  0.4441  1.4174
 2704TIP3   OH229602   1.767   4.455   3.059 -0.5909  0.6801  0.1739
 2704TIP3    H129603   1.751   4.465   2.965  1.5325  0.5349 -0.2300
 2704TIP3    H229604   1.851   4.498   3.073 -0.1887 -0.5873  1.7584
 2705TIP3   OH229605   2.843   6.008   2.080  0.3252 -0.2833  0.2121
 2705TIP3    H129606   2.928   6.012   2.125  0.9602 -1.0520 -0.8774
 2705TIP3    H229607   2.834   5.915   2.057 -0.4880 -0.0761 -0.2991
 2706TIP3   OH229608   1.828   4.374  11.118  0.2683  0.7419 -1.2220
 2706TIP3    H129609   1.846   4.439  11.051 -1.6940  2.8553  0.2420
 2706TIP3    H229610   1.904   4.377  11.176  0.7185  0.8632 -1.8170
 2707TIP3   OH229611   0.414   0.060   0.158  0.7347 -0.1476 -0.1584
 2707TIP3    H129612   0.351   0.041   0.089 -0.2491  1.9579  0.1223
 2707TIP3    H229613   0.499   0.043   0.118  0.0287 -3.8403 -0.2791
 2708TIP3   OH229614   6.559   1.183  13.319  0.3584 -0.1668  0.2656
 2708TIP3    H129615   6.524   1.146  13.237  0.1832 -2.3479  1.3065
 2708TIP3    H229616   6.654   1.181  13.308  0.3141  1.2308 -0.5845
 2709TIP3   OH229617   2.886   3.364  14.150  0.6289  0.2439  0.4231
 2709TIP3    H129618   2.886   3.400  14.061  1.7118 -0.1411  0.2604
 2709TIP3    H229619   2.834   3.426  14.201  1.6944  1.5583 -0.0524
 2710TIP3   OH229620   2.713   4.934  13.984 -0.3693 -0.4791  0.5249
 2710TIP3    H129621   2.695   4.841  13.970 -1.8786 -0.3242  1.3452
 2710TIP3    H229622   2.806   4.938  14.007 -0.4592 -1.8412  1.1073
 2711TIP3   OH229623   5.089   0.045  14.441  0.5779  0.4468  0.5096
 2711TIP3    H129624   5.161   0.102  14.469 -0.8106  2.6164 -0.2023
 2711TIP3    H229625   5.090   0.051  14.346  0.6925 -1.1202  0.3960
 2712TIP3   OH229626   0.998   0.782  15.401 -0.1610 -0.2324  0.4920
 2712TIP3    H129627   0.945   0.726  15.345 -0.3494  0.4201  0.0124
 2712TIP3    H229628   0.935   0.824  15.459 -0.3255  1.4835 -0.8928
 2713TIP3   OH229629   1.122   4.205   2.028 -0.0089  0.2767 -0.5802
 2713TIP3    H129630   1.164   4.126   2.060  1.5397  1.1282 -0.4629
 2713TIP3    H229631   1.194   4.258   1.994 -0.9083  2.0375  0.2063
 2714TIP3   OH229632   5.834   2.980  17.212  0.1097  0.0858 -0.4597
 2714TIP3    H129633   5.753   2.987  17.263  0.6634  0.7363  0.3355
 2714TIP3    H229634   5.868   3.069  17.207  0.3987 -0.0689 -1.4265
 2715TIP3   OH229635   4.406   3.315  13.718 -0.1450  0.1455 -0.3247
 2715TIP3    H129636   4.471   3.286  13.781 -0.1866  1.0859  0.1568
 2715TIP3    H229637   4.378   3.235  13.673 -1.6972 -0.8717  2.3198
 2716TIP3   OH229638   3.541   0.732  15.099 -0.1754 -0.2069 -0.0340
 2716TIP3    H129639   3.474   0.798  15.117 -0.6555 -0.9524  1.0235
 2716TIP3    H229640   3.492   0.656  15.066  0.4353  0.1816 -1.8867
 2717TIP3   OH229641   0.883   0.682  16.111  0.1161 -0.0560 -0.0145
 2717TIP3    H129642   0.815   0.624  16.076  1.4281 -0.7710 -1.4502
 2717TIP3    H229643   0.964   0.632  16.102  0.7797  0.5410  2.2536
 2718TIP3   OH229644   1.912   5.279   5.018 -0.2775  0.2645  0.5722
 2718TIP3    H129645   1.890   5.189   5.040  0.0483  0.5741  2.2404
 2718TIP3    H229646   1.862   5.332   5.080  0.1471  1.2046  0.1246
 2719TIP3   OH229647   0.810   0.265  11.920 -0.5897 -0.3251 -0.2287
 2719TIP3    H129648   0.855   0.191  11.878 -0.9005  0.7686 -2.5655
 2719TIP3    H229649   0.816   0.336  11.856 -1.4877  1.2632  1.4228
 2720TIP3   OH229650   1.648   4.924   5.347 -0.0246  0.4318 -0.1416
 2720TIP3    H129651   1.589   4.848   5.346  2.0764 -1.2452 -1.6363
 2720TIP3    H229652   1.684   4.926   5.435  0.4363 -0.7508 -0.2950
 2721TIP3   OH229653   5.069   1.393  15.444  0.5095 -0.7616 -0.3189
 2721TIP3    H129654   5.140   1.435  15.492  0.6280 -2.1018  0.7080
 2721TIP3    H229655   4.991   1.410  15.497  0.2270 -0.2184 -0.8928
 2722TIP3   OH229656   1.013   2.056   1.853  0.2873 -0.2930  0.0050
 2722TIP3    H129657   0.999   2.126   1.789  2.0106 -0.0614 -0.1439
 2722TIP3    H229658   1.080   2.001   1.813  0.5512 -0.7861  1.1210
 2723TIP3   OH229659   4.301   2.269  16.713  0.1309  0.3142  0.5085
 2723TIP3    H129660   4.275   2.313  16.795  0.3953 -0.6499  1.1087
 2723TIP3    H229661   4.249   2.313  16.646  0.9556  2.0891  0.9917
 2724TIP3   OH229662   4.413   4.213  12.718 -0.3582 -0.4844  0.7293
 2724TIP3    H129663   4.444   4.271  12.648 -0.0772  2.3152  3.0684
 2724TIP3    H229664   4.488   4.157  12.736  0.0220 -0.3319 -0.3185
 2725TIP3   OH229665   0.817   0.567   1.112 -0.4009  0.7165  0.2083
 2725TIP3    H129666   0.876   0.639   1.088 -1.8715  2.1298  0.7654
 2725TIP3    H229667   0.780   0.593   1.196 -0.0749 -1.2544  0.9760
 2726TIP3   OH229668   1.890   1.207  15.737 -0.1986  0.0999  0.1895
 2726TIP3    H129669   1.948   1.259  15.681 -0.7372 -0.0396 -0.4994
 2726TIP3    H229670   1.942   1.130  15.760  0.0541  0.1987 -0.0507
 2727TIP3   OH229671   2.398   3.360   0.365  0.0160 -0.5583  0.1845
 2727TIP3    H129672   2.357   3.286   0.319  1.8037 -1.1472 -0.5104
 2727TIP3    H229673   2.349   3.436   0.336 -2.0718 -1.4972  1.1649
 2728TIP3   OH229674   5.617   0.343  14.223 -0.0150  0.1953 -0.1763
 2728TIP3    H129675   5.648   0.253  14.211 -1.2530 -0.4744  1.4779
 2728TIP3    H229676   5.521   0.335  14.226 -0.1102  1.4906  0.4829
 2729TIP3   OH229677   3.578   6.234  15.403  0.1739  0.2609  0.3862
 2729TIP3    H129678   3.544   6.261  15.489  0.5567  0.3066  0.5264
 2729TIP3    H229679   3.650   6.175  15.424 -0.6537 -0.8620  0.0778
 2730TIP3   OH229680   0.965   4.421   0.679 -0.0598 -0.2694  0.4415
 2730TIP3    H129681   0.982   4.399   0.771  0.0300 -0.9165  0.2714
 2730TIP3    H229682   0.883   4.378   0.658 -0.0401 -0.1871  0.1906
 2731TIP3   OH229683   1.266   5.269  14.164 -0.3077 -0.0081 -0.5889
 2731TIP3    H129684   1.230   5.346  14.119 -0.3581  0.1504 -0.2722
 2731TIP3    H229685   1.353   5.258  14.124 -0.5720 -0.1981 -1.1188
 2732TIP3   OH229686   6.290   3.565   5.629  0.3339  0.0331 -0.2643
 2732TIP3    H129687   6.373   3.533   5.595 -0.0334 -1.7639  0.5064
 2732TIP3    H229688   6.304   3.572   5.724 -0.1278  0.5421 -0.2259
 2733TIP3   OH229689   4.354   6.042   0.339 -1.2332 -0.1926  0.8680
 2733TIP3    H129690   4.428   6.018   0.284 -2.4937 -0.3970 -0.8056
 2733TIP3    H229691   4.393   6.075   0.420  0.6584 -0.3407  0.0432
 2734TIP3   OH229692   2.429   1.486  13.844  0.9521  0.3130  0.6197
 2734TIP3    H129693   2.506   1.467  13.898  1.0132 -0.3550  0.3056
 2734TIP3    H229694   2.457   1.467  13.755  0.5003  0.3249  0.4749
 2735TIP3   OH229695   5.414   0.773   0.815  0.1463 -0.2036  0.9561
 2735TIP3    H129696   5.331   0.766   0.862  0.5714 -0.1774  1.7089
 2735TIP3    H229697   5.408   0.856   0.768 -0.1734 -0.1118  1.1566
 2736TIP3   OH229698   1.449   2.386   1.113  0.2412 -0.2829  0.4213
 2736TIP3    H129699   1.464   2.443   1.189 -1.8830 -1.6161  1.8749
 2736TIP3    H229700   1.417   2.446   1.045  0.9399  0.7287  0.9662
 2737TIP3   OH229701   3.493   3.561   5.452  0.5727 -0.3031  0.0236
 2737TIP3    H129702   3.511   3.605   5.535  1.6612 -0.2843 -0.2062
 2737TIP3    H229703   3.490   3.468   5.475 -0.2633 -0.2203  0.2655
 2738TIP3   OH229704   2.690   5.768   5.231 -0.3379  0.7099 -0.5971
 2738TIP3    H129705   2.637   5.747   5.155  0.7295 -1.0458 -0.8823
 2738TIP3    H229706   2.747   5.839   5.202  0.1745 -0.0572 -1.4937
 2739TIP3   OH229707   1.514   1.307  15.319 -0.2529  1.0339 -0.1742
 2739TIP3    H129708   1.563   1.382  15.285 -1.8857  2.1751 -0.0543
 2739TIP3    H229709   1.582   1.250  15.356  0.9421  2.8545  0.5331
 2740TIP3   OH229710   5.276   4.351   4.738 -0.2094 -0.1289  0.4068
 2740TIP3    H129711   5.228   4.433   4.726  1.3261  0.7996  0.4705
 2740TIP3    H229712   5.322   4.338   4.655  0.0258 -0.6126  0.6137
 2741TIP3   OH229713   1.447   5.896   2.277 -0.4460 -0.2735 -0.3068
 2741TIP3    H129714   1.383   5.915   2.208  0.6083 -0.4185 -1.3299
 2741TIP3    H229715   1.484   5.981   2.299  0.5338 -0.4461 -1.2276
 2742TIP3   OH229716   6.253   1.950  12.532  0.9604 -0.0541 -0.1359
 2742TIP3    H129717   6.299   1.889  12.590  0.7745  0.0259  0.1032
 2742TIP3    H229718   6.305   1.954  12.453 -0.7359 -3.0628 -1.4591
 2743TIP3   OH229719   1.129   1.357   1.498  0.2582 -0.4008 -0.3709
 2743TIP3    H129720   1.139   1.452   1.493 -0.9600 -0.2200  0.2741
 2743TIP3    H229721   1.147   1.336   1.590 -2.5786 -0.3606  0.2497
 2744TIP3   OH229722   2.510   2.914  12.581 -0.2462  0.4499  0.2352
 2744TIP3    H129723   2.445   2.984  12.577  0.7865  1.3921 -0.3616
 2744TIP3    H229724   2.494   2.872  12.665 -1.3291  0.9557  0.2970
 2745TIP3   OH229725   3.114   3.093   4.417  0.3806 -0.1855 -0.0765
 2745TIP3    H129726   3.045   3.127   4.360  0.1892  1.2229  0.9762
 2745TIP3    H229727   3.194   3.098   4.364  0.0435  0.2123 -0.5468
 2746TIP3   OH229728   3.304   3.025   3.620 -0.4681  0.1813  0.1924
 2746TIP3    H129729   3.232   3.060   3.567 -0.3045  0.6835  0.3018
 2746TIP3    H229730   3.314   3.089   3.691 -0.1145 -0.0455  0.3451
 2747TIP3   OH229731   3.217   0.047   0.378  0.2291  0.0147  0.5414
 2747TIP3    H129732   3.163   0.038   0.457  0.8693 -0.9342  0.8783
 2747TIP3    H229733   3.209   0.139   0.353  0.7869  0.5374  2.2601
 2748TIP3   OH229734   6.584   6.417  15.351  0.0131  0.0664  0.1857
 2748TIP3    H129735   6.640   6.399  15.275 -1.6540 -2.1088 -0.5824
 2748TIP3    H229736   6.536   6.496  15.328 -0.2437 -0.3956 -0.8873
 2749TIP3   OH229737   1.940   0.651  13.393  1.0360  0.5801  0.0613
 2749TIP3    H129738   1.991   0.730  13.411  0.3420  1.1076 -0.2645
 2749TIP3    H229739   1.857   0.683  13.357  1.2361 -0.3321 -1.2781
 2750TIP3   OH229740   6.075   4.248   1.581 -0.5502  0.3889 -0.6325
 2750TIP3    H129741   6.089   4.185   1.651  1.2028  1.0029 -0.3997
 2750TIP3    H229742   6.155   4.302   1.581  0.1424 -0.5303 -4.0512
 2751TIP3   OH229743   5.142   1.402   3.567 -0.0344 -0.4034 -0.0576
 2751TIP3    H129744   5.217   1.462   3.572  0.7880 -1.5262  1.4858
 2751TIP3    H229745   5.175   1.329   3.514 -1.0455  0.4871 -1.9630
 2752TIP3   OH229746   3.358   1.405   0.595 -0.0873 -0.1465 -0.1243
 2752TIP3    H129747   3.424   1.356   0.545 -1.5153 -1.2369 -0.9575
 2752TIP3    H229748   3.280   1.350   0.593 -0.4764  0.2215  2.5201
 2753TIP3   OH229749   3.121   1.161   0.324  0.1524 -0.1787 -0.2483
 2753TIP3    H129750   3.212   1.157   0.294  0.1077 -1.3643 -0.2552
 2753TIP3    H229751   3.072   1.192   0.247  0.3823 -0.7624 -0.6366
 2754TIP3   OH229752   3.757   1.181  14.697  0.5879  0.1788  0.6136
 2754TIP3    H129753   3.838   1.139  14.726  0.5679 -0.4077 -0.1712
 2754TIP3    H229754   3.749   1.258  14.753  2.6915  1.2997 -0.5540
 2755TIP3   OH229755   6.470   4.749   5.343 -0.4350  0.3985 -0.6416
 2755TIP3    H129756   6.493   4.657   5.353  0.4145  0.6388 -0.3691
 2755TIP3    H229757   6.489   4.769   5.251 -1.9772 -0.0643 -1.0836
 2756TIP3   OH229758   0.861   2.435  11.414  0.6093  0.3567 -0.2916
 2756TIP3    H129759   0.777   2.419  11.457  1.1669  0.5132  0.8481
 2756TIP3    H229760   0.839   2.493  11.341 -0.0529  1.6492  0.9071
 2757TIP3   OH229761   5.853   6.155   0.781  0.1380  0.0555 -0.1350
 2757TIP3    H129762   5.801   6.098   0.724  0.1918 -0.4603  0.3369
 2757TIP3    H229763   5.870   6.103   0.859  0.4578  0.6045  0.1635
 2758TIP3   OH229764   4.463   5.690   4.458  0.3008 -0.6879 -0.3830
 2758TIP3    H129765   4.530   5.650   4.403 -0.2920 -2.0930 -0.0901
 2758TIP3    H229766   4.498   5.777   4.478  1.1261 -0.6730 -1.8560
 2759TIP3   OH229767   2.392   0.555   3.411 -0.7466  0.1746 -0.0385
 2759TIP3    H129768   2.439   0.471   3.406  0.7835  0.9790  0.4956
 2759TIP3    H229769   2.429   0.607   3.340 -0.2805  1.0779  0.8523
 2760TIP3   OH229770   5.195   1.143  11.520 -0.4728 -0.8864 -0.2092
 2760TIP3    H129771   5.222   1.169  11.609  0.0666  0.7724 -0.8246
 2760TIP3    H229772   5.276   1.112  11.479 -0.5964 -1.0535 -0.3252
 2761TIP3   OH229773   4.919   5.540  13.300 -0.4291  0.7371 -0.4931
 2761TIP3    H129774   4.845   5.530  13.241  0.4705 -0.5130 -1.4481
 2761TIP3    H229775   4.958   5.624  13.276 -0.2095  0.3480 -1.5188
 2762TIP3   OH229776   0.615   4.035  15.763 -0.4157  0.0809  0.0468
 2762TIP3    H129777   0.532   4.006  15.801 -0.9490 -0.6143 -1.5861
 2762TIP3    H229778   0.669   3.957  15.760  0.8539  0.8218  2.4144
 2763TIP3   OH229779   3.789   6.763  14.353  0.5247 -0.0547  0.4955
 2763TIP3    H129780   3.823   6.808  14.431 -0.2665  1.1434  0.1601
 2763TIP3    H229781   3.784   6.831  14.286 -2.5987 -0.1623  0.5648
 2764TIP3   OH229782   0.357   0.449  16.933 -0.8139  0.0098 -0.4946
 2764TIP3    H129783   0.402   0.392  16.995 -0.5191 -1.1030 -1.6870
 2764TIP3    H229784   0.420   0.459  16.861 -2.0044 -0.6269 -1.6575
 2765TIP3   OH229785   3.124   4.661  12.334  0.1266 -0.1992  0.6788
 2765TIP3    H129786   3.070   4.715  12.392 -0.4417 -0.2049  0.1521
 2765TIP3    H229787   3.076   4.660  12.251  0.8082 -0.4170  0.2927
 2766TIP3   OH229788   4.265   2.034   2.665  0.0952  0.3122 -0.1137
 2766TIP3    H129789   4.347   1.986   2.656  1.3000  1.9113  1.6859
 2766TIP3    H229790   4.236   2.014   2.754 -1.1075  0.3059 -0.5049
 2767TIP3   OH229791   4.544   1.260  16.080 -0.3738  0.0520  0.4105
 2767TIP3    H129792   4.629   1.281  16.040  0.1080  0.1460  1.4595
 2767TIP3    H229793   4.505   1.346  16.097 -0.5406  0.0136  0.2186
 2768TIP3   OH229794   2.639   1.381  12.520 -0.0530  0.4491 -0.3958
 2768TIP3    H129795   2.676   1.296  12.497  0.0164  0.3659  0.0168
 2768TIP3    H229796   2.640   1.382  12.616 -2.0631  0.0164 -0.3526
 2769TIP3   OH229797   0.521   4.153   0.882 -0.0799  0.2767  0.9420
 2769TIP3    H129798   0.584   4.083   0.902 -0.8716 -0.7270  0.0335
 2769TIP3    H229799   0.506   4.144   0.787 -0.0630  1.7944  0.7947
 2770TIP3   OH229800   4.666   5.505  14.561  0.2769  0.2154 -0.2995
 2770TIP3    H129801   4.744   5.558  14.542  1.5109 -0.5322  2.3592
 2770TIP3    H229802   4.596   5.569  14.572  0.6108  0.9435 -2.1108
 2771TIP3   OH229803   5.849   1.638   3.071 -0.5683  0.1444  0.1561
 2771TIP3    H129804   5.786   1.708   3.053  1.2388  2.1936  1.6314
 2771TIP3    H229805   5.911   1.643   2.999 -0.4360  0.0482  0.2648
 2772TIP3   OH229806   0.293   2.235  12.380 -0.8330 -0.3387 -0.3993
 2772TIP3    H129807   0.334   2.218  12.295  0.4019  0.4114  0.0279
 2772TIP3    H229808   0.337   2.314  12.412 -1.1111 -0.7575  1.0469
 2773TIP3   OH229809   4.054   5.180  11.409 -0.1152  0.2716  0.1046
 2773TIP3    H129810   4.036   5.199  11.317 -1.5656 -0.9544  0.1159
 2773TIP3    H229811   3.974   5.204  11.455 -0.0115 -0.7143  0.8202
 2774TIP3   OH229812   4.178   5.028   0.152  0.3384  0.3612 -0.1845
 2774TIP3    H129813   4.146   5.003   0.065  0.2036 -0.3306  0.0696
 2774TIP3    H229814   4.163   4.952   0.207 -1.4320  1.4767  0.9524
 2775TIP3   OH229815   4.039   3.911   1.404  0.0363  0.0944  0.1981
 2775TIP3    H129816   4.016   3.821   1.425  1.7387 -0.5893 -0.7421
 2775TIP3    H229817   4.132   3.908   1.382  0.2793  2.1888  0.7408
 2776TIP3   OH229818   2.660   3.849  17.171 -1.0660 -0.2687  0.0377
 2776TIP3    H129819   2.726   3.805  17.118 -1.0447 -1.6512  1.1853
 2776TIP3    H229820   2.707   3.878  17.249 -1.8605 -1.6147  1.0488
 2777TIP3   OH229821   0.640   4.103   2.353 -0.3642 -0.0532  0.3412
 2777TIP3    H129822   0.609   4.025   2.398 -2.3565  1.3439  1.4844
 2777TIP3    H229823   0.590   4.107   2.272  0.1612 -0.2606 -0.0002
 2778TIP3   OH229824   2.431   2.326   5.395  0.4065 -0.2454  0.2205
 2778TIP3    H129825   2.432   2.275   5.314 -1.4306 -0.5777  0.3717
 2778TIP3    H229826   2.509   2.297   5.443  0.0957 -1.9775 -0.2826
 2779TIP3   OH229827   3.035   5.749  14.218 -0.0114  0.0047  0.4274
 2779TIP3    H129828   3.094   5.702  14.277 -0.3800  0.6242  1.2971
 2779TIP3    H229829   2.973   5.683  14.187  0.5945 -0.4633  0.1990
 2780TIP3   OH229830   4.118   4.562   5.577 -0.1776 -0.0586  0.5616
 2780TIP3    H129831   4.103   4.624   5.505 -1.4365 -0.3595  0.5573
 2780TIP3    H229832   4.158   4.616   5.646  0.1985  0.4240 -0.0255
 2781TIP3   OH229833   6.280   2.624   0.775 -1.0129 -1.0010 -0.9782
 2781TIP3    H129834   6.205   2.627   0.833 -0.1427  0.4608  0.1033
 2781TIP3    H229835   6.308   2.532   0.775 -2.5632 -1.4783 -1.1229
 2782TIP3   OH229836   1.029   1.004  14.654 -0.7821  0.4706 -0.0306
 2782TIP3    H129837   1.120   0.974  14.658 -1.3198 -1.4430 -1.3955
 2782TIP3    H229838   0.978   0.924  14.645 -2.4414  1.6648 -1.6125
 2783TIP3   OH229839   4.645   4.431  14.004 -0.1673 -0.7348  0.3553
 2783TIP3    H129840   4.638   4.366  13.934 -1.3737 -0.3440  0.1072
 2783TIP3    H229841   4.581   4.498  13.981  0.4736  0.1312  1.0603
 2784TIP3   OH229842   4.531   6.295  14.932  0.3721 -0.4779  0.1608
 2784TIP3    H129843   4.619   6.320  14.962 -0.4580 -0.0807  2.3478
 2784TIP3    H229844   4.497   6.373  14.889  0.4430 -0.0862  0.8116
 2785TIP3   OH229845   2.508   1.409  16.769 -0.6218 -0.1752 -0.8099
 2785TIP3    H129846   2.579   1.407  16.705  0.7558 -1.2259  0.7087
 2785TIP3    H229847   2.515   1.495  16.809  1.2777 -1.0786  0.9099
 2786TIP3   OH229848   2.194   1.367  16.314  0.3051  0.5321  0.1870
 2786TIP3    H129849   2.145   1.372  16.232  1.4982  1.7815 -0.4704
 2786TIP3    H229850   2.281   1.337  16.288 -0.1223 -1.9142  1.3712
 2787TIP3   OH229851   1.330   5.650   6.603  0.4220  0.4822 -0.9421
 2787TIP3    H129852   1.410   5.636   6.654 -0.1908 -0.2612 -0.1688
 2787TIP3    H229853   1.268   5.586   6.637 -1.7730  3.5749  1.1960
 2788TIP3   OH229854   0.569   6.203  10.434 -0.6256 -0.3603  0.4767
 2788TIP3    H129855   0.662   6.195  10.455 -0.1149  1.9913 -0.6335
 2788TIP3    H229856   0.527   6.227  10.517  0.1621  1.0193  0.4955
 2789TIP3   OH229857   1.439   3.775   3.443  0.5283 -0.3400 -0.6424
 2789TIP3    H129858   1.351   3.780   3.406  0.9978  0.0541 -1.7493
 2789TIP3    H229859   1.428   3.731   3.527 -0.7826  0.1153 -0.5680
 2790TIP3   OH229860   5.878   3.941   4.868  0.5765 -0.3715 -0.3128
 2790TIP3    H129861   5.954   3.885   4.853  0.1577 -0.9656 -0.2088
 2790TIP3    H229862   5.916   4.027   4.887  1.2405 -0.8573  0.5878
 2791TIP3   OH229863   3.859   5.490  17.221  0.0038  0.0156 -0.2226
 2791TIP3    H129864   3.901   5.568  17.185 -1.2690  1.0128  0.3981
 2791TIP3    H229865   3.915   5.418  17.194  0.4963  1.0055 -1.9287
 2792TIP3   OH229866   2.685   4.729  11.378  0.0243 -0.0489  0.2193
 2792TIP3    H129867   2.764   4.782  11.381 -1.9932  3.1858 -1.6126
 2792TIP3    H229868   2.672   4.709  11.286 -0.3276 -2.1565  0.6899
 2793TIP3   OH229869   2.060   0.775   4.089 -0.4120 -0.0339  0.3142
 2793TIP3    H129870   1.970   0.743   4.087  0.4361 -2.5591 -2.2476
 2793TIP3    H229871   2.113   0.695   4.086  1.8817  1.4694 -0.3036
 2794TIP3   OH229872   4.672   5.993  12.248 -0.1173 -0.1620 -0.2801
 2794TIP3    H129873   4.605   5.965  12.185 -1.4242 -0.8865  1.3701
 2794TIP3    H229874   4.699   6.080  12.218 -0.7304 -0.4921 -1.8175
 2795TIP3   OH229875   1.725   0.650   1.972  0.7106  0.1665  0.0385
 2795TIP3    H129876   1.673   0.570   1.980  1.1416 -0.0461  0.6890
 2795TIP3    H229877   1.662   0.716   1.941 -0.3611  0.3402  2.4944
 2796TIP3   OH229878   2.055   3.682   1.018 -0.1439 -0.2855 -0.0637
 2796TIP3    H129879   2.058   3.744   0.945 -1.3550  0.2481  0.3378
 2796TIP3    H229880   2.072   3.735   1.096 -0.6001 -0.5593  0.2213
 2797TIP3   OH229881   3.849   1.739   0.084  0.5711  0.2996  0.7980
 2797TIP3    H129882   3.877   1.699   0.166 -1.5904  0.5814  1.7134
 2797TIP3    H229883   3.754   1.748   0.093  0.4619  1.4896 -1.2294
 2798TIP3   OH229884   5.961   3.795   0.371 -0.0935 -0.2713  0.5038
 2798TIP3    H129885   6.025   3.768   0.437  1.0590  0.9552 -0.0820
 2798TIP3    H229886   5.999   3.874   0.332 -2.1476  0.6748  0.3758
 2799TIP3   OH229887   5.951   5.381  14.605  0.1906 -0.0276  0.0446
 2799TIP3    H129888   5.977   5.403  14.515  0.0150  3.0508  0.6871
 2799TIP3    H229889   5.871   5.431  14.620 -0.0866 -0.9448  1.7372
 2800TIP3   OH229890   6.190   5.915  16.814  0.4690  0.3877  0.2607
 2800TIP3    H129891   6.184   5.914  16.910 -0.3443 -0.8310  0.2103
 2800TIP3    H229892   6.193   6.007  16.791  1.6958  0.6792  1.5255
 2801TIP3   OH229893   5.851   2.558   5.882 -0.4062  0.5410  0.6749
 2801TIP3    H129894   5.855   2.547   5.977 -2.0397 -0.1665  0.6802
 2801TIP3    H229895   5.758   2.549   5.861  0.1174 -0.8239 -1.1753
 2802TIP3   OH229896   5.881   1.538  13.030 -0.1389 -0.4475 -0.4079
 2802TIP3    H129897   5.857   1.544  13.122 -0.2092 -1.2260 -0.3762
 2802TIP3    H229898   5.809   1.582  12.983  0.6715  1.3708  0.0092
 2803TIP3   OH229899   4.981   2.082  11.557  0.1631  0.2152 -0.7738
 2803TIP3    H129900   5.021   2.010  11.508 -2.2094 -1.7934  0.1480
 2803TIP3    H229901   5.055   2.122  11.604  1.2652 -2.9276  0.3383
 2804TIP3   OH229902   3.374   5.040   3.272  0.0328 -0.3209 -0.3943
 2804TIP3    H129903   3.291   5.010   3.235  1.1420 -1.2874 -2.1160
 2804TIP3    H229904   3.350   5.119   3.321 -1.7402 -0.0208 -1.6956
 2805TIP3   OH229905   2.541   1.505  15.047 -0.5421  0.3112 -0.1290
 2805TIP3    H129906   2.555   1.472  14.958  1.5207  2.7132 -0.7574
 2805TIP3    H229907   2.460   1.555  15.041 -1.8656 -1.7350  0.0368
 2806TIP3   OH229908   5.170   0.340   4.988  0.3572 -0.1951 -0.1657
 2806TIP3    H129909   5.199   0.391   5.063 -2.0455 -0.0456  0.7094
 2806TIP3    H229910   5.075   0.333   4.999  0.0626 -0.8681 -2.7576
 2807TIP3   OH229911   5.346   0.200   2.233 -0.4278  0.0508 -0.1954
 2807TIP3    H129912   5.267   0.161   2.196  0.5016 -1.2440 -0.8724
 2807TIP3    H229913   5.320   0.231   2.319 -1.7394 -0.1163 -0.5259
 2808TIP3   OH229914   2.155   4.661   2.450 -0.2498 -0.2516  0.0131
 2808TIP3    H129915   2.188   4.688   2.364  0.4212 -0.3140  0.2455
 2808TIP3    H229916   2.197   4.722   2.511  0.5312 -1.2127  0.4532
 2809TIP3   OH229917   3.375   1.178  14.276  0.2447 -0.1203 -0.6929
 2809TIP3    H129918   3.297   1.232  14.264  1.1991  2.0694  2.5043
 2809TIP3    H229919   3.349   1.112  14.340  1.2336  1.1200  1.0058
 2810TIP3   OH229920   6.331   1.158   1.029  0.2980 -0.5525 -0.4196
 2810TIP3    H129921   6.384   1.097   0.977 -0.8343 -0.3665 -1.8129
 2810TIP3    H229922   6.330   1.120   1.117  2.1094 -0.9552 -0.5498
 2811TIP3   OH229923   2.633   0.115  11.177 -0.3330  0.2111  0.2596
 2811TIP3    H129924   2.551   0.142  11.218 -0.1517  0.7475  0.2723
 2811TIP3    H229925   2.648   0.179  11.107  1.2731  1.5102  1.7561
 2812TIP3   OH229926   3.979   5.676  12.398 -0.1624  0.3909 -0.8456
 2812TIP3    H129927   3.944   5.763  12.418 -0.7982  0.2404 -1.2952
 2812TIP3    H229928   4.050   5.663  12.462 -1.5745  0.2924  0.7411
 2813TIP3   OH229929   1.977   0.592   1.216 -0.6022  0.2517 -0.2824
 2813TIP3    H129930   2.048   0.558   1.271  0.0467 -0.5127 -1.5502
 2813TIP3    H229931   2.014   0.670   1.174 -1.0966  0.8375  0.3622
 2814TIP3   OH229932   5.506   1.664   2.328 -0.0729 -0.5179 -0.2158
 2814TIP3    H129933   5.448   1.630   2.396 -1.4861 -0.5750 -1.4080
 2814TIP3    H229934   5.464   1.638   2.246  0.6212  1.1337 -1.1313
 2815TIP3   OH229935   3.140   3.305  14.188  0.3879 -0.6869  0.5208
 2815TIP3    H129936   3.188   3.380  14.224  0.6632  0.1406 -1.5499
 2815TIP3    H229937   3.048   3.331  14.194  0.4651 -0.3090  0.0917
 2816TIP3   OH229938   4.528   3.178  16.789 -0.3047  0.0120  0.2060
 2816TIP3    H129939   4.459   3.161  16.725  0.1803 -3.0083  0.4127
 2816TIP3    H229940   4.544   3.272  16.783 -2.1157  0.2028 -2.2074
 2817TIP3   OH229941   5.104   6.644  16.522  0.4342  0.0866  0.2805
 2817TIP3    H129942   5.182   6.686  16.558  1.4964 -0.9890 -0.7715
 2817TIP3    H229943   5.077   6.701  16.450  2.2510 -1.3112 -1.5650
 2818TIP3   OH229944   6.699   0.337  15.783  0.5190 -0.0158 -0.0465
 2818TIP3    H129945   6.722   0.279  15.856 -1.0110  0.0644  0.5266
 2818TIP3    H229946   6.740   0.297  15.706 -1.4083 -2.5080  0.1494
 2819TIP3   OH229947   6.396   5.662   1.465 -0.1058  0.3539 -0.1551
 2819TIP3    H129948   6.301   5.655   1.464 -0.2059  1.3124  1.7797
 2819TIP3    H229949   6.425   5.589   1.520  0.2421  0.4359 -0.2250
 2820TIP3   OH229950   6.277   3.970   2.921  0.0268 -0.0622 -0.3676
 2820TIP3    H129951   6.291   3.972   2.827 -1.6107 -0.2305 -0.6408
 2820TIP3    H229952   6.256   3.879   2.940 -0.0615  0.0531  0.0946
 2821TIP3   OH229953   3.485   5.735  14.475  0.2132  0.3144 -0.5565
 2821TIP3    H129954   3.514   5.826  14.482 -0.0781  0.3384  0.4537
 2821TIP3    H229955   3.443   5.717  14.559 -2.3730  0.1904 -1.8113
 2822TIP3   OH229956   4.396   5.313  14.341  0.1092 -0.2029 -0.1606
 2822TIP3    H129957   4.333   5.377  14.375  0.5626 -0.5435  1.3606
 2822TIP3    H229958   4.418   5.345  14.254 -0.8430  0.8769 -0.0122
 2823TIP3   OH229959   1.674   0.987  13.792  0.3322  0.2867 -0.2143
 2823TIP3    H129960   1.578   0.983  13.788  0.2463  0.5840  1.3447
 2823TIP3    H229961   1.693   1.080  13.803  0.7692  0.1229  0.3906
 2824TIP3   OH229962   1.434   0.770  11.979 -0.6859  0.3913  0.4123
 2824TIP3    H129963   1.445   0.689  11.929  2.3437  1.1926 -0.3409
 2824TIP3    H229964   1.347   0.763  12.018  0.8684 -4.9373  3.4539
 2825TIP3   OH229965   4.268   1.151   2.474  0.0355  0.0806  0.1757
 2825TIP3    H129966   4.265   1.228   2.417  2.3206  0.6635  0.7982
 2825TIP3    H229967   4.320   1.178   2.549 -1.5409 -1.2133  1.7991
 2826TIP3   OH229968   0.211   2.383   0.708  0.3955 -0.2741 -0.1120
 2826TIP3    H129969   0.240   2.340   0.789  0.1276 -0.6229 -0.1989
 2826TIP3    H229970   0.115   2.382   0.714  0.3399 -1.2254 -0.9062
 2827TIP3   OH229971   4.065   4.709  12.368  0.4040  0.5429 -0.3611
 2827TIP3    H129972   4.111   4.716  12.284 -1.2814 -0.5942 -1.4207
 2827TIP3    H229973   3.993   4.771  12.361 -0.5723 -0.5541 -0.3528
 2828TIP3   OH229974   5.379   3.012   0.498 -0.2908 -0.3470  0.0888
 2828TIP3    H129975   5.318   2.993   0.428  0.1388 -1.4418 -0.0069
 2828TIP3    H229976   5.337   2.976   0.577 -0.4599  0.2602  0.2758
 2829TIP3   OH229977   2.528   4.923   3.461  0.0045  0.3330  0.0574
 2829TIP3    H129978   2.602   4.922   3.400 -0.8090  1.8326 -0.9749
 2829TIP3    H229979   2.564   4.958   3.542  0.8026 -0.4889  0.0668
 2830TIP3   OH229980   0.846   4.816   1.528 -0.5512 -0.1177  0.2515
 2830TIP3    H129981   0.929   4.846   1.491 -1.0537  1.5285  0.4302
 2830TIP3    H229982   0.862   4.810   1.622  0.6179 -3.9537 -0.1060
 2831TIP3   OH229983   6.698   4.413  11.486  0.4739 -0.0078 -0.7398
 2831TIP3    H129984   6.704   4.341  11.423  0.7208 -1.1104  0.5151
 2831TIP3    H229985   6.630   4.471  11.450 -0.1291 -1.1566 -1.4879
 2832TIP3   OH229986   0.713   4.987  13.633 -0.7383  0.7406 -0.3040
 2832TIP3    H129987   0.704   4.895  13.605 -0.1026  0.5534  0.1161
 2832TIP3    H229988   0.673   4.989  13.720 -0.0785  0.7060 -0.0022
 2833TIP3   OH229989   1.197   3.516   2.890 -0.1943  0.0039  0.3605
 2833TIP3    H129990   1.213   3.433   2.933 -0.8732  0.4054  1.4022
 2833TIP3    H229991   1.109   3.508   2.853 -0.1486  0.1517  0.2180
 2834TIP3   OH229992   4.885   2.991   0.992  0.3272  0.2408  0.3207
 2834TIP3    H129993   4.859   2.921   1.051 -1.4255 -0.4529 -1.2258
 2834TIP3    H229994   4.840   3.069   1.025  0.5846  0.1964  0.7859
 2835TIP3   OH229995   4.050   1.254  15.552 -0.0707  0.1337  0.2058
 2835TIP3    H129996   4.083   1.202  15.625  0.2227  0.5970  0.4069
 2835TIP3    H229997   4.011   1.331  15.594  0.9304  0.8602 -0.1676
 2836TIP3   OH229998   0.089   3.992   1.876 -0.3287 -0.3557  0.4886
 2836TIP3    H129999   0.156   4.031   1.819 -0.0736  0.9527  1.6549
 2836TIP3    H230000   0.009   4.042   1.857 -0.1836  0.2447  1.4544
 2837TIP3   OH230001   6.609   1.328  12.820 -0.3769 -0.4317 -0.9024
 2837TIP3    H130002   6.674   1.302  12.885 -1.4910  0.4870  0.6101
 2837TIP3    H230003   6.537   1.266  12.832 -0.2311 -0.8121 -1.8881
 2838TIP3   OH230004   0.788   5.234  14.717 -0.0921 -0.6708  0.7554
 2838TIP3    H130005   0.845   5.171  14.673  1.0666 -0.1730  1.5164
 2838TIP3    H230006   0.840   5.267  14.790 -0.8040  0.9427  0.5574
 2839TIP3   OH230007   3.351   3.753   4.121 -0.3618 -0.4888  0.6404
 2839TIP3    H130008   3.410   3.745   4.046  0.0901  0.1268  0.9273
 2839TIP3    H230009   3.404   3.728   4.196 -0.3504  0.4437  0.9466
 2840TIP3   OH230010   4.725   0.031  15.244  0.1590 -0.1830 -0.6192
 2840TIP3    H130011   4.707   0.063  15.332  0.0426 -0.6369 -0.4818
 2840TIP3    H230012   4.698   0.104  15.187 -1.2144 -0.4711 -0.3592
 2841TIP3   OH230013   2.560   4.586  16.809 -0.4440 -0.1216  0.1474
 2841TIP3    H130014   2.597   4.499  16.792 -0.2190 -0.4699  2.2217
 2841TIP3    H230015   2.622   4.647  16.768 -0.9563 -0.9638 -1.8828
 2842TIP3   OH230016   2.946   3.593   0.287  0.2099  0.4946  0.1157
 2842TIP3    H130017   2.963   3.687   0.281 -1.4574  0.7577 -0.7141
 2842TIP3    H230018   3.021   3.558   0.336  1.9598  1.9201 -1.4815
 2843TIP3   OH230019   1.775   3.358  16.027 -0.0368 -0.5718 -0.4024
 2843TIP3    H130020   1.792   3.393  15.939 -1.0630  0.5142 -0.1745
 2843TIP3    H230021   1.681   3.369  16.039  0.1197 -0.6037  0.9001
 2844TIP3   OH230022   4.814   1.444  15.538  0.2318 -0.0919  0.1158
 2844TIP3    H130023   4.739   1.414  15.589 -0.8353 -0.9257 -1.8865
 2844TIP3    H230024   4.798   1.538  15.526 -0.5808 -0.2982 -0.4434
 2845TIP3   OH230025   5.769   0.415  13.990 -0.5942 -0.4800  0.0349
 2845TIP3    H130026   5.819   0.496  14.004 -0.8997  0.0505 -1.7586
 2845TIP3    H230027   5.706   0.413  14.062 -1.1613  1.3389 -0.3859
 2846TIP3   OH230028   0.555   3.368  13.478  0.0062  0.2128  0.0891
 2846TIP3    H130029   0.532   3.277  13.492 -0.2642  0.3709  0.6733
 2846TIP3    H230030   0.651   3.369  13.473 -0.0701 -0.4216 -2.1611
 2847TIP3   OH230031   5.955   2.688  17.266 -0.0468 -0.4937  0.1138
 2847TIP3    H130032   5.950   2.651  17.177  1.4456  1.0024 -0.6151
 2847TIP3    H230033   5.878   2.745  17.272 -0.6081 -1.2402  0.0873
 2848TIP3   OH230034   5.312   4.675  15.380  0.3302  0.1433  0.4109
 2848TIP3    H130035   5.401   4.675  15.344  0.2552 -0.9995  0.1981
 2848TIP3    H230036   5.325   4.662  15.474  0.3450 -1.2631  0.2236
 2849TIP3   OH230037   3.126   4.459   4.282  0.4394 -0.4329  0.0351
 2849TIP3    H130038   3.172   4.375   4.292  0.8454 -0.0456  1.6300
 2849TIP3    H230039   3.034   4.437   4.295  0.3533 -0.8935 -1.2375
 2850TIP3   OH230040   1.685   4.386  17.089 -0.7296 -0.4684 -0.0045
 2850TIP3    H130041   1.602   4.430  17.108 -0.1258  1.3872 -1.5348
 2850TIP3    H230042   1.752   4.448  17.118  0.1302 -1.3515 -0.0742
 2851TIP3   OH230043   4.859   1.549   1.507 -0.0202 -0.4261  0.6281
 2851TIP3    H130044   4.767   1.548   1.535 -0.1655 -2.2373  0.1715
 2851TIP3    H230045   4.890   1.460   1.525  2.6544  1.0642  4.0173
 2852TIP3   OH230046   0.513   4.602  11.447 -0.1843  0.2493  0.3763
 2852TIP3    H130047   0.527   4.518  11.492  0.3696  1.5561  2.7419
 2852TIP3    H230048   0.436   4.639  11.489 -1.5643  0.1094 -1.9642
 2853TIP3   OH230049   4.201   6.146   6.620  0.4961 -0.0100  0.1632
 2853TIP3    H130050   4.218   6.177   6.709  0.3792  0.9865 -0.1568
 2853TIP3    H230051   4.115   6.105   6.624  0.0620  0.9062  0.2987
 2854TIP3   OH230052   4.116   0.934  15.390  0.2591  0.6164 -0.2427
 2854TIP3    H130053   4.134   0.841  15.401 -1.6836  0.1514 -0.7450
 2854TIP3    H230054   4.089   0.965  15.477 -1.0653  0.2368 -0.5109
 2855TIP3   OH230055   1.655   6.499  11.108  0.4892 -0.0919 -0.2684
 2855TIP3    H130056   1.587   6.561  11.137  0.9044  0.8017 -1.1533
 2855TIP3    H230057   1.736   6.533  11.144  0.5053 -1.0812  0.6630
 2856TIP3   OH230058   2.022   3.252  15.799  0.2612 -0.3138 -0.4680
 2856TIP3    H130059   2.041   3.237  15.706 -1.3279 -2.1511 -0.5137
 2856TIP3    H230060   2.018   3.347  15.807 -1.0612 -0.1714 -2.5860
 2857TIP3   OH230061   6.437   1.773  15.235 -0.3498  0.1764 -0.7198
 2857TIP3    H130062   6.342   1.780  15.226 -0.2194  2.6137 -0.6377
 2857TIP3    H230063   6.455   1.679  15.236 -2.9222 -0.3307  1.0876
 2858TIP3   OH230064   0.606   2.138  16.899 -0.7287 -0.1323 -0.3257
 2858TIP3    H130065   0.528   2.172  16.944 -2.1104 -2.8006 -0.6118
 2858TIP3    H230066   0.599   2.043  16.908  3.3677 -0.3638  1.0287
 2859TIP3   OH230067   4.078   6.708   4.714  0.2456  0.4209  0.5115
 2859TIP3    H130068   4.100   6.631   4.663 -0.1239  1.3502 -1.0745
 2859TIP3    H230069   3.993   6.737   4.679  2.0056  3.5914 -1.4037
 2860TIP3   OH230070   3.449   5.799   0.688  0.0534 -0.1937 -0.3950
 2860TIP3    H130071   3.503   5.877   0.677 -1.3683  0.8202 -0.2906
 2860TIP3    H230072   3.359   5.832   0.687 -0.4764 -1.2269  4.4255
 2861TIP3   OH230073   6.055   3.703  13.300 -0.2353  0.0305  0.2078
 2861TIP3    H130074   5.994   3.700  13.373 -0.9308 -1.2305 -0.4101
 2861TIP3    H230075   6.142   3.705  13.341 -0.6315 -0.0006  1.0596
 2862TIP3   OH230076   1.938   0.704  15.688  0.0933  0.0065  0.0872
 2862TIP3    H130077   1.908   0.791  15.715  3.5397  2.0478 -2.2179
 2862TIP3    H230078   2.027   0.697  15.723 -0.5267 -3.1181  1.1844
 2863TIP3   OH230079   6.199   6.509  11.999 -0.4349  0.5030 -0.3683
 2863TIP3    H130080   6.122   6.501  11.943  0.3977  0.9133 -1.5905
 2863TIP3    H230081   6.240   6.591  11.972 -0.3678  1.0291  1.2884
 2864TIP3   OH230082   3.837   1.533  13.506 -0.2333  0.3716  0.1475
 2864TIP3    H130083   3.786   1.456  13.531 -0.9874  0.7837 -0.0937
 2864TIP3    H230084   3.781   1.607  13.531  0.9062  0.8667  1.3144
 2865TIP3   OH230085   0.760   4.233  15.155  0.2508  0.2538  0.5284
 2865TIP3    H130086   0.825   4.246  15.086 -0.6198  1.5472 -0.0832
 2865TIP3    H230087   0.789   4.289  15.227  0.0943  0.4179  0.4629
 2866TIP3   OH230088   6.389   3.425  15.629  0.3529 -0.1727  0.0522
 2866TIP3    H130089   6.431   3.352  15.674  0.5305 -0.4350 -0.5381
 2866TIP3    H230090   6.322   3.456  15.691 -0.3059 -1.3746 -0.0386
 2867TIP3   OH230091   5.579   1.623  11.371 -0.0146  0.1501 -0.0557
 2867TIP3    H130092   5.593   1.718  11.363  0.1548  0.2226  0.9629
 2867TIP3    H230093   5.635   1.585  11.304  0.9938  0.7162  0.4429
 2868TIP3   OH230094   3.920   2.713  17.192  0.2850 -0.3833  0.0845
 2868TIP3    H130095   3.987   2.729  17.259  0.5183  0.7504 -0.4067
 2868TIP3    H230096   3.898   2.800  17.159 -0.1090 -0.9007 -1.0443
 2869TIP3   OH230097   3.496   1.143  16.558 -0.1335 -0.4288 -1.1923
 2869TIP3    H130098   3.539   1.058  16.549 -0.5105 -0.8394  0.6989
 2869TIP3    H230099   3.564   1.201  16.590  0.2269  0.0985 -2.8756
 2870TIP3   OH230100   2.180   3.197  16.618 -0.0001 -0.0055 -0.1349
 2870TIP3    H130101   2.187   3.248  16.537  1.6953  2.3543  1.4354
 2870TIP3    H230102   2.248   3.234  16.675 -2.3150 -0.4336  3.0156
 2871TIP3   OH230103   3.687   5.165  12.526  0.1358 -0.2851  0.5036
 2871TIP3    H130104   3.607   5.113  12.523 -0.1156  0.1034  0.4122
 2871TIP3    H230105   3.664   5.242  12.579 -0.3773  1.2039 -1.8267
 2872TIP3   OH230106   6.408   6.165   6.054 -0.3049  0.6328  0.4482
 2872TIP3    H130107   6.358   6.186   5.975 -0.1975  0.2323  0.2705
 2872TIP3    H230108   6.367   6.216   6.123 -0.0046  1.4850  0.0075
 2873TIP3   OH230109   6.579   4.437  14.663 -0.4250 -0.1659 -0.2891
 2873TIP3    H130110   6.506   4.385  14.629 -0.5697  0.3029 -0.7119
 2873TIP3    H230111   6.588   4.409  14.754 -1.2800 -0.0620 -0.1679
 2874TIP3   OH230112   5.585   6.563  15.967  0.0551  0.2303 -0.3068
 2874TIP3    H130113   5.528   6.629  16.006  0.0858 -0.0630  0.2448
 2874TIP3    H230114   5.666   6.609  15.946 -0.4768  0.7118 -1.3426
 2875TIP3   OH230115   4.908   4.072  17.159 -0.0984 -0.7566 -0.1288
 2875TIP3    H130116   4.927   4.124  17.237 -0.5821 -1.9507  0.7998
 2875TIP3    H230117   4.817   4.045  17.170 -0.0831 -1.1492 -0.9817
 2876TIP3   OH230118   2.030   3.224   3.347 -0.3196 -0.0111 -0.3027
 2876TIP3    H130119   2.001   3.132   3.343  0.2915 -0.1814 -0.9299
 2876TIP3    H230120   1.966   3.271   3.294  0.9274 -0.4984 -2.3253
 2877TIP3   OH230121   1.653   3.036  14.541 -0.0834 -0.2756 -0.6433
 2877TIP3    H130122   1.662   3.074  14.629  2.2769  1.2591 -1.5063
 2877TIP3    H230123   1.670   2.942  14.554 -0.4951 -0.1892  0.6312
 2878TIP3   OH230124   6.724   4.967  12.377 -0.1243  0.1755 -0.0428
 2878TIP3    H130125   6.794   4.904  12.360  1.0728  0.9401  1.8951
 2878TIP3    H230126   6.735   5.034  12.309 -0.0653 -0.6026 -0.8055
 2879TIP3   OH230127   2.279   4.099  12.340 -0.3489  0.8880 -0.7143
 2879TIP3    H130128   2.299   4.170  12.400  1.0463  0.4163 -0.5955
 2879TIP3    H230129   2.353   4.038  12.350  0.4665  1.3147 -3.6810
 2880TIP3   OH230130   1.103   6.352  10.929 -0.5440  0.4287  0.4534
 2880TIP3    H130131   1.065   6.331  10.843  0.0809  0.0742  0.2535
 2880TIP3    H230132   1.181   6.402  10.908 -0.0521 -0.1858  0.7884
 2881TIP3   OH230133   0.427   2.356  11.594 -0.2295  0.2478  0.4543
 2881TIP3    H130134   0.506   2.408  11.581 -0.5947  0.9921  1.2212
 2881TIP3    H230135   0.360   2.400  11.542 -0.9785  1.5792  2.4863
 2882TIP3   OH230136   5.092   0.544  16.482  0.1275 -0.6735  0.3742
 2882TIP3    H130137   5.130   0.631  16.475  1.0975 -1.2304 -1.6156
 2882TIP3    H230138   5.166   0.484  16.474 -0.8372 -1.7142 -1.1080
 2883TIP3   OH230139   1.528   3.226   5.222 -0.3657 -0.0751 -0.3287
 2883TIP3    H130140   1.487   3.271   5.296 -0.2421  0.3491 -0.5222
 2883TIP3    H230141   1.613   3.269   5.211 -0.4150 -0.0896 -0.7669
 2884TIP3   OH230142   0.392   1.780  15.209 -0.1212 -0.0573  0.4874
 2884TIP3    H130143   0.415   1.741  15.293 -0.0647 -1.4712 -0.1697
 2884TIP3    H230144   0.454   1.741  15.147 -0.1925  0.9364 -0.2221
 2885TIP3   OH230145   3.053   1.443  13.658 -0.1342  0.1982  0.1779
 2885TIP3    H130146   3.012   1.481  13.735 -0.1996 -0.1276  0.3045
 2885TIP3    H230147   3.097   1.517  13.616 -2.1682  0.8639 -0.8344
 2886TIP3   OH230148   6.437   5.413   5.905 -0.2161  0.1635 -0.1335
 2886TIP3    H130149   6.364   5.360   5.875  0.5584 -0.4946 -0.8742
 2886TIP3    H230150   6.452   5.384   5.995 -0.3958 -0.2140 -0.2249
 2887TIP3   OH230151   1.652   4.293  15.813  0.3061 -0.5981 -0.4944
 2887TIP3    H130152   1.597   4.369  15.832  1.7093  0.4300 -0.4190
 2887TIP3    H230153   1.611   4.252  15.738 -0.3746  0.3561 -0.6582
 2888TIP3   OH230154   2.002   0.578  16.350 -0.0490  0.1872 -0.2402
 2888TIP3    H130155   2.051   0.659  16.340 -0.6892  0.4658 -1.1949
 2888TIP3    H230156   1.922   0.603  16.394  0.2121 -0.0984  0.3972
 2889TIP3   OH230157   5.130   3.821   0.446  0.1432 -0.0186 -0.0507
 2889TIP3    H130158   5.131   3.847   0.538 -1.0880  0.1254 -0.0666
 2889TIP3    H230159   5.056   3.869   0.409 -0.4151 -1.3746 -0.7246
 2890TIP3   OH230160   4.482   5.880  13.336 -0.6641 -0.0641  0.0933
 2890TIP3    H130161   4.501   5.856  13.245  1.6484  0.3492  0.4417
 2890TIP3    H230162   4.557   5.932  13.363 -1.4050 -0.0711  2.2087
 2891TIP3   OH230163   5.758   0.315   3.973  0.0770  0.2363  0.1991
 2891TIP3    H130164   5.781   0.368   4.050 -0.4124  2.2421 -1.0053
 2891TIP3    H230165   5.835   0.262   3.956  0.8777  1.1406  0.9481
 2892TIP3   OH230166   5.060   2.482  13.323  0.1572  0.5902 -0.2990
 2892TIP3    H130167   5.143   2.530  13.320 -0.7800  2.4069  1.5706
 2892TIP3    H230168   5.084   2.394  13.351  1.6579  0.5323 -1.6899
 2893TIP3   OH230169   4.620   2.210  12.997  0.3399  0.4913  0.1369
 2893TIP3    H130170   4.597   2.283  13.055 -0.9308  0.3242 -0.1261
 2893TIP3    H230171   4.712   2.223  12.977 -0.2443  2.8950 -1.1263
 2894TIP3   OH230172   4.025   2.276   4.758  0.6138  0.2517  0.1153
 2894TIP3    H130173   4.078   2.306   4.684  1.1087  0.0094  0.3650
 2894TIP3    H230174   3.992   2.191   4.731 -0.8272  1.0202 -0.6118
 2895TIP3   OH230175   2.979   3.817   4.183 -0.1735  0.3315  0.0832
 2895TIP3    H130176   3.047   3.884   4.170 -0.1230  0.0450 -1.1384
 2895TIP3    H230177   2.937   3.842   4.266  0.9051  0.9543  0.4556
 2896TIP3   OH230178   3.702   1.459   1.766  0.5099  0.7481  0.6754
 2896TIP3    H130179   3.750   1.531   1.807 -1.6048  0.5957  3.5771
 2896TIP3    H230180   3.654   1.419   1.838 -1.5714 -0.9905 -1.6110
 2897TIP3   OH230181   1.685   0.118  12.874 -0.1381 -0.4544 -0.4123
 2897TIP3    H130182   1.702   0.028  12.903 -0.7705 -0.9985 -1.6774
 2897TIP3    H230183   1.631   0.108  12.796 -1.7279  1.0964  0.4679
 2898TIP3   OH230184   0.933   1.792   5.117 -0.1303  0.5803  0.2216
 2898TIP3    H130185   0.996   1.720   5.125  1.0551  1.7275  1.4747
 2898TIP3    H230186   0.856   1.751   5.078  0.9358 -1.1237 -0.1898
 2899TIP3   OH230187   1.785   0.977  14.114  0.4615  0.2198  0.1394
 2899TIP3    H130188   1.745   1.000  14.030  2.5947  0.1783 -0.9233
 2899TIP3    H230189   1.793   0.882  14.112 -1.1230  0.0565  1.1664
 2900TIP3   OH230190   5.563   2.237  12.916 -0.6618 -0.0787 -0.2036
 2900TIP3    H130191   5.474   2.203  12.908 -0.4969 -1.0088  1.6061
 2900TIP3    H230192   5.607   2.210  12.836 -1.5057 -1.1261 -0.3195
 2901TIP3   OH230193   0.607   2.011   3.743 -0.4901 -0.1060  0.3036
 2901TIP3    H130194   0.525   1.976   3.778 -0.5421 -0.5032 -0.2085
 2901TIP3    H230195   0.633   2.078   3.807  0.1509 -1.7934  1.8541
 2902TIP3   OH230196   5.236   3.731  16.271  0.2703 -0.1131  0.2143
 2902TIP3    H130197   5.290   3.656  16.293  0.8931  0.5778  1.0807
 2902TIP3    H230198   5.146   3.697  16.270  0.5470 -0.8558  0.6279
 2903TIP3   OH230199   0.703   0.232  10.887  0.4939 -0.6130 -0.3258
 2903TIP3    H130200   0.617   0.260  10.855  0.4614  1.6302  1.5967
 2903TIP3    H230201   0.709   0.140  10.863 -3.5990 -1.5516  1.8446
 2904TIP3   OH230202   0.892   1.276   4.875  0.0403 -0.3841 -0.1469
 2904TIP3    H130203   0.895   1.184   4.851  1.1707 -0.0948 -1.1982
 2904TIP3    H230204   0.980   1.295   4.908 -0.2583  0.2502  0.2981
 2905TIP3   OH230205   5.103   2.610  15.567 -0.3621  0.0761  0.0607
 2905TIP3    H130206   5.013   2.606  15.598  0.4878 -1.4193  2.4508
 2905TIP3    H230207   5.153   2.643  15.641  0.7919  3.1173 -1.9639
 2906TIP3   OH230208   6.195   4.641  12.473  0.2365  0.5102 -0.3681
 2906TIP3    H130209   6.112   4.593  12.461 -0.1318  0.6864  1.3685
 2906TIP3    H230210   6.263   4.574  12.462 -0.2520 -0.2837  1.2594
 2907TIP3   OH230211   3.060   5.910   5.623 -1.1444 -0.3344  0.2905
 2907TIP3    H130212   3.063   6.005   5.639  1.2630 -0.4455  0.6684
 2907TIP3    H230213   3.149   5.880   5.642 -1.5956 -2.5039 -0.9072
 2908TIP3   OH230214   5.102   4.337   1.772 -0.4689  0.1890  0.6645
 2908TIP3    H130215   5.033   4.286   1.729 -0.3396  0.7952 -0.2727
 2908TIP3    H230216   5.055   4.407   1.818 -0.3837  1.6510 -1.4144
 2909TIP3   OH230217   3.782   3.450  13.994 -0.2014  0.5297 -0.3842
 2909TIP3    H130218   3.764   3.404  13.912 -0.0731 -1.0183  0.4343
 2909TIP3    H230219   3.696   3.467  14.032 -0.2258 -3.5480  1.7180
 2910TIP3   OH230220   0.664   3.062   1.095 -0.7110 -0.0267 -0.5020
 2910TIP3    H130221   0.597   3.106   1.044 -0.6774  0.6526  0.0324
 2910TIP3    H230222   0.625   2.978   1.118 -1.6381  0.6342  0.3722
 2911TIP3   OH230223   3.802   4.556   1.206 -0.4759  0.1238  0.2534
 2911TIP3    H130224   3.881   4.574   1.258  1.2291  0.4359 -2.3373
 2911TIP3    H230225   3.815   4.467   1.175 -1.0227  0.2614 -0.3669
 2912TIP3   OH230226   3.425   2.420  14.951  0.6952  1.0534 -0.1279
 2912TIP3    H130227   3.511   2.461  14.954  1.5886 -0.7087 -1.1471
 2912TIP3    H230228   3.411   2.400  14.858 -0.6399  0.9652  0.0819
 2913TIP3   OH230229   3.518   5.313  11.974  0.7296  0.2584  0.6966
 2913TIP3    H130230   3.507   5.223  12.005 -1.9654 -0.1837 -1.3904
 2913TIP3    H230231   3.530   5.304  11.880  0.7543  2.0970  0.5211
 2914TIP3   OH230232   4.929   6.408  13.973 -0.2045  0.3938  0.9605
 2914TIP3    H130233   4.975   6.338  14.019 -1.2132 -1.5542 -0.9598
 2914TIP3    H230234   4.845   6.415  14.018  0.0680  0.7096  1.4322
 2915TIP3   OH230235   0.361   5.842   4.310 -0.0982 -0.0855  0.1664
 2915TIP3    H130236   0.357   5.830   4.216 -0.1618 -1.0504  0.2873
 2915TIP3    H230237   0.272   5.866   4.335  0.2546  1.6824 -0.2073
 2916TIP3   OH230238   4.228   0.801  14.286  0.4823 -0.1476 -0.1022
 2916TIP3    H130239   4.220   0.831  14.376 -1.4956 -0.1261 -0.2812
 2916TIP3    H230240   4.287   0.865  14.245  3.4474 -1.5614  1.7639
 2917TIP3   OH230241   4.482   0.927  11.299  0.3571 -0.6658  0.2624
 2917TIP3    H130242   4.559   0.892  11.253  0.5243  0.8011 -0.6093
 2917TIP3    H230243   4.519   0.992  11.358 -0.3207  0.8838 -1.0033
 2918TIP3   OH230244   4.176   6.562  14.817 -0.0295  0.3652  0.1628
 2918TIP3    H130245   4.099   6.619  14.816 -0.2875  0.0259  0.5799
 2918TIP3    H230246   4.202   6.556  14.725  0.4500  1.7594  0.1986
 2919TIP3   OH230247   5.957   4.803  11.033  0.3333 -0.4562  0.1583
 2919TIP3    H130248   5.963   4.719  10.989 -0.5645  0.3678 -1.6085
 2919TIP3    H230249   5.867   4.832  11.018  1.8692  3.0245 -3.5469
 2920TIP3   OH230250   2.391   1.766  16.764  0.0095  0.4369  0.4890
 2920TIP3    H130251   2.367   1.727  16.679  0.4643  1.6213 -0.1929
 2920TIP3    H230252   2.426   1.693  16.815  1.3848  0.0547 -0.9703
 2921TIP3   OH230253   3.488   2.180   3.770 -0.1328  0.0506 -0.0118
 2921TIP3    H130254   3.546   2.164   3.695 -0.0827 -1.4352  0.3245
 2921TIP3    H230255   3.479   2.275   3.773  3.6677  0.4894  0.9230
 2922TIP3   OH230256   5.119   0.257  12.478  0.2247  0.0208  0.3163
 2922TIP3    H130257   5.073   0.299  12.405  0.2302  0.0476  0.3281
 2922TIP3    H230258   5.061   0.271  12.553 -0.8433 -1.9061 -0.1093
 2923TIP3   OH230259   3.450   2.940  12.056  0.2208  0.0353  0.1185
 2923TIP3    H130260   3.502   3.011  12.095 -0.5859  0.1345  1.0445
 2923TIP3    H230261   3.384   2.985  12.004 -0.5739 -0.0026  1.0670
 2924TIP3   OH230262   2.239   2.789   4.008  0.5077  0.7007  0.0030
 2924TIP3    H130263   2.244   2.828   3.921  0.0915 -0.1271 -0.3984
 2924TIP3    H230264   2.169   2.837   4.052 -0.6030 -0.1696 -0.7878
 2925TIP3   OH230265   3.909   5.635  16.501  0.3775  0.2946 -0.1613
 2925TIP3    H130266   3.976   5.651  16.435 -0.2656  0.3205 -0.8118
 2925TIP3    H230267   3.930   5.548  16.536  0.2204 -0.0815 -0.9990
 2926TIP3   OH230268   4.041   2.079   2.006  0.4963 -0.6671  0.2438
 2926TIP3    H130269   3.959   2.048   2.044  1.3161 -3.2970 -0.0252
 2926TIP3    H230270   4.031   2.174   2.001 -1.4971 -0.7070  2.5938
 2927TIP3   OH230271   2.830   1.401   2.912 -0.0272  0.5950  0.3078
 2927TIP3    H130272   2.796   1.311   2.911 -0.7122  0.8628 -0.1235
 2927TIP3    H230273   2.791   1.441   2.989 -0.6194  0.8773 -0.1410
 2928TIP3   OH230274   0.085   5.905  16.018 -0.1811  0.0495  0.3499
 2928TIP3    H130275   0.017   5.844  15.989  0.1287  0.5781 -1.5040
 2928TIP3    H230276   0.039   5.967  16.075 -0.6791 -1.3342  1.4721
 2929TIP3   OH230277   6.115   4.090   2.330 -0.4274 -0.1225 -0.0489
 2929TIP3    H130278   6.029   4.084   2.370  0.7867 -3.5483  2.3504
 2929TIP3    H230279   6.166   4.146   2.389 -0.8278  1.5637 -1.2483
 2930TIP3   OH230280   6.269   2.297   3.745 -0.4171 -0.7973  0.1014
 2930TIP3    H130281   6.364   2.294   3.731 -0.5313 -1.9707 -0.4296
 2930TIP3    H230282   6.246   2.210   3.779 -1.4877 -0.9447 -0.9749
 2931TIP3   OH230283   6.418   6.292  15.105 -0.1840  0.0384 -0.2058
 2931TIP3    H130284   6.514   6.286  15.103 -0.0281  1.3386  1.3702
 2931TIP3    H230285   6.388   6.202  15.112  0.9825 -0.3044  0.5501
 2932TIP3   OH230286   1.843   1.839  17.261  0.3333  0.0347 -0.1409
 2932TIP3    H130287   1.813   1.756  17.225 -0.2719  0.5101 -0.7182
 2932TIP3    H230288   1.801   1.906  17.208 -0.0276  0.7268  1.0087
 2933TIP3   OH230289   6.544   2.345   6.030 -0.1163  0.1971 -0.0781
 2933TIP3    H130290   6.597   2.344   6.110  0.4586  0.6146 -0.4558
 2933TIP3    H230291   6.495   2.263   6.033 -0.2572  0.3044  0.8114
 2934TIP3   OH230292   4.219   1.708  14.104  0.0767 -0.7501  0.0091
 2934TIP3    H130293   4.158   1.648  14.148 -1.0771  2.4538  2.9420
 2934TIP3    H230294   4.175   1.729  14.021 -1.0350 -1.4331  0.4068
 2935TIP3   OH230295   3.664   2.511  11.341  0.3729 -0.5106  0.0187
 2935TIP3    H130296   3.750   2.471  11.334  0.9134  0.4745  0.8963
 2935TIP3    H230297   3.682   2.605  11.351 -0.8257 -0.1678 -0.8436
 2936TIP3   OH230298   2.303   1.957  12.260 -0.2797  0.0394 -0.2347
 2936TIP3    H130299   2.268   2.041  12.291  1.8727  0.8341  0.0804
 2936TIP3    H230300   2.278   1.895  12.328  1.8575  1.2400  1.7326
 2937TIP3   OH230301   6.475   2.910  13.858  0.3856  0.2352 -0.2046
 2937TIP3    H130302   6.427   2.860  13.925  1.5344  0.2487  0.6320
 2937TIP3    H230303   6.567   2.903  13.883  0.8751 -0.0867 -2.0103
 2938TIP3   OH230304   1.367   2.538  17.110 -0.3555 -0.4479 -0.9325
 2938TIP3    H130305   1.303   2.599  17.148 -0.7978 -0.8199 -1.0821
 2938TIP3    H230306   1.440   2.595  17.082 -0.4950 -0.0563 -0.5122
 2939TIP3   OH230307   6.527   2.220   4.274 -0.7702 -0.1129 -0.7149
 2939TIP3    H130308   6.544   2.272   4.195  1.2942  0.1781 -0.1162
 2939TIP3    H230309   6.535   2.283   4.346 -0.7100 -0.7587 -0.1543
 2940TIP3   OH230310   3.478   4.344   2.016 -0.3121  0.5574 -0.4100
 2940TIP3    H130311   3.566   4.311   2.031 -0.4340 -0.0998 -1.1248
 2940TIP3    H230312   3.455   4.314   1.928 -0.6216  2.1132 -0.8789
 2941TIP3   OH230313   2.960   5.366   1.795 -0.9449  0.2186 -0.2096
 2941TIP3    H130314   2.978   5.460   1.786  2.1862 -0.4333 -1.6080
 2941TIP3    H230315   2.980   5.346   1.886  0.3663  0.5236 -0.4286
 2942TIP3   OH230316   1.388   5.178  11.722 -0.1341 -0.2239  0.0230
 2942TIP3    H130317   1.412   5.198  11.632 -1.0159 -0.9175 -0.3843
 2942TIP3    H230318   1.468   5.190  11.773  0.5363 -0.4973 -0.9662
 2943TIP3   OH230319   4.832   0.528  17.114  0.0279  0.0424  0.5767
 2943TIP3    H130320   4.769   0.531  17.042  1.4054  2.9494 -0.6063
 2943TIP3    H230321   4.827   0.438  17.147 -1.0078 -1.2315 -2.8124
 2944TIP3   OH230322   0.389   0.177   2.339 -0.0883  0.9157 -0.8331
 2944TIP3    H130323   0.353   0.245   2.395 -0.8632  0.4152 -0.7184
 2944TIP3    H230324   0.337   0.099   2.359  1.3391  0.0705 -0.3424
 2945TIP3   OH230325   4.433   4.197  15.436 -0.5374 -0.0016  0.2432
 2945TIP3    H130326   4.489   4.197  15.358 -1.6351  1.9664 -0.5669
 2945TIP3    H230327   4.489   4.161  15.505  1.2370  0.4764 -0.8967
 2946TIP3   OH230328   3.724   3.670   1.394  0.5689  0.8590  0.0690
 2946TIP3    H130329   3.685   3.721   1.324 -1.1790 -2.0014 -1.1213
 2946TIP3    H230330   3.815   3.657   1.366  0.1319  0.5218 -1.2204
 2947TIP3   OH230331   2.849   3.351  10.821  0.4295 -0.0773 -0.2407
 2947TIP3    H130332   2.862   3.256  10.815 -1.3030 -0.3286 -0.3624
 2947TIP3    H230333   2.912   3.388  10.760 -1.1234 -1.3444 -2.7158
 2948TIP3   OH230334   0.758   0.432   1.790 -0.1599 -0.1668  0.1458
 2948TIP3    H130335   0.666   0.409   1.773 -0.0726 -0.7051  0.3882
 2948TIP3    H230336   0.806   0.350   1.779  0.1897 -0.0520  0.7722
 2949TIP3   OH230337   5.627   3.191  15.609  0.3183 -0.2353  0.5260
 2949TIP3    H130338   5.705   3.246  15.605 -0.0156  0.2028 -0.3268
 2949TIP3    H230339   5.555   3.249  15.583 -0.0454 -1.0517 -0.3729
 2950TIP3   OH230340   2.312   0.468  16.303  0.3842  0.3088  0.2656
 2950TIP3    H130341   2.262   0.394  16.338 -2.4882  2.2061  0.4076
 2950TIP3    H230342   2.318   0.530  16.376  2.5288  0.3639  0.0748
 2951TIP3   OH230343   5.112   2.112   5.170 -0.0001  0.1829  0.2516
 2951TIP3    H130344   5.135   2.190   5.118 -0.2243  0.2448  0.2458
 2951TIP3    H230345   5.179   2.110   5.238 -0.0236  0.4142  0.2842
 2952TIP3   OH230346   0.534   3.516   1.290 -0.2509  0.4056 -0.2373
 2952TIP3    H130347   0.622   3.539   1.262 -0.7520  1.6126 -0.8782
 2952TIP3    H230348   0.546   3.457   1.364  1.1244 -1.6639 -2.0590
 2953TIP3   OH230349   5.827   1.769   0.654 -0.3597  0.4033 -0.3263
 2953TIP3    H130350   5.758   1.703   0.646 -0.1486  0.0923  0.3276
 2953TIP3    H230351   5.832   1.787   0.749  1.0812 -0.2491 -0.2729
 2954TIP3   OH230352   5.688   5.751  16.916  0.3861  0.1244  0.5380
 2954TIP3    H130353   5.783   5.749  16.924  0.3049  0.2243  1.6011
 2954TIP3    H230354   5.668   5.683  16.852  1.2314  0.6594 -0.2979
 2955TIP3   OH230355   2.295   1.021   4.493  0.3659  0.2865  0.0265
 2955TIP3    H130356   2.240   0.944   4.507  1.3549 -0.3458  0.5612
 2955TIP3    H230357   2.237   1.087   4.456 -0.5488 -0.6464 -0.2076
 2956TIP3   OH230358   1.375   0.950  13.983  0.2225 -0.3912 -0.5379
 2956TIP3    H130359   1.364   0.994  13.899 -1.8632 -1.5194 -0.9012
 2956TIP3    H230360   1.342   1.012  14.048  2.2111  0.6405 -0.4975
 2957TIP3   OH230361   5.792   3.253   2.669 -0.3314  0.0887 -0.2585
 2957TIP3    H130362   5.782   3.196   2.593  0.3037 -0.6878  0.2325
 2957TIP3    H230363   5.739   3.330   2.648  0.5426  0.2855 -1.8778
 2958TIP3   OH230364   3.290   1.106  14.567 -0.2737 -0.2673  0.1196
 2958TIP3    H130365   3.297   1.179  14.628  0.2570 -1.4440  1.4915
 2958TIP3    H230366   3.201   1.074  14.577  0.3424 -1.5894  1.6279
 2959TIP3   OH230367   0.665   1.270  13.876  0.2037  0.0806 -0.6915
 2959TIP3    H130368   0.649   1.197  13.816 -0.8068 -0.2972  0.0268
 2959TIP3    H230369   0.679   1.229  13.961  0.6256  0.6677 -0.4733
 2960TIP3   OH230370   4.434   6.680   4.967 -0.4755  0.4099 -0.0129
 2960TIP3    H130371   4.452   6.757   5.021  1.6765 -0.6898  0.8978
 2960TIP3    H230372   4.384   6.622   5.024 -0.3379  0.2777 -0.0280
 2961TIP3   OH230373   4.327   5.710  14.832  0.5458 -0.1394 -0.8956
 2961TIP3    H130374   4.286   5.691  14.917  2.7673 -2.9867 -0.3812
 2961TIP3    H230375   4.267   5.671  14.768 -0.4622  0.8384 -0.5610
 2962TIP3   OH230376   4.239   5.839   0.694  0.0924  0.7736 -0.2335
 2962TIP3    H130377   4.310   5.837   0.758  0.8703  0.7642 -1.0820
 2962TIP3    H230378   4.169   5.786   0.732 -0.0473  2.0338  1.2931
 2963TIP3   OH230379   0.260   3.511  10.523 -0.3733  0.3127 -0.2705
 2963TIP3    H130380   0.303   3.470  10.448 -2.2335  0.8517 -1.6868
 2963TIP3    H230381   0.209   3.582  10.485 -0.8597  0.9846  1.5911
 2964TIP3   OH230382   5.366   1.111   1.603 -0.2736  0.1053  0.1912
 2964TIP3    H130383   5.385   1.081   1.692  0.2456  0.2569  0.1332
 2964TIP3    H230384   5.437   1.172   1.583 -0.0611 -0.3830 -0.5494
 2965TIP3   OH230385   3.198   1.321  12.245  0.4189 -0.0874  0.1978
 2965TIP3    H130386   3.206   1.338  12.151  2.1781  1.5204  0.6170
 2965TIP3    H230387   3.112   1.279  12.254  0.4056 -0.6422 -2.1696
 2966TIP3   OH230388   3.127   0.553   3.183  0.4767  0.5946  0.1523
 2966TIP3    H130389   3.136   0.494   3.108  3.5697  0.8513  0.2600
 2966TIP3    H230390   3.120   0.640   3.143  0.9894  0.6289  0.1405
 2967TIP3   OH230391   4.493   1.471   0.066  0.1555  0.2207  0.1215
 2967TIP3    H130392   4.509   1.540   0.130 -1.3791  0.5629  0.1620
 2967TIP3    H230393   4.579   1.430   0.052  0.7713  1.0932  1.2877
 2968TIP3   OH230394   3.635   5.045  14.880 -0.6258 -0.0233 -0.1737
 2968TIP3    H130395   3.704   5.001  14.830 -1.5550 -0.3453 -1.1699
 2968TIP3    H230396   3.673   5.131  14.901 -0.1117 -0.0012 -1.1694
 2969TIP3   OH230397   6.148   4.869   0.669 -0.1221  0.3454 -0.1995
 2969TIP3    H130398   6.115   4.957   0.685 -0.5365 -0.0142  1.0189
 2969TIP3    H230399   6.071   4.818   0.644  0.0585  0.2477 -0.5584
 2970TIP3   OH230400   6.570   0.886  13.829 -0.0929 -0.7280  0.2554
 2970TIP3    H130401   6.523   0.932  13.760  0.4555  1.8982  1.5671
 2970TIP3    H230402   6.505   0.826  13.866 -1.3198  0.1634 -0.4055
 2971TIP3   OH230403   2.295   2.770  15.219 -0.0777  0.2001  0.0604
 2971TIP3    H130404   2.301   2.687  15.171  1.3104  0.3814 -0.0949
 2971TIP3    H230405   2.287   2.743  15.311 -0.8423 -0.1174 -0.0920
 2972TIP3   OH230406   4.049   0.980   1.009  0.3848 -0.8824 -0.0242
 2972TIP3    H130407   3.966   0.935   1.027 -0.6522  0.6346 -0.8673
 2972TIP3    H230408   4.096   0.977   1.093 -2.1559  1.4953  1.6037
 2973TIP3   OH230409   0.848   4.521  11.564  0.4731 -0.4775  0.0036
 2973TIP3    H130410   0.939   4.551  11.571  0.2511  0.2093 -0.0981
 2973TIP3    H230411   0.824   4.495  11.653  0.9748 -1.2464 -0.0832
 2974TIP3   OH230412   0.943   2.823   4.264 -0.3671  0.4783 -0.0697
 2974TIP3    H130413   0.954   2.754   4.199  0.5464  0.6971 -0.1563
 2974TIP3    H230414   0.901   2.780   4.339  0.3625 -0.2159 -0.0510
 2975TIP3   OH230415   1.353   6.750  12.956 -0.4142 -0.3365  0.7718
 2975TIP3    H130416   1.335   6.666  12.999  1.3654 -0.9628  0.3346
 2975TIP3    H230417   1.378   6.726  12.867 -0.4395  0.7137  0.4792
 2976TIP3   OH230418   0.752   2.199  14.257  0.1651 -0.7930 -0.0095
 2976TIP3    H130419   0.722   2.129  14.315  0.4685 -0.2462  0.8085
 2976TIP3    H230420   0.782   2.268  14.316 -0.3570  0.1253 -0.8182
 2977TIP3   OH230421   6.442   0.598   4.423  0.4620  0.3842  0.4763
 2977TIP3    H130422   6.364   0.596   4.368  2.1986  1.8691 -2.1626
 2977TIP3    H230423   6.408   0.590   4.513 -2.5594 -0.6002 -0.6753
 2978TIP3   OH230424   1.167   5.908  13.873  0.3812  0.2524 -0.0430
 2978TIP3    H130425   1.239   5.921  13.811  0.8046 -0.6596  0.2596
 2978TIP3    H230426   1.108   5.847  13.829 -1.9374  3.5026 -1.7265
 2979TIP3   OH230427   5.913   4.210  15.740  0.0699 -0.2844  0.5888
 2979TIP3    H130428   5.826   4.174  15.721  1.4211 -2.3299 -2.0295
 2979TIP3    H230429   5.912   4.296  15.698 -0.2871 -0.8054 -0.4974
 2980TIP3   OH230430   4.431   2.804   1.482  0.0573  0.4657  0.2747
 2980TIP3    H130431   4.376   2.726   1.484 -0.0074  0.5286  1.1818
 2980TIP3    H230432   4.457   2.813   1.391  0.0039 -0.5741  0.1540
 2981TIP3   OH230433   5.804   2.945  10.444 -0.2582  0.1785 -0.1892
 2981TIP3    H130434   5.853   2.874  10.485  0.1398  1.2402  1.2445
 2981TIP3    H230435   5.719   2.907  10.423  0.4725 -1.1237 -0.8082
 2982TIP3   OH230436   1.641   3.826  11.431  0.4341 -0.3851 -0.0320
 2982TIP3    H130437   1.726   3.783  11.425 -0.3987 -1.8804 -1.4145
 2982TIP3    H230438   1.579   3.755  11.445 -0.8266  0.4992 -0.9860
 2983TIP3   OH230439   2.033   6.293   6.374  0.2775 -0.0863 -0.4828
 2983TIP3    H130440   2.091   6.305   6.299  0.5187 -1.5015 -0.5427
 2983TIP3    H230441   2.029   6.198   6.386 -2.2977 -0.0364 -0.6822
 2984TIP3   OH230442   6.749   3.015   0.398 -0.1561  0.1389 -0.5245
 2984TIP3    H130443   6.723   2.955   0.467  4.2699 -0.9140  0.4084
 2984TIP3    H230444   6.753   3.101   0.440 -0.3846  0.0131 -0.2487
 2985TIP3   OH230445   3.081   1.483  14.533 -0.1704  0.5207  0.3048
 2985TIP3    H130446   2.993   1.479  14.570 -0.6982  4.1703 -0.4453
 2985TIP3    H230447   3.129   1.542  14.590  0.1855  2.9270 -2.3575
 2986TIP3   OH230448   0.131   0.631  15.590 -0.1767  0.0650  0.4869
 2986TIP3    H130449   0.088   0.554  15.553 -0.4009  0.4008  0.0425
 2986TIP3    H230450   0.073   0.704  15.569 -0.1385  0.3102  1.2074
 2987TIP3   OH230451   6.654   5.789  15.989  0.2923  0.4016  0.0457
 2987TIP3    H130452   6.634   5.773  15.897  2.2953 -1.9834  0.0016
 2987TIP3    H230453   6.573   5.826  16.024 -2.1114 -3.0186 -1.6044
 2988TIP3   OH230454   0.010   5.873   5.519  0.0024 -0.2781 -0.2133
 2988TIP3    H130455   0.023   5.966   5.539  2.8356 -0.6753  0.0194
 2988TIP3    H230456  -0.006   5.833   5.604  2.6436 -0.5444  0.2028
 2989TIP3   OH230457   5.689   6.664   2.368  0.2476 -0.2872 -0.2737
 2989TIP3    H130458   5.638   6.589   2.336  0.8509 -1.1889  0.8445
 2989TIP3    H230459   5.641   6.740   2.336 -2.1782 -1.1092  1.2924
 2990TIP3   OH230460   5.031   2.238  16.930  0.1468  0.3441  0.1405
 2990TIP3    H130461   5.079   2.188  16.864  1.6069  0.5033  1.0717
 2990TIP3    H230462   5.095   2.256  16.999 -0.5749  2.7123  0.2539
 2991TIP3   OH230463   4.764   1.584   5.838 -0.4932 -0.1357 -0.2183
 2991TIP3    H130464   4.822   1.598   5.763 -1.1228  0.5507 -0.5775
 2991TIP3    H230465   4.690   1.643   5.823 -0.0930  0.8492  1.5058
 2992TIP3   OH230466   6.336   1.796   5.152  0.3690 -0.2167  0.5852
 2992TIP3    H130467   6.296   1.876   5.117  0.6213 -0.3460  0.0085
 2992TIP3    H230468   6.355   1.818   5.243  1.0835  0.6250  0.2380
 2993TIP3   OH230469   0.678   5.235  16.858  0.1191 -0.0905  0.3435
 2993TIP3    H130470   0.769   5.266  16.849  0.3460  0.0259  2.7962
 2993TIP3    H230471   0.665   5.178  16.782  2.3033 -0.2327  0.0443
 2994TIP3   OH230472   1.559   4.651  17.198 -0.3011  0.0977  0.2124
 2994TIP3    H130473   1.468   4.637  17.225 -0.2641 -0.5274  0.0301
 2994TIP3    H230474   1.553   4.705  17.119 -0.5756 -0.9226 -0.4732
 2995TIP3   OH230475   3.216   3.730   1.804  0.1481 -0.1532  0.3073
 2995TIP3    H130476   3.250   3.818   1.819  1.6876 -0.0272 -3.4800
 2995TIP3    H230477   3.134   3.744   1.756  0.9763 -0.8079 -1.3102
 2996TIP3   OH230478   2.089   4.538   2.687 -0.1428  0.5077  0.4468
 2996TIP3    H130479   2.146   4.534   2.764  2.1138 -1.8384 -1.2624
 2996TIP3    H230480   2.148   4.559   2.615 -1.6121 -0.9814 -1.2236
 2997TIP3   OH230481   2.327   2.482  17.027  0.6278  0.2208  0.3756
 2997TIP3    H130482   2.399   2.432  16.989  0.6753  0.3224  0.3349
 2997TIP3    H230483   2.368   2.534  17.096  0.3539 -0.8457  1.3693
 2998TIP3   OH230484   2.675   6.783   2.799  0.2551  0.0294 -0.0761
 2998TIP3    H130485   2.755   6.834   2.788 -0.4171  0.9421 -0.8241
 2998TIP3    H230486   2.705   6.694   2.813  1.3696  0.1324 -1.7176
 2999TIP3   OH230487   2.181   0.229   1.740  0.1213 -0.2002 -0.1683
 2999TIP3    H130488   2.273   0.206   1.756 -0.5376 -3.6617 -0.8413
 2999TIP3    H230489   2.131   0.164   1.789 -1.9686  0.9081 -0.7619
 3000TIP3   OH230490   4.468   2.243   5.393  0.0869 -0.0543  0.2692
 3000TIP3    H130491   4.514   2.286   5.321 -0.5603 -0.6099 -0.4912
 3000TIP3    H230492   4.504   2.283   5.472  1.4278 -0.0411 -0.3316
 3001TIP3   OH230493   3.617   6.398   0.474  0.2833 -0.1846 -0.1857
 3001TIP3    H130494   3.672   6.348   0.414 -1.9077 -1.9468 -0.7903
 3001TIP3    H230495   3.634   6.489   0.451  3.4399 -0.6506  0.1149
 3002TIP3   OH230496   1.055   4.491  16.519 -0.1359  0.2420 -0.4895
 3002TIP3    H130497   1.105   4.414  16.545 -0.1407  0.0209 -1.1162
 3002TIP3    H230498   1.095   4.564  16.567  1.6531  0.2833 -1.9897
 3003TIP3   OH230499   0.375   4.509   4.598 -0.5771  0.3886 -0.4103
 3003TIP3    H130500   0.457   4.459   4.601 -1.4693 -1.0464  1.3170
 3003TIP3    H230501   0.385   4.568   4.523  1.0102 -1.5253 -1.7589
 3004TIP3   OH230502   1.314   4.406  16.518  0.4514  0.1361  0.4771
 3004TIP3    H130503   1.317   4.333  16.456  1.6457  0.5017  0.0874
 3004TIP3    H230504   1.372   4.380  16.589  0.6471  0.5802  0.4822
 3005TIP3   OH230505   6.370   5.724  16.977  0.1841 -0.0915  0.5191
 3005TIP3    H130506   6.326   5.752  16.897  0.3200  1.3402  0.9286
 3005TIP3    H230507   6.457   5.697  16.949  0.7117  1.7376  0.3659
 3006TIP3   OH230508   5.033   3.416   0.612  0.1470 -0.2549 -0.5818
 3006TIP3    H130509   5.079   3.333   0.629 -2.8224 -1.9677 -0.6325
 3006TIP3    H230510   5.074   3.449   0.531  1.2067 -1.7782 -0.7057
 3007TIP3   OH230511   4.328   0.612  15.193  0.1136 -0.3221 -0.0931
 3007TIP3    H130512   4.273   0.614  15.271 -0.4135 -1.2211 -0.4333
 3007TIP3    H230513   4.290   0.677  15.134  0.8065  0.7135  0.5863
 3008TIP3   OH230514   5.594   2.537   4.242  0.4725  0.1444  0.0148
 3008TIP3    H130515   5.500   2.552   4.256  0.8538  1.8923  0.7681
 3008TIP3    H230516   5.598   2.495   4.156 -1.0007  0.0628 -0.0363
 3009TIP3   OH230517   1.073   0.616   0.139 -0.0513  0.2768  0.3124
 3009TIP3    H130518   1.165   0.637   0.127 -0.1203  0.4895  0.1477
 3009TIP3    H230519   1.062   0.607   0.234 -0.3058  2.3065  0.5043
 3010TIP3   OH230520   2.864   2.070  11.879 -0.4425  0.7694  0.1092
 3010TIP3    H130521   2.882   2.081  11.972  2.0635 -1.5730 -0.0241
 3010TIP3    H230522   2.821   2.151  11.853 -1.2747  1.4311  3.2996
 3011TIP3   OH230523   2.202   1.059  12.811 -0.0269  0.5843  0.2136
 3011TIP3    H130524   2.281   1.112  12.803  0.9183 -0.7458  0.4337
 3011TIP3    H230525   2.234   0.972  12.834 -1.7023  0.6138  2.8992
 3012TIP3   OH230526   4.633   3.208   5.878  0.1784 -0.3355 -0.0057
 3012TIP3    H130527   4.720   3.213   5.840 -0.2838  2.6859 -0.7713
 3012TIP3    H230528   4.578   3.175   5.807  0.0002  1.6739 -0.8363
 3013TIP3   OH230529   2.087   3.952  17.253 -0.6089  0.4792  0.6636
 3013TIP3    H130530   2.081   3.975  17.161  0.5890  2.5386  1.0669
 3013TIP3    H230531   1.997   3.959  17.285 -0.8170  1.1181 -0.0500
 3014TIP3   OH230532   3.033   4.790  13.776 -0.1729  0.1354  0.6850
 3014TIP3    H130533   3.107   4.797  13.715  0.5200  2.0941  1.7260
 3014TIP3    H230534   2.962   4.836  13.732 -0.8238 -1.8035 -0.3446
 3015TIP3   OH230535   0.165   0.813   1.237  0.1710 -0.7636 -0.0237
 3015TIP3    H130536   0.147   0.752   1.308 -1.3315 -0.4305 -0.1015
 3015TIP3    H230537   0.178   0.757   1.160  0.7941 -1.0751  0.3068
 3016TIP3   OH230538   6.798   0.882   0.839 -0.7724 -0.0792  0.0087
 3016TIP3    H130539   6.807   0.787   0.838 -2.6075 -0.2689  0.0475
 3016TIP3    H230540   6.744   0.901   0.916 -0.0136  1.0252  0.2764
 3017TIP3   OH230541   6.356   6.464   2.531  0.0501  0.2615 -0.0572
 3017TIP3    H130542   6.444   6.471   2.495  0.2718  2.4192  0.8520
 3017TIP3    H230543   6.298   6.468   2.455  0.7387 -1.8825 -0.7229
 3018TIP3   OH230544   4.001   2.629  14.800 -0.6318 -0.2654 -0.3125
 3018TIP3    H130545   3.985   2.626  14.895 -0.7729 -2.2536 -0.3645
 3018TIP3    H230546   3.920   2.665  14.763 -0.7087  0.1975  0.2975
 3019TIP3   OH230547   0.388   4.225   5.603 -0.4409  0.4231 -0.7100
 3019TIP3    H130548   0.393   4.317   5.629  0.7963 -0.0808  0.9511
 3019TIP3    H230549   0.423   4.177   5.678 -0.0224 -1.3464 -1.9991
 3020TIP3   OH230550   5.331   5.373  16.939  0.3259 -0.2368 -0.0500
 3020TIP3    H130551   5.406   5.404  16.990 -0.4601  0.0485  0.9340
 3020TIP3    H230552   5.306   5.291  16.981  0.6153 -0.7744 -0.9096
 3021TIP3   OH230553   4.802   2.312  10.581  0.2324  0.0523  0.8376
 3021TIP3    H130554   4.711   2.292  10.602  0.3962 -0.8010  0.7737
 3021TIP3    H230555   4.827   2.381  10.642 -0.8571  1.2320 -0.0400
 3022TIP3   OH230556   1.108   4.171   3.843 -0.1951  0.1457 -0.1067
 3022TIP3    H130557   1.159   4.099   3.807 -1.2294 -0.3823 -0.5469
 3022TIP3    H230558   1.021   4.134   3.857 -0.6587  1.2294 -0.0761
 3023TIP3   OH230559   1.439   4.119   2.505  0.5111  0.0788 -0.8652
 3023TIP3    H130560   1.439   4.150   2.596 -0.6462  0.6269 -1.0338
 3023TIP3    H230561   1.426   4.024   2.512 -3.0099  0.4848 -0.5007
 3024TIP3   OH230562   6.746   4.803  16.980 -0.0393 -0.2071 -0.3699
 3024TIP3    H130563   6.680   4.745  17.018 -0.2114 -0.3179 -0.8388
 3024TIP3    H230564   6.768   4.864  17.051 -1.7332  0.7750 -0.6643
 3025TIP3   OH230565   2.190   4.389  15.202 -0.0414 -0.4825  0.4711
 3025TIP3    H130566   2.187   4.295  15.188  1.0982 -0.4798  0.2108
 3025TIP3    H230567   2.122   4.405  15.268 -1.2133 -1.2842 -0.5313
 3026TIP3   OH230568   2.290   3.778  11.932 -0.2549 -0.0592 -0.6184
 3026TIP3    H130569   2.199   3.766  11.903 -0.6306  0.0949  0.4785
 3026TIP3    H230570   2.337   3.703  11.896 -1.0269 -0.6801 -0.3513
 3027TIP3   OH230571   5.064   5.931   1.758 -0.0680  0.1916  0.3915
 3027TIP3    H130572   5.007   5.929   1.835 -0.6635  0.8315 -0.0320
 3027TIP3    H230573   5.099   6.020   1.756 -0.2850  0.2629 -0.2458
 3028TIP3   OH230574   5.853   0.015   2.078  0.2741  0.0864 -0.3425
 3028TIP3    H130575   5.806  -0.045   2.136 -1.2930  0.7683 -0.8559
 3028TIP3    H230576   5.825   0.102   2.107  0.1972  0.4628 -1.5187
 3029TIP3   OH230577   6.283   0.417  12.880  0.3635 -0.2106  0.1717
 3029TIP3    H130578   6.219   0.485  12.903 -0.9798 -1.7842  1.1456
 3029TIP3    H230579   6.305   0.436  12.788 -0.6516  1.0137  0.1609
 3030TIP3   OH230580   3.913   4.275   3.790  0.1117  0.7347 -0.3015
 3030TIP3    H130581   3.979   4.320   3.843  0.0699  0.3783  0.0555
 3030TIP3    H230582   3.922   4.183   3.814  0.2295  0.5466 -1.0679
 3031TIP3   OH230583   0.292   2.935  11.590  0.9106 -0.6416  0.7194
 3031TIP3    H130584   0.234   2.881  11.644  0.3902 -0.4742  0.3278
 3031TIP3    H230585   0.269   2.911  11.500  2.4158 -1.6068  0.5769
 3032TIP3   OH230586   5.119   6.555  11.437  0.2466 -0.1632  0.0180
 3032TIP3    H130587   5.163   6.610  11.502  0.0534 -0.3881  0.3378
 3032TIP3    H230588   5.051   6.611  11.400  0.0125 -0.2055  0.3841
 3033TIP3   OH230589   5.058   2.516   0.413 -0.5151 -0.0128  0.1608
 3033TIP3    H130590   5.104   2.584   0.364 -0.2907 -0.1139  0.2299
 3033TIP3    H230591   4.966   2.541   0.409 -0.7622 -1.1804 -2.1497
 3034TIP3   OH230592   3.892   4.238   4.206 -0.0921  0.2008  0.4163
 3034TIP3    H130593   3.844   4.182   4.267  0.6002 -1.9131 -0.9109
 3034TIP3    H230594   3.830   4.254   4.135  0.0827  0.1675  0.2557
 3035TIP3   OH230595   2.772   0.949  15.161  0.3372 -0.1432 -0.2056
 3035TIP3    H130596   2.784   0.913  15.073  0.4416 -1.1006  0.1981
 3035TIP3    H230597   2.698   0.901  15.197  0.5591 -0.0499  0.3866
 3036TIP3   OH230598   3.932   3.872  11.429  0.0397 -0.0074 -0.1385
 3036TIP3    H130599   3.855   3.817  11.422  0.0325 -0.2007  1.3041
 3036TIP3    H230600   3.939   3.915  11.344 -0.9013 -0.9757 -0.7129
 3037TIP3   OH230601   5.792   4.555   2.606 -0.6720  0.0159 -0.1307
 3037TIP3    H130602   5.738   4.541   2.684 -2.2549 -1.3158 -1.4117
 3037TIP3    H230603   5.882   4.553   2.638 -1.2087 -2.6205  1.3938
 3038TIP3   OH230604   3.405   3.759  14.016 -0.2256 -0.5032  0.6742
 3038TIP3    H130605   3.383   3.671  14.046  1.3220 -1.2432 -0.3054
 3038TIP3    H230606   3.382   3.816  14.090 -1.5856 -1.6797  1.1677
 3039TIP3   OH230607   6.798   3.133  11.169  0.0764  0.1668  0.1341
 3039TIP3    H130608   6.729   3.117  11.234  0.8163  0.9529  1.1288
 3039TIP3    H230609   6.812   3.048  11.127  0.4338 -0.6272  1.8332
 3040TIP3   OH230610   4.687   0.308   5.521 -0.8197  0.0999  0.0990
 3040TIP3    H130611   4.605   0.308   5.471 -0.7670  1.2957 -0.0023
 3040TIP3    H230612   4.672   0.371   5.591 -0.8180 -1.4257  1.4893
 3041TIP3   OH230613   1.657   3.234  11.130  0.1491  0.4220  0.1813
 3041TIP3    H130614   1.740   3.281  11.123  0.2106  0.2587 -0.1699
 3041TIP3    H230615   1.677   3.144  11.104  0.4654 -0.2846  2.7122
 3042TIP3   OH230616   0.145   5.218  13.759  0.0567 -0.5780  0.3978
 3042TIP3    H130617   0.110   5.296  13.803  0.2188 -0.2403 -0.0672
 3042TIP3    H230618   0.149   5.243  13.666  0.1396 -1.1296  0.2543
 3043TIP3   OH230619   0.865   2.904   5.939 -0.0073 -0.2853  0.1392
 3043TIP3    H130620   0.959   2.904   5.921 -0.3672  0.3185 -1.8723
 3043TIP3    H230621   0.852   2.827   5.995  1.6179 -0.6611  0.0368
 3044TIP3   OH230622   4.187   6.014  15.284 -0.5485 -0.1126 -0.5959
 3044TIP3    H130623   4.279   5.990  15.298 -0.1861  0.9562 -1.0784
 3044TIP3    H230624   4.139   5.965  15.351  0.6809  1.4178  1.4830
 3045TIP3   OH230625   4.099   1.650  15.927 -0.2103  0.4157  0.5579
 3045TIP3    H130626   4.051   1.726  15.895  1.3682  1.1447 -0.1517
 3045TIP3    H230627   4.041   1.610  15.991 -3.1735 -0.6363 -2.5948
 3046TIP3   OH230628   6.169   3.400  14.897 -0.2215  0.1549 -0.0331
 3046TIP3    H130629   6.174   3.407  14.802 -1.8739 -1.2666 -0.2514
 3046TIP3    H230630   6.152   3.490  14.927  0.7128  0.6754 -1.0271
 3047TIP3   OH230631   6.372   1.549   6.426  0.3481 -0.6210 -0.4767
 3047TIP3    H130632   6.447   1.606   6.442  0.3165 -0.0600 -2.2741
 3047TIP3    H230633   6.307   1.575   6.492  0.7852  0.5825 -0.5167
 3048TIP3   OH230634   0.704   1.991   0.542  0.2127  0.3037 -0.4127
 3048TIP3    H130635   0.649   1.930   0.494 -0.0182  1.2938 -1.4279
 3048TIP3    H230636   0.788   1.946   0.552 -0.4436 -0.7915  0.2195
 3049TIP3   OH230637   2.135   0.117   3.047  0.1433  0.3040  0.0360
 3049TIP3    H130638   2.176   0.076   3.123  1.4327  1.4050 -0.0384
 3049TIP3    H230639   2.167   0.207   3.049 -0.2717  0.4978 -1.4755
 3050TIP3   OH230640   6.636   1.726   0.236  0.2216 -0.5425 -1.1710
 3050TIP3    H130641   6.655   1.815   0.206 -2.8660  2.3723  4.6069
 3050TIP3    H230642   6.540   1.722   0.237  0.3030 -2.8764  1.4617
 3051TIP3   OH230643   5.370   1.143   1.880  0.4413  0.2830  0.2724
 3051TIP3    H130644   5.439   1.199   1.916  1.4582 -0.1689 -0.9144
 3051TIP3    H230645   5.291   1.195   1.887  0.6683  0.3511  2.7813
 3052TIP3   OH230646   1.165   2.848  14.720  0.1450 -0.4185  0.0384
 3052TIP3    H130647   1.208   2.903  14.785 -0.4036  1.8915 -1.4922
 3052TIP3    H230648   1.235   2.818  14.662  0.4077 -1.1050  0.7111
 3053TIP3   OH230649   5.065   0.597  13.757  0.2036  0.4464 -0.1704
 3053TIP3    H130650   4.978   0.566  13.728 -0.1552  2.9001 -1.8673
 3053TIP3    H230651   5.091   0.534  13.824 -2.4241 -0.9620 -0.3789
 3054TIP3   OH230652   3.346   0.354  15.811 -0.1261  0.0764  0.1028
 3054TIP3    H130653   3.320   0.437  15.850  0.2068  0.1408  0.1939
 3054TIP3    H230654   3.431   0.372  15.771  0.3198 -0.4278  0.8140
 3055TIP3   OH230655   3.002   1.238  11.193  0.0984  0.5240 -0.1996
 3055TIP3    H130656   2.937   1.287  11.142 -0.8673  0.9832  1.4485
 3055TIP3    H230657   3.010   1.154  11.147 -1.2589  0.6812 -0.7471
 3056TIP3   OH230658   2.836   2.416   1.805 -0.3171  0.3498  0.5231
 3056TIP3    H130659   2.864   2.326   1.820 -0.3804  0.3452  0.6160
 3056TIP3    H230660   2.883   2.468   1.871 -0.0110  0.4329  0.2418
 3057TIP3   OH230661   3.132   0.404   0.881 -0.1145 -0.5874 -0.5399
 3057TIP3    H130662   3.214   0.393   0.834 -0.7728  1.6765 -2.3401
 3057TIP3    H230663   3.064   0.390   0.814 -1.1400 -0.2574  0.4044
 3058TIP3   OH230664   1.075   1.237   3.073 -0.2930  0.3799 -0.3973
 3058TIP3    H130665   1.136   1.289   3.125 -1.2295  1.5784 -0.4884
 3058TIP3    H230666   1.054   1.292   2.997 -0.1625 -0.7163 -1.2480
 3059TIP3   OH230667   1.860   3.493   0.980 -0.3906 -0.3129  0.5797
 3059TIP3    H130668   1.930   3.559   0.982 -0.7746  0.1898 -1.4392
 3059TIP3    H230669   1.814   3.505   1.063  0.1533  1.2970  0.6749
 3060TIP3   OH230670   0.640   0.528  13.019  0.0424  0.1276 -0.7085
 3060TIP3    H130671   0.556   0.483  13.029 -1.3990  3.0416  0.9804
 3060TIP3    H230672   0.704   0.467  13.057 -1.8188 -0.5754  1.4662
 3061TIP3   OH230673   6.618   5.882   3.982  0.1432  0.2883 -0.0312
 3061TIP3    H130674   6.584   5.890   4.072  1.5643  1.2598  0.4250
 3061TIP3    H230675   6.603   5.967   3.943  1.8458  0.6602  0.1055
 3062TIP3   OH230676   0.862   5.226  16.370  0.5605  0.0876 -0.2847
 3062TIP3    H130677   0.914   5.290  16.321 -1.2603  1.0272 -1.0187
 3062TIP3    H230678   0.772   5.246  16.347 -0.0729 -2.4205 -0.1143
 3063TIP3   OH230679   4.223   3.428   5.359  0.0746 -0.4191 -0.5763
 3063TIP3    H130680   4.259   3.386   5.281  0.9403 -0.7337 -0.0198
 3063TIP3    H230681   4.300   3.446   5.414 -0.2834  1.8078 -0.7643
 3064TIP3   OH230682   3.563   5.279   0.131  0.2308  0.3409 -0.2467
 3064TIP3    H130683   3.600   5.233   0.206  1.1583 -0.6974 -1.3091
 3064TIP3    H230684   3.613   5.246   0.056 -2.4072 -0.6692 -1.6540
 3065TIP3   OH230685   4.249   3.980  12.745 -0.1627  0.2006 -0.0178
 3065TIP3    H130686   4.207   4.000  12.829 -1.4606  0.3666 -0.6901
 3065TIP3    H230687   4.295   4.061  12.721  0.4440  0.0628  0.6574
 3066TIP3   OH230688   0.310   6.361  12.351 -0.1942 -0.0319  0.2685
 3066TIP3    H130689   0.375   6.385  12.285 -0.9109 -0.2615 -0.5293
 3066TIP3    H230690   0.332   6.414  12.428  1.3707 -0.6418  0.2464
 3067TIP3   OH230691   5.886   1.980  12.078  0.4523 -0.3624 -0.0889
 3067TIP3    H130692   5.951   2.047  12.100 -0.2345 -0.1822  1.5235
 3067TIP3    H230693   5.835   2.017  12.006 -1.0392  1.6405  1.9197
 3068TIP3   OH230694   1.814   4.151  15.983  0.8858 -0.5598 -0.3225
 3068TIP3    H130695   1.755   4.220  15.951  1.2618  0.3516  0.9086
 3068TIP3    H230696   1.892   4.197  16.013  0.2806 -1.2761  2.5325
 3069TIP3   OH230697   5.889   3.206  14.953  0.1396  0.2563  0.0606
 3069TIP3    H130698   5.883   3.165  14.867  2.1910 -1.0822  0.5027
 3069TIP3    H230699   5.818   3.166  15.004  0.2299 -0.5148 -0.4104
 3070TIP3   OH230700   3.528   1.668   4.603  0.1723 -0.3004  0.0104
 3070TIP3    H130701   3.573   1.648   4.521 -2.6024 -0.1920 -1.6117
 3070TIP3    H230702   3.520   1.583   4.648  3.1593 -0.1032  0.9966
 3071TIP3   OH230703   4.759   5.974  15.399 -0.1266  0.2973 -0.0401
 3071TIP3    H130704   4.841   5.940  15.434 -0.3240  0.9681  1.0962
 3071TIP3    H230705   4.752   5.935  15.312  0.8408 -0.6367  0.2939
 3072TIP3   OH230706   0.668   4.789   0.624 -0.3867  0.1815  0.1556
 3072TIP3    H130707   0.674   4.845   0.701 -0.0784 -2.2378  1.9672
 3072TIP3    H230708   0.575   4.792   0.599 -0.9790 -0.8188  2.0884
 3073TIP3   OH230709   2.903   1.200  12.269  0.3511  0.2484  0.2890
 3073TIP3    H130710   2.937   1.112  12.282 -0.1740  0.0602  0.4086
 3073TIP3    H230711   2.851   1.194  12.189  1.1638  0.7001 -0.2805
 3074TIP3   OH230712   1.363   1.675  16.586 -0.4678 -0.2560 -0.0044
 3074TIP3    H130713   1.317   1.651  16.506 -0.1738 -2.6027  0.5054
 3074TIP3    H230714   1.443   1.719  16.556 -1.7629  1.5224 -0.9258
 3075TIP3   OH230715   5.428   2.084   1.338 -0.2734 -0.3737 -0.1816
 3075TIP3    H130716   5.506   2.087   1.394 -0.3004 -0.0484 -0.1574
 3075TIP3    H230717   5.441   2.156   1.276 -0.9914  0.2780  0.4111
 3076TIP3   OH230718   6.254   1.845  16.939  0.1728  0.5344  0.5362
 3076TIP3    H130719   6.203   1.904  16.885  0.8645  1.6601  1.0904
 3076TIP3    H230720   6.345   1.874  16.927  0.8285 -2.0321 -1.2014
 3077TIP3   OH230721   0.931   1.556  14.620  0.1985 -0.3769 -0.0272
 3077TIP3    H130722   0.971   1.579  14.536  1.0823 -3.1176 -0.4026
 3077TIP3    H230723   0.858   1.618  14.630  0.2958  0.1996 -2.6409
 3078TIP3   OH230724   0.207   6.454  11.489 -0.7275 -0.1343 -0.0188
 3078TIP3    H130725   0.221   6.359  11.483  1.8164  0.3134 -1.4035
 3078TIP3    H230726   0.147   6.474  11.418 -0.4524 -0.5412 -0.3667
 3079TIP3   OH230727   3.524   0.599   2.594 -0.4687 -0.4577  0.0732
 3079TIP3    H130728   3.503   0.605   2.501 -0.7113 -1.1876  0.0806
 3079TIP3    H230729   3.538   0.506   2.610  2.6767 -0.0363  0.1009
 3080TIP3   OH230730   6.134   4.854   6.134  0.0655 -0.0821  0.0250
 3080TIP3    H130731   6.181   4.924   6.180 -0.2776  0.0544  0.1692
 3080TIP3    H230732   6.042   4.870   6.154 -0.0500 -0.2989 -0.3258
 3081TIP3   OH230733   1.482   6.646   1.634  0.0009  0.3884  0.5266
 3081TIP3    H130734   1.482   6.681   1.723 -0.6681 -1.4126  1.2632
 3081TIP3    H230735   1.417   6.699   1.587 -0.1764  0.8758  1.3131
 3082TIP3   OH230736   4.011   5.810   3.596 -0.1806 -0.2748 -0.0251
 3082TIP3    H130737   4.050   5.891   3.563 -1.0518  1.1843  2.4043
 3082TIP3    H230738   4.040   5.805   3.687  0.2111 -2.9437 -0.2741
 3083TIP3   OH230739   5.947   3.870   2.699 -0.4658  0.2574  0.3348
 3083TIP3    H130740   5.928   3.824   2.780  0.4497 -0.0636  0.3628
 3083TIP3    H230741   5.879   3.840   2.638  0.4272 -1.5366  0.1883
 3084TIP3   OH230742   2.039   0.360  11.459 -0.7733 -0.4409 -0.1491
 3084TIP3    H130743   2.086   0.317  11.389 -1.0536 -0.2669 -0.4491
 3084TIP3    H230744   1.953   0.318  11.460 -1.3495  0.6791 -1.0116
 3085TIP3   OH230745   3.552   1.894  16.437  0.5053  0.1151  0.3448
 3085TIP3    H130746   3.559   1.814  16.385 -0.5233  0.8747 -1.0045
 3085TIP3    H230747   3.478   1.941  16.398  0.4172  1.2155  1.8115
 3086TIP3   OH230748   2.232   6.451   0.309 -0.0882 -0.6205  0.1167
 3086TIP3    H130749   2.252   6.428   0.400 -0.2837 -0.3164  0.2352
 3086TIP3    H230750   2.269   6.379   0.258  0.9018 -0.2973  0.3673
 3087TIP3   OH230751   6.545   1.216  15.193 -0.0835  0.2790 -0.3825
 3087TIP3    H130752   6.633   1.193  15.164  0.6394  1.2822  0.9689
 3087TIP3    H230753   6.491   1.204  15.115  0.9103 -2.0999 -0.7756
 3088TIP3   OH230754   3.386   4.680  13.994  0.1287 -0.0823 -0.1016
 3088TIP3    H130755   3.313   4.625  13.964 -0.6808 -0.6155  2.7208
 3088TIP3    H230756   3.400   4.742  13.922 -0.5703 -2.3729 -2.3015
 3089TIP3   OH230757   0.109   3.448  13.673 -0.3964  0.8382  0.4412
 3089TIP3    H130758   0.096   3.398  13.753 -1.4604 -1.5702 -1.1623
 3089TIP3    H230759   0.049   3.522  13.681 -1.5878 -0.1937  1.2302
 3090TIP3   OH230760   5.906   1.974  15.523 -0.3791  0.1064 -1.0967
 3090TIP3    H130761   5.857   1.940  15.448 -0.3138 -1.4360 -0.4394
 3090TIP3    H230762   5.867   1.933  15.599 -1.0998  2.4273 -0.1658
 3091TIP3   OH230763   0.062   3.679   0.772 -0.0967  0.2841  0.3791
 3091TIP3    H130764   0.099   3.592   0.791 -0.4977 -0.4808 -2.1784
 3091TIP3    H230765   0.136   3.730   0.740  0.1002  0.8574  1.7108
 3092TIP3   OH230766   1.258   5.172   5.909  0.5476 -0.7144 -0.3676
 3092TIP3    H130767   1.282   5.154   6.000 -1.2785  0.3353  0.3422
 3092TIP3    H230768   1.320   5.120   5.858  1.4769 -1.4745  1.4674
 3093TIP3   OH230769   0.841   4.746   2.195  0.2164 -0.5839 -0.5654
 3093TIP3    H130770   0.868   4.737   2.286 -0.1143 -1.4952 -0.5530
 3093TIP3    H230771   0.830   4.840   2.182 -0.7907 -0.5392  0.6319
 3094TIP3   OH230772   4.288   5.986   2.477  0.5992  0.2516 -0.2752
 3094TIP3    H130773   4.366   5.959   2.428 -0.5930 -1.2965 -1.3868
 3094TIP3    H230774   4.298   5.946   2.563  1.3627  0.6391 -0.1818
 3095TIP3   OH230775   3.173   4.500   2.482 -0.6689  0.5683 -0.6361
 3095TIP3    H130776   3.261   4.463   2.488 -0.6774  0.4476 -1.2421
 3095TIP3    H230777   3.165   4.555   2.560 -0.2515  0.1615 -0.3054
 3096TIP3   OH230778   4.726   4.673  12.512 -0.1490 -0.3041  0.1064
 3096TIP3    H130779   4.738   4.699  12.603 -0.1458 -2.7046  0.8241
 3096TIP3    H230780   4.639   4.705  12.489  0.2709  1.2391  0.5947
 3097TIP3   OH230781   3.050   5.846   4.523 -0.2189 -0.3849  1.0114
 3097TIP3    H130782   3.014   5.852   4.612  1.7293 -0.5198  1.8188
 3097TIP3    H230783   2.991   5.900   4.471 -0.5310  0.9486  2.6676
 3098TIP3   OH230784   6.130   5.119  14.231 -0.4852 -0.0994  0.1112
 3098TIP3    H130785   6.131   5.191  14.168 -0.9750 -0.1756  0.0202
 3098TIP3    H230786   6.205   5.137  14.288  0.2310 -0.2738 -0.7675
 3099TIP3   OH230787   5.525   5.220  12.184  0.0831 -0.2971  0.1265
 3099TIP3    H130788   5.502   5.312  12.193  1.0335  0.0694 -0.9319
 3099TIP3    H230789   5.610   5.212  12.226  1.2974 -0.0641 -2.2035
 3100TIP3   OH230790   5.358   0.673   2.209  0.2196  0.1636  0.6655
 3100TIP3    H130791   5.300   0.670   2.133 -0.6286  0.5309  1.2996
 3100TIP3    H230792   5.371   0.766   2.225 -0.4492  0.0924  1.6225
 3101TIP3   OH230793   4.311   2.174  13.982  0.7732  0.0178  0.2473
 3101TIP3    H130794   4.260   2.206  13.907  0.6496  1.9052  1.1158
 3101TIP3    H230795   4.258   2.104  14.019  1.5844 -2.1003 -2.3916
 3102TIP3   OH230796   0.422   3.908   2.643 -0.0727  0.5552  0.1074
 3102TIP3    H130797   0.350   3.904   2.580 -1.1334 -1.6001  1.3950
 3102TIP3    H230798   0.497   3.872   2.597 -0.8551 -1.0437  0.0821
 3103TIP3   OH230799   1.319   0.894  11.248 -0.1720 -0.4147  0.1537
 3103TIP3    H130800   1.230   0.927  11.238  0.2243  0.8928  0.8905
 3103TIP3    H230801   1.316   0.807  11.208 -1.8465 -0.5148  0.4438
 3104TIP3   OH230802   0.880   3.341   0.466  0.1093  0.2379  0.0939
 3104TIP3    H130803   0.922   3.280   0.527  1.5902  0.6155 -0.5195
 3104TIP3    H230804   0.833   3.284   0.405  0.6260 -0.2560  0.1469
 3105TIP3   OH230805   6.225   4.567  13.029  0.4303  0.4464 -0.2653
 3105TIP3    H130806   6.176   4.592  12.950 -1.3561  0.4796  0.8219
 3105TIP3    H230807   6.218   4.472  13.033 -0.8570  0.5578  0.6814
 3106TIP3   OH230808   0.551   2.705   4.085  0.2057 -0.2026  0.0872
 3106TIP3    H130809   0.485   2.774   4.091 -1.0157 -1.2096 -1.4220
 3106TIP3    H230810   0.626   2.747   4.043  0.5481  0.9478  1.8106
 3107TIP3   OH230811   3.006   1.731   1.149 -0.3173 -0.0205 -0.2716
 3107TIP3    H130812   2.953   1.749   1.228  1.2171 -0.4376  0.8642
 3107TIP3    H230813   2.968   1.651   1.113 -0.9023  0.0579  0.1515
 3108TIP3   OH230814   6.789   2.478   1.070  0.0760  0.3185 -0.0038
 3108TIP3    H130815   6.842   2.475   1.149  1.0906 -0.0055 -0.6839
 3108TIP3    H230816   6.704   2.444   1.096  0.0061  1.4103  1.2465
 3109TIP3   OH230817   6.517   6.251   6.614 -0.0353  0.2363  0.4209
 3109TIP3    H130818   6.434   6.209   6.641  1.0014 -1.4932  0.9944
 3109TIP3    H230819   6.510   6.340   6.648 -1.4223 -0.0665  0.9835
 3110TIP3   OH230820   1.862   2.718  12.222  0.7831 -0.2456  0.3010
 3110TIP3    H130821   1.888   2.809  12.235 -0.1998  0.3712 -1.8590
 3110TIP3    H230822   1.767   2.718  12.230  0.6450 -0.7946 -1.0782
 3111TIP3   OH230823   4.576   4.093   2.788 -0.5646 -0.0569 -0.1839
 3111TIP3    H130824   4.572   4.022   2.724 -1.5998 -0.0558 -0.1265
 3111TIP3    H230825   4.610   4.168   2.738 -1.9337  0.1058 -0.8973
 3112TIP3   OH230826   0.730   2.394   2.174 -0.6424  0.2022 -0.6755
 3112TIP3    H130827   0.712   2.483   2.145 -1.5260  0.0036 -0.7497
 3112TIP3    H230828   0.754   2.347   2.094 -0.8054  0.2109 -0.7280
 3113TIP3   OH230829   0.606   6.041   5.486 -0.3243  0.1224 -0.4551
 3113TIP3    H130830   0.671   5.976   5.513 -0.4251 -0.0259 -0.5666
 3113TIP3    H230831   0.577   6.082   5.568  0.6927  0.9402 -0.4998
 3114TIP3   OH230832   6.765   5.732   0.274 -0.1963 -0.0607 -0.5510
 3114TIP3    H130833   6.830   5.671   0.238  0.2798  2.2671 -3.9184
 3114TIP3    H230834   6.815   5.809   0.300 -1.2153  0.4991 -0.1894
 3115TIP3   OH230835   1.337   6.359  12.335  0.1007  0.3800 -0.0388
 3115TIP3    H130836   1.413   6.317  12.293 -0.8056 -0.5736 -0.7560
 3115TIP3    H230837   1.375   6.431  12.385  1.4918 -0.0858 -0.3750
 3116TIP3   OH230838   2.606   6.503  15.250  0.0779  0.1308 -0.3475
 3116TIP3    H130839   2.647   6.564  15.189  0.5096  0.2284  0.0394
 3116TIP3    H230840   2.626   6.416  15.214  1.3826  0.1457  0.3118
 3117TIP3   OH230841   0.500   0.354   1.721  0.6443  0.3453 -0.2514
 3117TIP3    H130842   0.506   0.447   1.701  0.1479  0.0597 -1.8403
 3117TIP3    H230843   0.508   0.310   1.635  2.1645 -1.1359  0.6060
 3118TIP3   OH230844   5.256   3.683  13.403 -0.5064 -0.3292  0.3308
 3118TIP3    H130845   5.238   3.696  13.497 -1.2038  1.5831 -0.0514
 3118TIP3    H230846   5.170   3.687  13.362  0.1027  2.3326 -0.7782
 3119TIP3   OH230847   3.054   2.950   1.804  0.1992 -0.3738 -0.4028
 3119TIP3    H130848   3.133   2.954   1.751  2.1681 -1.0269  2.3637
 3119TIP3    H230849   3.065   3.018   1.870 -0.9503 -1.3028  0.8008
 3120TIP3   OH230850   1.337   0.502   4.766  0.6345 -0.7901 -0.2176
 3120TIP3    H130851   1.283   0.482   4.689 -0.8456  2.7462 -0.1893
 3120TIP3    H230852   1.280   0.481   4.841  0.2513  0.3877 -0.1660
 3121TIP3   OH230853   3.661   2.377  13.651  0.5020 -0.5334  0.3389
 3121TIP3    H130854   3.630   2.328  13.727 -2.8060  1.0782  0.1020
 3121TIP3    H230855   3.657   2.314  13.579 -0.6698 -0.8056  0.6350
 3122TIP3   OH230856   5.877   4.177   5.514 -0.4559 -0.1797  0.0175
 3122TIP3    H130857   5.844   4.251   5.564 -1.1097 -0.2192 -0.3433
 3122TIP3    H230858   5.802   4.150   5.460  0.3605  0.1109 -1.2590
 3123TIP3   OH230859   0.535   2.236   0.769 -0.1311 -0.0612 -0.0610
 3123TIP3    H130860   0.553   2.325   0.797  0.0343  0.1924 -0.9543
 3123TIP3    H230861   0.544   2.183   0.848 -0.3788  0.7359  0.4945
 3124TIP3   OH230862   4.862   4.251   5.035  0.1310 -0.2465  0.4373
 3124TIP3    H130863   4.780   4.251   5.083  1.0866 -1.1501  2.1091
 3124TIP3    H230864   4.840   4.215   4.949 -1.1751 -0.6229  0.9279
 3125TIP3   OH230865   6.755   4.702   3.873  0.2388  0.2668  0.0787
 3125TIP3    H130866   6.811   4.658   3.809  1.2947  2.2912 -0.4364
 3125TIP3    H230867   6.762   4.648   3.952 -0.8143 -2.0596 -1.3737
 3126TIP3   OH230868   5.123   4.785   1.990  0.3402 -0.1379  0.2215
 3126TIP3    H130869   5.170   4.716   2.036  0.9962 -0.2743 -0.6509
 3126TIP3    H230870   5.105   4.850   2.057 -1.3333 -1.6838  1.3236
 3127TIP3   OH230871   5.365   3.423  12.866  0.6312 -0.0496  0.0829
 3127TIP3    H130872   5.324   3.430  12.780 -5.0316 -2.7723  2.3627
 3127TIP3    H230873   5.411   3.339  12.864  0.0486 -0.3607 -0.0644
 3128TIP3   OH230874   3.175   0.746  12.782 -0.8219 -0.0195  0.0373
 3128TIP3    H130875   3.115   0.777  12.714  1.7015 -0.3832 -2.4758
 3128TIP3    H230876   3.193   0.655  12.758 -1.4269 -0.7703  2.3629
 3129TIP3   OH230877   4.443   2.362   3.165 -0.2079 -0.0068 -0.4668
 3129TIP3    H130878   4.419   2.275   3.198  1.4430 -0.5283 -0.6111
 3129TIP3    H230879   4.405   2.366   3.077 -2.8133  0.5797  0.6185
 3130TIP3   OH230880   3.946   6.334  11.427 -0.3399  0.6253 -0.2233
 3130TIP3    H130881   4.034   6.296  11.430  0.1830  1.8761  0.4423
 3130TIP3    H230882   3.917   6.318  11.337  0.0360 -0.9761 -0.0668
 3131TIP3   OH230883   4.877   0.515  12.461  0.1831  0.0522  0.0596
 3131TIP3    H130884   4.829   0.518  12.379  2.1879 -0.1074 -1.1508
 3131TIP3    H230885   4.964   0.549  12.440  0.9550 -0.6279  1.9554
 3132TIP3   OH230886   4.004   4.293   3.205  0.4670 -0.6856  0.1303
 3132TIP3    H130887   4.036   4.259   3.289  2.0032  2.6570  1.0031
 3132TIP3    H230888   4.081   4.333   3.164 -0.9709  0.7167 -1.3064
 3133TIP3   OH230889   0.516   2.329  15.041  0.0006  0.1512 -0.3694
 3133TIP3    H130890   0.486   2.248  15.083 -0.3891  0.0128 -0.9060
 3133TIP3    H230891   0.610   2.316  15.028  0.2426  0.4722  1.0721
 3134TIP3   OH230892   5.908   5.336   0.667 -0.6027  0.5647 -0.2011
 3134TIP3    H130893   5.977   5.398   0.642  0.0127  0.6295  1.5294
 3134TIP3    H230894   5.866   5.311   0.585  1.3999  0.6483 -1.2761
 3135TIP3   OH230895   1.357   2.261  15.005  0.1242 -0.3752 -0.1730
 3135TIP3    H130896   1.292   2.257  14.934  0.0057  0.4197 -0.1130
 3135TIP3    H230897   1.439   2.283  14.961 -0.0382  0.5694 -0.0156
 3136TIP3   OH230898   3.241   3.178  12.190 -0.1888 -0.4747 -0.0152
 3136TIP3    H130899   3.172   3.140  12.246 -0.0805 -0.9670 -0.2117
 3136TIP3    H230900   3.322   3.147  12.229 -0.0818 -0.0444  0.1052
 3137TIP3   OH230901   0.375   2.150   2.400  0.7677  0.1752  0.2017
 3137TIP3    H130902   0.364   2.243   2.422  0.2434  0.3411 -0.7579
 3137TIP3    H230903   0.380   2.148   2.305 -2.0151 -1.0764  0.0428
 3138TIP3   OH230904   1.406   4.105  16.726  0.1982  0.3512 -0.6879
 3138TIP3    H130905   1.478   4.165  16.710  2.9647 -1.9223  2.5284
 3138TIP3    H230906   1.378   4.124  16.815 -0.4112 -1.5586 -0.4439
 3139TIP3   OH230907   0.038   1.788  14.025 -0.2792 -0.7545 -0.0181
 3139TIP3    H130908   0.090   1.846  13.970 -0.2411  1.2361  2.0145
 3139TIP3    H230909   0.091   1.710  14.036  1.7696  0.7257  0.9817
 3140TIP3   OH230910   2.628   5.498   3.880  0.3666 -0.4485 -0.1704
 3140TIP3    H130911   2.674   5.438   3.821 -1.0796  0.0587 -1.8595
 3140TIP3    H230912   2.546   5.453   3.901  1.1614 -0.9143  2.0241
 3141TIP3   OH230913   1.837   3.385  16.921  0.3968  0.2588  0.2389
 3141TIP3    H130914   1.827   3.310  16.979 -0.4063 -1.0042 -1.4931
 3141TIP3    H230915   1.787   3.455  16.964  3.4725  0.7152  3.2854
 3142TIP3   OH230916   1.509   5.522  12.218 -0.8253  0.0696  0.0777
 3142TIP3    H130917   1.578   5.486  12.162  0.1529  0.6714  0.8808
 3142TIP3    H230918   1.462   5.583  12.162 -2.7053 -2.6211 -1.4076
 3143TIP3   OH230919   3.261   1.408   1.934 -0.5141 -0.4590 -0.0746
 3143TIP3    H130920   3.167   1.398   1.951  0.2073 -3.0377  2.9101
 3143TIP3    H230921   3.292   1.319   1.920  1.9225  0.0588  1.6966
 3144TIP3   OH230922   4.639   6.344  12.399 -0.0851 -0.0721 -0.2608
 3144TIP3    H130923   4.626   6.413  12.465  0.7778  0.1961 -0.3648
 3144TIP3    H230924   4.734   6.342  12.385 -0.2616 -0.1183 -1.5031
 3145TIP3   OH230925   4.707   1.599  11.452  0.2915  0.3719  0.4890
 3145TIP3    H130926   4.684   1.569  11.364  1.0548  1.2398 -0.0199
 3145TIP3    H230927   4.624   1.618  11.494 -0.1467 -1.2565  0.3989
 3146TIP3   OH230928   2.586   3.464   0.127  0.5623  0.3744  0.2212
 3146TIP3    H130929   2.492   3.461   0.109  0.6929  1.1293 -0.6412
 3146TIP3    H230930   2.612   3.373   0.136 -0.0733  0.1132 -0.5072
 3147TIP3   OH230931   3.757   5.012  15.474  0.2751  0.2912 -0.1212
 3147TIP3    H130932   3.784   5.037  15.563  0.5847  1.4108 -0.5106
 3147TIP3    H230933   3.662   5.009  15.478  0.1902  2.1941 -0.1973
 3148TIP3   OH230934   2.165   1.623  10.310 -0.3440  0.2868 -0.0166
 3148TIP3    H130935   2.079   1.619  10.351  0.3748  0.4811  1.5562
 3148TIP3    H230936   2.226   1.623  10.384  1.0388 -0.9392 -1.1416
 3149TIP3   OH230937   1.328   0.767  15.264 -0.0682  0.0784 -0.5193
 3149TIP3    H130938   1.240   0.731  15.279 -0.0224 -0.4718 -1.5068
 3149TIP3    H230939   1.337   0.836  15.329 -1.4701  0.5387 -0.7865
 3150TIP3   OH230940   2.490   6.381   5.129 -0.4046 -0.3954 -0.4514
 3150TIP3    H130941   2.443   6.391   5.212  1.5449  0.8459  0.5256
 3150TIP3    H230942   2.431   6.329   5.075 -1.1772 -2.3351  2.1437
 3151TIP3   OH230943   6.086   5.957   5.200 -0.1933  0.6790 -0.2805
 3151TIP3    H130944   6.135   6.033   5.168 -1.5049  1.9516  0.7241
 3151TIP3    H230945   6.109   5.950   5.292 -1.2184  0.7469 -0.0151
 3152TIP3   OH230946   5.205   1.431   6.140  0.1895  0.4088  0.3265
 3152TIP3    H130947   5.196   1.488   6.216 -0.9206  0.6399  0.0288
 3152TIP3    H230948   5.226   1.345   6.176 -0.8081  0.4091  0.9228
 3153TIP3   OH230949   2.677   0.232  14.543  0.2790  0.7343 -0.7309
 3153TIP3    H130950   2.740   0.160  14.533 -1.5093 -0.7970 -1.1053
 3153TIP3    H230951   2.650   0.253  14.454 -1.2203  0.0353 -0.4543
 3154TIP3   OH230952   2.218   0.455  15.665  0.2114 -0.2597  0.4486
 3154TIP3    H130953   2.285   0.508  15.708  0.5587 -0.6501  0.3935
 3154TIP3    H230954   2.149   0.445  15.731  0.0085  0.5012  0.3597
 3155TIP3   OH230955   1.885   2.160  14.232 -0.0917  0.2244 -0.1106
 3155TIP3    H130956   1.843   2.245  14.219 -0.8606  0.2066  2.1014
 3155TIP3    H230957   1.849   2.105  14.162 -0.8025  1.2793 -0.5950
 3156TIP3   OH230958   5.750   4.895  14.442 -0.1848  0.3557  0.0279
 3156TIP3    H130959   5.670   4.900  14.391 -0.1094  0.5541 -0.0684
 3156TIP3    H230960   5.790   4.812  14.415 -1.4856 -0.8821  1.7325
 3157TIP3   OH230961   3.996   6.733  13.222 -0.8854 -0.0776 -0.1914
 3157TIP3    H130962   3.985   6.815  13.174  0.0901 -1.3791 -2.7525
 3157TIP3    H230963   3.920   6.681  13.198 -1.5814  0.0994  1.5531
 3158TIP3   OH230964   1.724   0.033   1.372 -0.0783 -0.3114  0.2925
 3158TIP3    H130965   1.739  -0.019   1.451 -1.4419 -1.0690  0.0703
 3158TIP3    H230966   1.685   0.115   1.404 -0.9394 -0.7540  0.3789
 3159TIP3   OH230967   1.663   0.699   6.235 -0.0424 -0.1562 -0.0915
 3159TIP3    H130968   1.740   0.646   6.214  0.9554  0.5631  1.6599
 3159TIP3    H230969   1.694   0.764   6.297 -1.6970  1.2522 -0.6727
 3160TIP3   OH230970   4.808   4.565  12.259 -0.1518  0.1442 -0.6492
 3160TIP3    H130971   4.896   4.599  12.244 -0.1539 -0.4509 -2.1392
 3160TIP3    H230972   4.792   4.580  12.352  0.8548  1.8053 -0.7270
 3161TIP3   OH230973   5.039   2.645  16.429 -0.3030  0.6074  0.7677
 3161TIP3    H130974   5.061   2.586  16.358 -1.5097  1.3063 -0.2003
 3161TIP3    H230975   4.980   2.595  16.485 -0.5558  0.5662  0.4670
 3162TIP3   OH230976   2.753   2.451   3.955 -0.0351 -0.9115  0.1556
 3162TIP3    H130977   2.746   2.359   3.929  0.1860 -0.7480 -0.4853
 3162TIP3    H230978   2.761   2.448   4.051  1.6873 -1.6526 -0.0038
 3163TIP3   OH230979   3.311   4.698  14.818 -0.0331  0.3232  0.1852
 3163TIP3    H130980   3.245   4.655  14.872 -1.1841  1.4295 -0.3160
 3163TIP3    H230981   3.319   4.643  14.740  0.6240 -0.5319  0.8509
 3164TIP3   OH230982   2.200   4.054  12.777 -0.0431  0.8200  0.3240
 3164TIP3    H130983   2.251   4.051  12.858 -0.2811  0.8092  0.4756
 3164TIP3    H230984   2.112   4.080  12.806 -0.3860 -0.1564  0.1999
 3165TIP3   OH230985   2.559   5.023  15.371 -0.6147 -0.1442 -0.0405
 3165TIP3    H130986   2.637   5.074  15.350 -1.2342  0.3160 -1.2639
 3165TIP3    H230987   2.492   5.088  15.391 -0.4966 -0.5448  1.8220
 3166TIP3   OH230988   4.400   6.787  14.273  0.3662 -0.3135 -0.1935
 3166TIP3    H130989   4.348   6.866  14.260  2.4141  0.7120 -2.6518
 3166TIP3    H230990   4.369   6.726  14.206  2.7924  0.6077 -2.2375
 3167TIP3   OH230991   1.163   5.929  15.572 -0.5976 -0.4040 -0.0964
 3167TIP3    H130992   1.135   5.845  15.609 -1.1639  0.6680  2.0297
 3167TIP3    H230993   1.088   5.960  15.522 -0.7930 -0.6756  0.0285
 3168TIP3   OH230994   4.585   3.873   5.473  1.4125  0.2959  0.9157
 3168TIP3    H130995   4.666   3.924   5.466  2.2030 -0.9732  0.6911
 3168TIP3    H230996   4.603   3.792   5.425 -0.0559  0.0738  0.7058
 3169TIP3   OH230997   4.112   4.381   4.140  0.3565  0.0595 -0.5195
 3169TIP3    H130998   4.053   4.306   4.152  0.6004  0.1878  1.5821
 3169TIP3    H230999   4.079   4.424   4.061 -1.6395 -0.5668 -0.0667
 3170TIP3   OH231000   4.555   0.683   4.554 -0.2816 -0.1255 -0.2445
 3170TIP3    H131001   4.506   0.603   4.572  1.2663 -0.9915  0.2987
 3170TIP3    H231002   4.556   0.730   4.637 -1.6691  0.7360 -0.7097
 3171TIP3   OH231003   5.760   3.560  12.952  0.0193  0.0974 -0.1770
 3171TIP3    H131004   5.681   3.515  12.982 -0.5957  1.2123 -0.1136
 3171TIP3    H231005   5.747   3.571  12.858  1.5736 -2.6477 -0.7591
 3172TIP3   OH231006   0.010   6.179   3.412  0.0202  0.2863  0.7675
 3172TIP3    H131007  -0.075   6.204   3.377  0.2132 -1.2676 -0.8862
 3172TIP3    H231008   0.072   6.194   3.340  1.1302  1.2722  1.9059
 3173TIP3   OH231009   5.546   2.970  15.097  0.1434 -0.0616  0.0886
 3173TIP3    H131010   5.592   3.041  15.142 -0.2295  0.1927  0.0676
 3173TIP3    H231011   5.456   2.976  15.128 -0.3813  0.8396 -1.5656
 3174TIP3   OH231012   5.606   0.251   1.599 -0.4556  0.5642  0.2409
 3174TIP3    H131013   5.605   0.249   1.504 -0.3819  0.6199  0.2391
 3174TIP3    H231014   5.687   0.208   1.624 -1.2884 -0.9774  0.3215
 3175TIP3   OH231015   0.171   2.532   4.815 -0.1117 -0.1048 -0.1373
 3175TIP3    H131016   0.114   2.478   4.869  0.3922 -2.0235 -1.5051
 3175TIP3    H231017   0.119   2.550   4.736  0.6703 -0.7279 -0.7956
 3176TIP3   OH231018   2.647   2.965   0.186 -0.0837  0.1289  0.1079
 3176TIP3    H131019   2.576   2.993   0.244 -0.3534 -3.3742  1.5890
 3176TIP3    H231020   2.661   2.873   0.208  1.9903 -0.4216 -3.2091
 3177TIP3   OH231021   6.307   5.887   2.721 -0.1316  0.4323 -0.1072
 3177TIP3    H131022   6.325   5.969   2.768  0.0567  1.3428 -1.7185
 3177TIP3    H231023   6.358   5.821   2.768  0.1529  1.3247  0.8880
 3178TIP3   OH231024   4.704   2.856   2.417  0.3257 -0.6844 -0.1672
 3178TIP3    H131025   4.776   2.913   2.446 -1.1473  0.2855  1.7067
 3178TIP3    H231026   4.706   2.781   2.476 -2.0701  0.8229  1.9526
 3179TIP3   OH231027   1.257   2.512  14.760 -0.4440 -0.3274 -0.5327
 3179TIP3    H131028   1.251   2.578  14.691  1.6062 -1.2627 -1.6617
 3179TIP3    H231029   1.338   2.532  14.806  0.2887 -2.0989 -0.9970
 3180TIP3   OH231030   4.947   1.982   1.380 -0.3862  0.2385  0.1168
 3180TIP3    H131031   4.917   1.901   1.339 -0.8751 -0.0024  0.9284
 3180TIP3    H231032   4.866   2.023   1.412 -0.1221  0.9571 -0.1400
 3181TIP3   OH231033   5.301   5.230   3.770 -0.6774  0.1004 -0.0960
 3181TIP3    H131034   5.364   5.170   3.730  0.3496  0.5837  0.7624
 3181TIP3    H231035   5.219   5.182   3.770  0.0268 -1.1306  0.1366
 3182TIP3   OH231036   3.690   0.340   1.958 -0.4379 -0.1775 -0.4452
 3182TIP3    H131037   3.689   0.435   1.966  0.1561 -0.0581 -1.6736
 3182TIP3    H231038   3.727   0.308   2.040 -2.0698  0.5754  0.6014
 3183TIP3   OH231039   6.012   1.502  11.327 -1.3411 -0.2014 -0.6749
 3183TIP3    H131040   6.062   1.529  11.404 -0.6893 -2.4032 -0.2943
 3183TIP3    H231041   6.074   1.511  11.254 -1.4472  0.3452 -0.6931
 3184TIP3   OH231042   1.000   2.497  14.126 -0.5568 -0.3232 -0.4353
 3184TIP3    H131043   0.920   2.530  14.166 -0.5245 -0.0107 -0.6266
 3184TIP3    H231044   1.014   2.412  14.167  0.1562  0.5197  1.1334
 3185TIP3   OH231045   3.567   4.892   6.272 -0.3169 -0.0516 -0.0634
 3185TIP3    H131046   3.611   4.812   6.302  2.2397  0.7077 -1.6319
 3185TIP3    H231047   3.486   4.861   6.233  0.3249 -1.8299 -0.0486
 3186TIP3   OH231048   0.668   0.047  16.174 -0.1181  0.1679  0.7909
 3186TIP3    H131049   0.743   0.077  16.122 -0.2343  1.4527  1.3451
 3186TIP3    H231050   0.610   0.006  16.110 -0.1409  1.5094 -0.0675
 3187TIP3   OH231051   2.866   6.536  17.292  0.2067  0.0026 -0.1295
 3187TIP3    H131052   2.883   6.540  17.386 -0.5607 -1.7434  0.1123
 3187TIP3    H231053   2.782   6.580  17.281 -0.6884 -1.5728  0.3008
 3188TIP3   OH231054   0.727   6.163   2.932  0.3637 -0.1159 -0.5503
 3188TIP3    H131055   0.813   6.135   2.900  0.3858 -0.1188 -0.4878
 3188TIP3    H231056   0.665   6.103   2.889  0.5586 -1.6141  1.1802
 3189TIP3   OH231057   2.518   4.229   4.919 -0.4397  0.2041 -0.0614
 3189TIP3    H131058   2.471   4.310   4.899  0.4337  0.6708 -0.2075
 3189TIP3    H231059   2.609   4.255   4.927 -0.1918 -0.7228  0.1625
 3190TIP3   OH231060   5.466   1.755  11.863 -0.4017  0.5839  0.5637
 3190TIP3    H131061   5.393   1.781  11.919  0.6290 -0.3573  2.3856
 3190TIP3    H231062   5.513   1.688  11.914  0.4999 -0.3702 -1.4598
 3191TIP3   OH231063   5.901   0.972   3.504  0.2661 -0.1911 -0.0719
 3191TIP3    H131064   5.835   0.926   3.555  1.4376 -0.6429  1.0388
 3191TIP3    H231065   5.879   1.065   3.515 -0.3146 -0.3516  0.1159
 3192TIP3   OH231066   5.965   1.837   5.651 -0.0123 -0.3304 -0.7296
 3192TIP3    H131067   6.037   1.790   5.694 -0.7159 -1.5636 -0.8909
 3192TIP3    H231068   5.898   1.846   5.719 -1.0950 -2.2156 -1.5008
 3193TIP3   OH231069   0.831   0.763  14.530 -0.1071  0.1295 -0.2872
 3193TIP3    H131070   0.774   0.692  14.559 -0.5048  0.9286  0.9346
 3193TIP3    H231071   0.919   0.726  14.533 -0.3303 -0.3780  0.1315
 3194TIP3   OH231072   3.769   6.441  17.286  0.1730 -0.3141  0.3385
 3194TIP3    H131073   3.690   6.430  17.339  0.6292 -0.3035  1.0310
 3194TIP3    H231074   3.832   6.482  17.345  0.9813 -1.1283  0.0611
 3195TIP3   OH231075   5.970   4.859  15.518 -0.0124  0.1505 -0.6703
 3195TIP3    H131076   5.988   4.765  15.516  0.6222  0.2782 -1.2793
 3195TIP3    H231077   6.043   4.898  15.471  0.5915  1.1023  1.0317
 3196TIP3   OH231078   2.863   5.158  14.160  0.1711 -0.3505  0.0863
 3196TIP3    H131079   2.926   5.090  14.135  0.3413  0.4914 -1.8855
 3196TIP3    H231080   2.803   5.163  14.085 -0.4945  0.8780  0.6959
 3197TIP3   OH231081   0.916   0.280   6.336  0.5541  0.0749 -0.4294
 3197TIP3    H131082   0.982   0.322   6.392 -0.1915 -0.0920  0.5805
 3197TIP3    H231083   0.886   0.351   6.279  0.9032  0.3894 -0.2307
 3198TIP3   OH231084   0.871   3.735   0.522 -0.2295 -0.4611 -0.4614
 3198TIP3    H131085   0.883   3.668   0.455  1.5202 -0.6521  0.0043
 3198TIP3    H231086   0.802   3.701   0.579 -1.5409 -0.4166 -1.9848
 3199TIP3   OH231087   6.401   1.425  10.865  0.2089  0.3139  0.2239
 3199TIP3    H131088   6.491   1.394  10.878 -0.7763 -1.4358  3.2756
 3199TIP3    H231089   6.402   1.516  10.894  0.6102 -0.2139  1.8624
 3200TIP3   OH231090   5.766   6.535  14.912  0.5226  0.8172  0.8247
 3200TIP3    H131091   5.689   6.479  14.899  1.0162  0.4302 -0.5338
 3200TIP3    H231092   5.828   6.479  14.958  0.9430  0.3010 -0.3600
 3201TIP3   OH231093   3.521   6.186  16.965 -0.3029 -0.3020  0.4646
 3201TIP3    H131094   3.528   6.252  17.034 -1.4964  1.1269 -0.7327
 3201TIP3    H231095   3.607   6.186  16.923 -0.3692  0.7022  0.3083
 3202TIP3   OH231096   5.740   2.563  12.414 -0.2196  0.2569  0.3084
 3202TIP3    H131097   5.706   2.561  12.503  0.0059  0.4231  0.3989
 3202TIP3    H231098   5.663   2.572  12.359 -0.4078 -0.3862  0.4544
 3203TIP3   OH231099   3.541   2.220   4.298 -0.2544 -0.2726  0.4723
 3203TIP3    H131100   3.447   2.201   4.295  0.5240 -4.4095 -1.0354
 3203TIP3    H231101   3.566   2.231   4.206  0.7352  0.8799  0.8745
 3204TIP3   OH231102   0.983   6.177   3.337  0.3272 -0.3873  0.1544
 3204TIP3    H131103   0.900   6.149   3.298 -0.2166  1.4148 -0.0322
 3204TIP3    H231104   0.960   6.206   3.425  1.1470 -2.0096  0.9289
 3205TIP3   OH231105   6.790   4.178   1.251  0.0772  0.0269 -0.2268
 3205TIP3    H131106   6.823   4.098   1.293 -0.9290 -1.4389 -2.1689
 3205TIP3    H231107   6.737   4.220   1.319  0.5366 -0.9765  0.7738
 3206TIP3   OH231108   1.786   1.307   4.181 -0.5213  0.1464  0.5682
 3206TIP3    H131109   1.746   1.359   4.111 -2.4299  0.8769  2.1658
 3206TIP3    H231110   1.737   1.331   4.260  0.4771 -1.9345  1.8579
 3207TIP3   OH231111   3.323   3.609   0.080 -0.0283  1.1485  0.3113
 3207TIP3    H131112   3.270   3.661   0.020  0.4502 -0.4545 -1.5688
 3207TIP3    H231113   3.390   3.669   0.112  0.3507  1.7761 -1.5974
 3208TIP3   OH231114   5.753   0.975  16.401  0.0599 -0.1244 -0.0390
 3208TIP3    H131115   5.822   0.930  16.353 -0.8595  0.1027 -1.6283
 3208TIP3    H231116   5.774   0.962  16.493  1.3010 -1.4498 -0.5013
 3209TIP3   OH231117   5.986   4.847   4.925  0.2526  0.1846  0.3630
 3209TIP3    H131118   5.970   4.753   4.931  0.6506  0.0941  0.0211
 3209TIP3    H231119   6.070   4.855   4.879 -0.9206  0.7652 -1.7440
 3210TIP3   OH231120   0.683   2.952   1.638  0.0819 -0.9381 -0.6269
 3210TIP3    H131121   0.628   2.892   1.588 -1.1419  0.4560 -0.9679
 3210TIP3    H231122   0.624   2.991   1.703  0.9974 -0.5317 -0.0301
 3211TIP3   OH231123   5.751   4.143   3.606  0.2772  0.2854 -0.3019
 3211TIP3    H131124   5.722   4.058   3.641  1.1049  0.1298  0.0284
 3211TIP3    H231125   5.673   4.181   3.566 -0.5607  0.1823  1.1850
 3212TIP3   OH231126   5.514   2.930   1.911  0.2307 -0.3543 -0.5298
 3212TIP3    H131127   5.517   2.986   1.988 -2.1051  0.3342 -0.9095
 3212TIP3    H231128   5.450   2.862   1.932  2.4093 -2.4487 -0.3932
 3213TIP3   OH231129   5.554   1.841  14.258  0.2984  0.7624 -0.0137
 3213TIP3    H131130   5.499   1.878  14.188 -0.6718 -0.4475  0.0902
 3213TIP3    H231131   5.492   1.811  14.324  1.0901 -0.4134  0.2113
 3214TIP3   OH231132   5.658   6.151   1.818 -0.0528  0.0811 -0.0223
 3214TIP3    H131133   5.630   6.064   1.787  0.1837  0.2079 -0.5857
 3214TIP3    H231134   5.705   6.189   1.744 -1.0214  1.0979 -0.1284
 3215TIP3   OH231135   4.263   0.780   1.551  0.7135  0.2391 -0.7724
 3215TIP3    H131136   4.245   0.836   1.475 -0.6334 -1.1074 -1.4726
 3215TIP3    H231137   4.334   0.723   1.522  1.4724  0.9601 -0.3647
 3216TIP3   OH231138   5.225   2.412  13.985 -0.2491 -0.0901  0.4469
 3216TIP3    H131139   5.184   2.495  14.009  0.6800  0.6939 -0.6260
 3216TIP3    H231140   5.315   2.419  14.018 -0.1645 -0.6711  0.3483
 3217TIP3   OH231141   4.308   3.356  15.067 -0.4145 -0.1229  0.4878
 3217TIP3    H131142   4.300   3.326  15.158  0.2777  0.5332  0.7727
 3217TIP3    H231143   4.237   3.420  15.056  2.1834  3.1528  1.9621
 3218TIP3   OH231144   5.180   1.506   1.104 -0.3627  0.4273 -0.1951
 3218TIP3    H131145   5.093   1.489   1.142 -0.0990  1.9242  1.1589
 3218TIP3    H231146   5.170   1.590   1.059  0.8313  1.5163  1.5153
 3219TIP3   OH231147   6.627   3.491   0.431 -0.1608  0.4005  0.2050
 3219TIP3    H131148   6.667   3.426   0.487 -1.4310 -0.1318  0.5085
 3219TIP3    H231149   6.659   3.470   0.343  0.4971  0.2063  0.4900
 3220TIP3   OH231150   2.478   0.671   2.117  0.1861  0.5663  0.7410
 3220TIP3    H131151   2.442   0.701   2.201  1.0832  1.9994  0.6216
 3220TIP3    H231152   2.412   0.610   2.083 -0.9488  1.2349  1.7164
 3221TIP3   OH231153   5.571   6.271  15.196 -0.0583 -0.0608  0.0325
 3221TIP3    H131154   5.499   6.209  15.208  1.9580 -2.6220 -0.8647
 3221TIP3    H231155   5.561   6.301  15.105 -0.8499  0.7449  0.3734
 3222TIP3   OH231156   0.111   3.883  11.416 -0.0229  0.1281  0.1747
 3222TIP3    H131157   0.143   3.798  11.387 -0.5662 -0.7745  2.1171
 3222TIP3    H231158   0.190   3.932  11.436  0.2846 -0.0703 -0.5378
 3223TIP3   OH231159   0.284   5.807   2.891 -0.2331 -0.1823  1.1897
 3223TIP3    H131160   0.189   5.802   2.899 -0.5440  1.3329 -1.0289
 3223TIP3    H231161   0.317   5.738   2.948 -2.6570 -0.6009  2.1187
 3224TIP3   OH231162   3.794   3.359   2.774 -0.0957 -0.1143 -0.2056
 3224TIP3    H131163   3.866   3.298   2.792 -2.5922 -2.6258  1.5839
 3224TIP3    H231164   3.783   3.407   2.856  0.1961  1.0299 -0.8220
 3225TIP3   OH231165   4.201   0.910  16.196 -0.2544  0.4864  0.1479
 3225TIP3    H131166   4.240   0.970  16.132  1.1876  0.8972  1.3626
 3225TIP3    H231167   4.150   0.966  16.254 -0.0474  0.3605  0.4538
 3226TIP3   OH231168   4.440   3.386   5.111  0.0144 -0.6119 -0.0085
 3226TIP3    H131169   4.397   3.304   5.085 -2.2763 -0.0815  1.9260
 3226TIP3    H231170   4.493   3.363   5.187  0.7708 -0.6301 -0.5317
 3227TIP3   OH231171   5.302   4.510  14.483  0.0926 -0.0989  0.4603
 3227TIP3    H131172   5.303   4.539  14.392 -0.7406 -0.3861  0.3562
 3227TIP3    H231173   5.238   4.567  14.526 -1.3896 -1.6085  0.3020
 3228TIP3   OH231174   4.491   0.622  17.280  0.0733  0.0226  0.1611
 3228TIP3    H131175   4.431   0.599  17.351  0.1888  0.0033  0.2505
 3228TIP3    H231176   4.529   0.538  17.253  0.1221  0.0453  0.1585
 3229TIP3   OH231177   2.313   6.805  12.479 -0.3332 -0.6491  0.6823
 3229TIP3    H131178   2.291   6.719  12.515 -1.2752 -0.2744  1.0116
 3229TIP3    H231179   2.315   6.792  12.385 -0.7691 -0.9608  0.7158
 3230TIP3   OH231180   5.664   2.333  10.676  0.3128 -0.1796  0.1965
 3230TIP3    H131181   5.613   2.331  10.757 -0.5564 -1.3183 -0.3689
 3230TIP3    H231182   5.693   2.243  10.663  2.3163  0.3929  0.3863
 3231TIP3   OH231183   5.922   0.680  16.785  0.5858 -0.2738  0.1633
 3231TIP3    H131184   5.906   0.673  16.879  1.0569  2.5293  0.5146
 3231TIP3    H231185   6.009   0.643  16.773  0.0711 -1.6588  0.6588
 3232TIP3   OH231186   4.776   5.685  15.316  0.5753 -0.5772 -0.5126
 3232TIP3    H131187   4.709   5.618  15.329 -0.1168  0.2737  0.5411
 3232TIP3    H231188   4.788   5.724  15.403  2.2573 -0.5311 -0.7439
 3233TIP3   OH231189   1.336   5.136   2.817  0.2168  0.5092 -0.4802
 3233TIP3    H131190   1.391   5.143   2.739  0.9505  2.6779  0.1895
 3233TIP3    H231191   1.254   5.179   2.793 -0.7621 -1.5804 -1.0469
 3234TIP3   OH231192   3.579   5.032   4.132 -0.4250 -0.0975 -0.4883
 3234TIP3    H131193   3.643   5.086   4.177  1.3068 -0.9924 -1.8105
 3234TIP3    H231194   3.513   5.012   4.198  2.1341 -1.5105  1.7311
 3235TIP3   OH231195   3.378   1.625  12.515 -0.0312 -0.5484  0.0606
 3235TIP3    H131196   3.346   1.713  12.533  0.6895  0.1261 -1.8049
 3235TIP3    H231197   3.312   1.567  12.555 -1.2862  0.8257  0.0389
 3236TIP3   OH231198   4.309   5.044  11.648  0.0784  0.8671  0.5308
 3236TIP3    H131199   4.281   4.952  11.652  0.9262  0.6287  1.2072
 3236TIP3    H231200   4.396   5.044  11.690  1.2839  1.4915 -1.8641
 3237TIP3   OH231201   5.823   6.669   0.644  0.0251  0.5722  0.0796
 3237TIP3    H131202   5.852   6.587   0.683  0.3910  0.3514 -0.6415
 3237TIP3    H231203   5.798   6.723   0.719 -1.7396 -0.7468  0.4615
 3238TIP3   OH231204   6.084   1.049  14.339 -0.4250  0.2245  0.0377
 3238TIP3    H131205   6.115   1.026  14.251 -0.7145  1.1194 -0.3038
 3238TIP3    H231206   6.147   1.007  14.398 -0.1327 -0.2446 -0.5955
 3239TIP3   OH231207   2.765   2.932  12.543  0.0756  0.0404 -0.0773
 3239TIP3    H131208   2.778   2.914  12.636 -1.3462 -1.1192 -0.0687
 3239TIP3    H231209   2.670   2.940  12.534  0.3214  2.1701 -1.0866
 3240TIP3   OH231210   6.481   5.476   0.612 -0.7748 -0.2148 -0.1427
 3240TIP3    H131211   6.484   5.393   0.563 -2.0038 -0.1859 -0.2917
 3240TIP3    H231212   6.406   5.466   0.671  0.2943  0.0161  1.2744
 3241TIP3   OH231213   4.217   4.426  15.738  0.1589 -0.6384 -0.0190
 3241TIP3    H131214   4.192   4.517  15.721 -1.6313 -1.2308 -0.5905
 3241TIP3    H231215   4.195   4.413  15.830  2.9033  0.2859  0.8218
 3242TIP3   OH231216   1.198   0.440  15.426  0.0082  0.5784 -0.1169
 3242TIP3    H131217   1.132   0.429  15.494  0.3362 -2.3680 -0.2065
 3242TIP3    H231218   1.254   0.363  15.433  0.5616  0.6066 -3.1658
 3243TIP3   OH231219   6.748   0.009   4.306  0.1378 -0.1520  0.1419
 3243TIP3    H131220   6.837  -0.023   4.321  0.7641  0.2396 -2.3554
 3243TIP3    H231221   6.756   0.104   4.305 -0.0940 -0.1303 -1.0893
 3244TIP3   OH231222   2.631   6.581   1.856 -0.3554  0.1823 -0.3598
 3244TIP3    H131223   2.596   6.567   1.944  0.3165 -0.2943 -0.1582
 3244TIP3    H231224   2.559   6.618   1.807 -1.5667 -1.9998 -0.3033
 3245TIP3   OH231225   3.250   0.310  12.361 -0.4054  0.4291 -0.3272
 3245TIP3    H131226   3.158   0.292  12.380 -0.2618  0.5433  0.4914
 3245TIP3    H231227   3.273   0.381  12.421  0.9242 -1.3000  1.2727
 3246TIP3   OH231228   3.165   1.100   4.146  0.6093 -0.4487  0.1115
 3246TIP3    H131229   3.191   1.016   4.183 -0.7144 -0.6156  0.6843
 3246TIP3    H231230   3.188   1.094   4.053  0.4258 -1.4851  0.1318
 3247TIP3   OH231231   2.475   0.423   5.337  0.7165  0.0686 -0.0638
 3247TIP3    H131232   2.434   0.455   5.417  0.3386 -0.5040 -0.0256
 3247TIP3    H231233   2.450   0.331   5.333  1.1855 -0.0353 -0.5559
 3248TIP3   OH231234   4.418   5.933   1.645 -0.1687 -0.3975 -0.5577
 3248TIP3    H131235   4.392   5.844   1.623  0.8158 -0.4066 -1.7232
 3248TIP3    H231236   4.513   5.933   1.637  0.1322 -0.0314  2.3834
 3249TIP3   OH231237   5.306   5.838  13.718  0.7838  0.0331  0.1772
 3249TIP3    H131238   5.229   5.807  13.670  0.7379  0.6280 -0.1283
 3249TIP3    H231239   5.304   5.933  13.709  1.4376  0.0653  0.3469
 3250TIP3   OH231240   1.236   2.262  13.655  0.0556  0.0852 -0.3052
 3250TIP3    H131241   1.233   2.281  13.749  0.8696  1.0259 -0.4688
 3250TIP3    H231242   1.204   2.172  13.649  0.6936 -0.2494  0.9579
 3251TIP3   OH231243   2.159   6.502   1.311  0.3106  0.0407 -0.0277
 3251TIP3    H131244   2.228   6.504   1.377  0.7651  0.0469 -0.5076
 3251TIP3    H231245   2.184   6.431   1.252  0.8030  1.1489 -1.1769
 3252TIP3   OH231246   6.169   3.229  15.774 -0.2191  0.3016  0.1868
 3252TIP3    H131247   6.125   3.288  15.713 -1.4107 -0.4694  0.2817
 3252TIP3    H231248   6.141   3.259  15.860 -0.8638 -0.4136  0.2339
 3253TIP3   OH231249   4.231   1.811  11.444  0.2857 -0.5421 -0.6082
 3253TIP3    H131250   4.160   1.871  11.422  1.9532  1.5326 -0.5091
 3253TIP3    H231251   4.309   1.867  11.448  1.7937 -2.6365  0.0314
 3254TIP3   OH231252   2.064   1.617   1.350  0.9429 -0.3828  0.3669
 3254TIP3    H131253   2.140   1.578   1.394  1.2891 -0.4039 -0.2537
 3254TIP3    H231254   2.082   1.608   1.257 -0.4342 -1.5906  0.2004
 3255TIP3   OH231255   1.845   6.760  16.208  0.0885  0.8173 -0.7780
 3255TIP3    H131256   1.904   6.834  16.193  0.5378  0.6899  0.3293
 3255TIP3    H231257   1.759   6.800  16.218  0.1670  1.1036 -1.2327
 3256TIP3   OH231258   3.543   2.756  17.087  0.6355  0.0452  1.1211
 3256TIP3    H131259   3.548   2.846  17.119 -5.1763  1.8161 -2.1470
 3256TIP3    H231260   3.599   2.755  17.009  0.9490  0.7686  1.3355
 3257TIP3   OH231261   4.968   5.560  14.736  0.6699 -0.2162 -0.0242
 3257TIP3    H131262   4.963   5.559  14.640 -0.8512  0.9533  0.0179
 3257TIP3    H231263   5.030   5.630  14.756 -1.8414  2.1315 -0.1242
 3258TIP3   OH231264   4.733   0.669   1.654 -0.7698 -0.2657 -0.1283
 3258TIP3    H131265   4.677   0.592   1.655  0.1959 -0.9982 -1.2955
 3258TIP3    H231266   4.698   0.723   1.583 -1.8364  0.6787  1.0992
 3259TIP3   OH231267   1.557   1.934  16.110  0.6039 -0.0804  0.4803
 3259TIP3    H131268   1.628   1.873  16.093 -0.5425 -1.4468  0.4921
 3259TIP3    H231269   1.600   2.014  16.140  2.1206 -0.8829  0.4517
 3260TIP3   OH231270   5.768   3.834   2.256 -0.4300 -0.3216  0.2373
 3260TIP3    H131271   5.802   3.913   2.299 -0.3406 -0.4560  0.4136
 3260TIP3    H231272   5.845   3.780   2.240  0.0447  1.2596 -3.3396
 3261TIP3   OH231273   5.656   6.335  13.038 -0.0577  0.0685  0.6647
 3261TIP3    H131274   5.726   6.392  13.006 -0.3640  0.3076  0.4258
 3261TIP3    H231275   5.633   6.280  12.963  1.2808 -1.4254  1.3064
 3262TIP3   OH231276   1.973   4.520  16.886  0.2890  0.0016  0.0205
 3262TIP3    H131277   2.020   4.584  16.938 -0.0145  1.2888 -1.2569
 3262TIP3    H231278   1.882   4.551  16.885 -0.3736 -1.7586  1.3855
 3263TIP3   OH231279   1.496   6.538  11.532 -0.0364 -0.5926 -0.0324
 3263TIP3    H131280   1.436   6.611  11.548  0.3942 -0.4400  0.9132
 3263TIP3    H231281   1.573   6.579  11.491  0.4857 -0.4059  1.1124
 3264TIP3   OH231282   6.583   5.711  13.559 -0.3218 -0.7091  0.0820
 3264TIP3    H131283   6.574   5.740  13.468  0.9646 -0.0630  0.1459
 3264TIP3    H231284   6.628   5.783  13.603 -0.9118 -1.0313  1.2322
 3265TIP3   OH231285   5.742   1.206   1.941  0.1744  0.2647  0.5049
 3265TIP3    H131286   5.831   1.238   1.954 -0.0480  0.7774  0.7738
 3265TIP3    H231287   5.748   1.152   1.862  0.7616  0.1383  0.6296
 3266TIP3   OH231288   0.606   4.556   3.106  0.2275  0.0859  0.3581
 3266TIP3    H131289   0.542   4.579   3.039  1.2542  1.5371 -0.1549
 3266TIP3    H231290   0.671   4.626   3.102  1.9429 -1.4343  0.7425
 3267TIP3   OH231291   6.123   3.242  12.471 -0.3377 -0.5039 -0.4389
 3267TIP3    H131292   6.171   3.308  12.421 -0.3892  0.3627  0.6344
 3267TIP3    H231293   6.153   3.255  12.561  1.0741 -3.1921 -0.4684
 3268TIP3   OH231294   3.466   0.676   2.293  0.3661 -0.2246 -0.5725
 3268TIP3    H131295   3.415   0.748   2.329  0.3937 -1.3706  1.9021
 3268TIP3    H231296   3.553   0.713   2.278  0.3658  0.2736  0.6198
 3269TIP3   OH231297   6.413   6.662   3.274 -0.4376  0.1948  0.0659
 3269TIP3    H131298   6.376   6.739   3.230  1.5456  2.0765  1.5865
 3269TIP3    H231299   6.507   6.668   3.259 -0.2344 -1.8509  0.3664
 3270TIP3   OH231300   5.825   3.946  13.287 -0.6505  0.1512 -0.2829
 3270TIP3    H131301   5.893   4.000  13.248 -2.8437  1.9312 -1.7916
 3270TIP3    H231302   5.849   3.939  13.379  2.2870 -0.4493 -1.0444
 3271TIP3   OH231303   4.842   4.909   5.804  0.1045  0.4164 -0.2313
 3271TIP3    H131304   4.802   4.957   5.731 -2.7437 -1.4092  0.0314
 3271TIP3    H231305   4.789   4.933   5.880  1.4310  0.2909  0.7380
 3272TIP3   OH231306   4.961   0.833   2.057 -0.5553 -0.6089 -0.2096
 3272TIP3    H131307   5.010   0.753   2.040 -1.4061 -1.3192  0.6515
 3272TIP3    H231308   4.879   0.821   2.008 -0.3083  0.1283 -0.8111
 3273TIP3   OH231309   2.575   5.114  13.115 -0.2916  0.4570 -0.2783
 3273TIP3    H131310   2.527   5.143  13.192 -0.5373 -1.0732  0.1668
 3273TIP3    H231311   2.619   5.034  13.143  1.6948  1.2723 -0.9750
 3274TIP3   OH231312   1.627   0.890   2.783 -0.1281 -0.0373 -0.4779
 3274TIP3    H131313   1.544   0.853   2.811 -1.3414  0.3209 -3.4523
 3274TIP3    H231314   1.630   0.977   2.824 -1.6793  0.3361 -1.1180
 3275TIP3   OH231315   2.961   6.115  12.127 -0.2171  0.3641 -0.3790
 3275TIP3    H131316   2.969   6.083  12.037 -1.7803 -3.5244  0.7590
 3275TIP3    H231317   2.867   6.117  12.144  0.1169 -2.4207  2.2392
 3276TIP3   OH231318   3.450   5.364   4.094  0.5820  0.1584  0.5691
 3276TIP3    H131319   3.437   5.453   4.125 -0.5585  0.5748 -1.0199
 3276TIP3    H231320   3.544   5.349   4.100  0.7878  1.5109  0.7328
 3277TIP3   OH231321   2.890   3.474  12.796 -0.3541 -0.0440 -0.5854
 3277TIP3    H131322   2.931   3.444  12.877  0.0889 -2.7656 -1.7637
 3277TIP3    H231323   2.846   3.555  12.820  2.4183  0.9059  1.6461
 3278TIP3   OH231324   2.909   0.204   4.437  0.1251  0.2111  0.9673
 3278TIP3    H131325   2.979   0.193   4.373  2.1895  0.1130  3.1571
 3278TIP3    H231326   2.833   0.161   4.398  0.3804  2.9882 -2.8348
 3279TIP3   OH231327   3.134   2.233  13.954 -0.6632 -0.2473 -0.1691
 3279TIP3    H131328   3.150   2.240  13.860 -0.1691  0.6224 -0.0149
 3279TIP3    H231329   3.049   2.276  13.967 -0.9187 -0.7147 -0.2710
 3280TIP3   OH231330   5.315   2.967  11.882 -0.6491  0.3518 -0.5579
 3280TIP3    H131331   5.363   2.886  11.863 -1.5458 -0.1338 -0.7695
 3280TIP3    H231332   5.305   2.967  11.977  0.0364  0.6123 -0.4803
 3281TIP3   OH231333   0.975   0.399   3.907 -0.3854 -0.7563  0.2413
 3281TIP3    H131334   1.010   0.318   3.870  0.6132  0.2828 -1.1548
 3281TIP3    H231335   0.956   0.454   3.831 -1.4110  0.1841  1.1561
 3282TIP3   OH231336   2.213   0.006   4.047  0.0105 -0.0089 -0.0049
 3282TIP3    H131337   2.282  -0.059   4.060  0.0962 -0.3490 -1.9249
 3282TIP3    H231338   2.184   0.030   4.135  1.5135 -1.0062  0.7682
 3283TIP3   OH231339   2.445   5.252   2.862  0.0034  0.7036 -0.2663
 3283TIP3    H131340   2.482   5.268   2.775  0.0270 -2.6466 -0.9151
 3283TIP3    H231341   2.518   5.265   2.922  0.3538  1.5546 -0.8686
 3284TIP3   OH231342   1.916   5.407  16.019  0.3792 -0.0687 -0.1886
 3284TIP3    H131343   1.983   5.339  16.018  0.8884  0.4348 -2.6530
 3284TIP3    H231344   1.835   5.361  16.044  1.2739 -1.0029  1.0200
 3285TIP3   OH231345   4.583   5.882   2.366 -0.1324 -0.0787  0.3818
 3285TIP3    H131346   4.599   5.793   2.399  0.3141 -0.5215 -1.0060
 3285TIP3    H231347   4.534   5.870   2.285  0.7336  0.8888 -0.3112
 3286TIP3   OH231348   6.683   6.204  12.700 -0.0351  0.0775 -0.3543
 3286TIP3    H131349   6.774   6.186  12.675 -0.2593 -0.0123 -1.1201
 3286TIP3    H231350   6.648   6.120  12.729  0.7848  0.5420  2.1093
 3287TIP3   OH231351   5.693   5.823   1.245 -0.5236 -0.4629 -0.9572
 3287TIP3    H131352   5.712   5.858   1.332 -0.7362  1.1316 -1.5408
 3287TIP3    H231353   5.639   5.745   1.262 -3.2678  1.6065  0.2587
 3288TIP3   OH231354   4.817   1.974  11.887 -0.3501  0.5845 -0.0011
 3288TIP3    H131355   4.815   1.894  11.835  1.2016  1.2618 -1.1412
 3288TIP3    H231356   4.849   1.946  11.973 -0.7602 -0.1642 -0.0867
 3289TIP3   OH231357   1.613   4.256   1.232  0.0962  0.6222  0.2128
 3289TIP3    H131358   1.671   4.229   1.161  1.2972 -0.8289  1.7341
 3289TIP3    H231359   1.594   4.176   1.280 -1.3340  1.4617  1.0892
 3290TIP3   OH231360   2.158   6.430  16.803 -0.4103  0.0204  0.2923
 3290TIP3    H131361   2.229   6.365  16.801 -0.1749  0.2939 -0.4364
 3290TIP3    H231362   2.199   6.509  16.839 -0.8519 -0.4054  1.7759
 3291TIP3   OH231363   3.915   4.286   2.854 -0.0736 -0.3970  0.0431
 3291TIP3    H131364   3.882   4.254   2.770 -1.1291  2.7655 -0.7946
 3291TIP3    H231365   4.005   4.315   2.835 -0.1456 -0.1237  0.1203
 3292TIP3   OH231366   4.375   4.068   5.694 -0.4384  0.2076  0.1643
 3292TIP3    H131367   4.307   4.003   5.714  0.0299 -0.3560 -0.0406
 3292TIP3    H231368   4.437   4.061   5.767 -0.1164  0.0494 -0.1214
 3293TIP3   OH231369   1.457   1.694  12.504 -0.1570 -0.1650 -0.1476
 3293TIP3    H131370   1.474   1.657  12.591 -0.2261 -0.5364 -0.2889
 3293TIP3    H231371   1.374   1.655  12.478 -0.5772  0.6392 -0.0072
 3294TIP3   OH231372   5.835   3.635  16.626 -0.4772 -0.4600  0.0099
 3294TIP3    H131373   5.911   3.686  16.601 -0.9784  0.4178  0.2464
 3294TIP3    H231374   5.777   3.698  16.670 -1.5975 -0.9775 -0.6949
 3295TIP3   OH231375   1.716   5.502  17.191 -0.1771 -0.2786 -0.6274
 3295TIP3    H131376   1.786   5.503  17.258 -1.3845 -1.8569  0.6898
 3295TIP3    H231377   1.693   5.595  17.180  1.6448  0.2102 -0.5968
 3296TIP3   OH231378   2.745   1.413   4.483  0.7820 -0.1626 -0.3817
 3296TIP3    H131379   2.749   1.406   4.578  1.4997  0.4219 -0.3665
 3296TIP3    H231380   2.654   1.394   4.462  0.3746  0.7319  0.5128
 3297TIP3   OH231381   2.214   0.476  15.370  0.0161  0.4938 -0.1900
 3297TIP3    H131382   2.149   0.433  15.315 -0.8337  2.4975 -0.7874
 3297TIP3    H231383   2.184   0.460  15.459 -2.1466  2.6465 -0.4931
 3298TIP3   OH231384   1.989   2.144   2.714  0.4852  0.0372  0.4660
 3298TIP3    H131385   1.942   2.068   2.747 -1.6877  0.3924 -1.7036
 3298TIP3    H231386   2.012   2.121   2.624  3.2179  0.4690  1.0054
 3299TIP3   OH231387   3.722   5.686  11.439 -0.6980  0.5564 -0.6854
 3299TIP3    H131388   3.698   5.771  11.401 -0.6885  0.8844  0.0360
 3299TIP3    H231389   3.665   5.676  11.515 -0.2900  0.1926 -0.4210
 3300TIP3   OH231390   3.090   4.042  13.422  0.2833  0.1286  0.4720
 3300TIP3    H131391   3.180   4.019  13.442 -0.2410 -1.8296  0.7080
 3300TIP3    H231392   3.096   4.113  13.358  1.9886 -1.7341 -1.4726
 3301TIP3   OH231393   6.040   5.200  14.789 -0.4626 -0.2111  0.1112
 3301TIP3    H131394   6.023   5.244  14.706 -0.0313 -1.2368 -0.5337
 3301TIP3    H231395   5.977   5.238  14.850 -2.1862 -0.8941 -1.1931
 3302TIP3   OH231396   3.484   2.644  15.435  0.0017  0.0561  0.4997
 3302TIP3    H131397   3.434   2.616  15.359 -1.4287 -0.0395  1.4496
 3302TIP3    H231398   3.557   2.582  15.441 -0.6070 -0.7129 -0.0442
 3303TIP3   OH231399   2.067   0.272   0.807  0.1337  0.0462 -0.1337
 3303TIP3    H131400   1.982   0.228   0.813 -0.1122  0.5300 -0.0158
 3303TIP3    H231401   2.102   0.246   0.722 -0.3335  0.1968 -0.3720
 3304TIP3   OH231402   5.500   0.638   0.520 -0.1679 -0.8150 -0.1139
 3304TIP3    H131403   5.459   0.677   0.597  0.4262  0.0315 -0.2073
 3304TIP3    H231404   5.517   0.713   0.462  0.5714 -1.2786 -0.5022
 3305TIP3   OH231405   3.459   5.524  15.048 -0.1729 -0.3566 -0.5532
 3305TIP3    H131406   3.371   5.562  15.041  0.5339  1.5339  0.2936
 3305TIP3    H231407   3.481   5.497  14.959 -1.0020  0.5677 -1.0554
 3306TIP3   OH231408   6.423   2.614   4.327  0.2809 -0.1471  0.1437
 3306TIP3    H131409   6.365   2.544   4.296 -0.2813  0.2577  0.2620
 3306TIP3    H231410   6.372   2.694   4.315  1.5166  0.4099 -1.4169
 3307TIP3   OH231411   5.538   5.856  15.694 -0.1935 -0.1392  0.1371
 3307TIP3    H131412   5.529   5.762  15.680 -1.3050 -0.2984  1.7996
 3307TIP3    H231413   5.632   5.870  15.703 -0.0431 -1.1249  0.0931
 3308TIP3   OH231414   3.694   1.089  12.342 -0.2041  0.9322 -0.1641
 3308TIP3    H131415   3.626   1.048  12.395  0.6963 -0.9644 -0.4416
 3308TIP3    H231416   3.647   1.151  12.286 -1.7175 -0.4786 -0.4766
 3309TIP3   OH231417   5.960   2.705  10.931  0.2013  0.0083  0.3369
 3309TIP3    H131418   5.904   2.629  10.913 -0.0992  0.2230  0.3532
 3309TIP3    H231419   6.047   2.678  10.904  0.0303 -0.2229  0.0185
 3310TIP3   OH231420   2.393   1.444   1.124 -0.0449  0.0613  0.0652
 3310TIP3    H131421   2.351   1.362   1.150  0.6447 -0.0577  0.8425
 3310TIP3    H231422   2.392   1.443   1.028 -1.1320 -0.2824  0.0788
 3311TIP3   OH231423   3.997   5.101  12.046  0.3747 -0.1561 -0.6682
 3311TIP3    H131424   3.962   5.130  12.131  1.2102  0.6977 -0.6105
 3311TIP3    H231425   3.926   5.049  12.008  0.6428 -2.0590  1.3329
 3312TIP3   OH231426   0.396   1.218  11.334  0.5614  0.2206  0.0196
 3312TIP3    H131427   0.401   1.313  11.326 -1.0875  0.2855 -0.5001
 3312TIP3    H231428   0.309   1.196  11.299  0.6435 -1.3949  0.7986
 3313TIP3   OH231429   2.238   5.159  10.897 -0.6125 -0.1499  0.8372
 3313TIP3    H131430   2.171   5.122  10.840 -0.6101 -1.1760  1.4808
 3313TIP3    H231431   2.233   5.253  10.883 -1.7438 -0.2760  0.3943
 3314TIP3   OH231432   5.669   3.466   1.886 -0.0412  0.4918 -0.1342
 3314TIP3    H131433   5.720   3.489   1.809  1.0112 -0.7216  0.1773
 3314TIP3    H231434   5.661   3.547   1.936  1.4279  0.7358 -0.2804
 3315TIP3   OH231435   5.645   5.821   0.808 -0.7100 -0.4036 -0.7588
 3315TIP3    H131436   5.571   5.882   0.815 -0.9390 -0.8187  0.7748
 3315TIP3    H231437   5.619   5.747   0.864  1.3669 -0.0237  0.7473
 3316TIP3   OH231438   6.244   2.360   0.029 -0.1336  0.3382 -0.2110
 3316TIP3    H131439   6.190   2.439   0.033 -1.0110 -0.2262 -0.6977
 3316TIP3    H231440   6.280   2.351   0.117  0.0825  1.3529 -0.1879
 3317TIP3   OH231441   2.235   2.106   5.655  0.2017  0.4280 -0.3310
 3317TIP3    H131442   2.251   2.122   5.748  1.6368  0.8744 -0.6386
 3317TIP3    H231443   2.252   2.013   5.643 -0.0412  0.3577 -0.1440
 3318TIP3   OH231444   2.622   4.805  12.686 -0.1306 -0.0142 -0.0782
 3318TIP3    H131445   2.619   4.797  12.782 -1.2798  1.7408  0.0509
 3318TIP3    H231446   2.545   4.758  12.656 -1.5777  2.2043  0.0811
 3319TIP3   OH231447   4.080   3.660   4.389 -0.0609 -0.0675  0.5224
 3319TIP3    H131448   4.053   3.673   4.480 -0.6384  0.8772  0.2345
 3319TIP3    H231449   4.049   3.573   4.366 -0.0158 -0.2597  1.1993
 3320TIP3   OH231450   0.545   5.848  11.168  0.2896  0.0411  0.4211
 3320TIP3    H131451   0.581   5.854  11.080  1.4671 -0.5595  0.8382
 3320TIP3    H231452   0.453   5.826  11.156  0.4176  0.0964 -0.6583
 3321TIP3   OH231453   1.721   0.458  14.527  0.3882 -0.5324 -0.0363
 3321TIP3    H131454   1.738   0.397  14.455  0.9770 -0.9658  0.4716
 3321TIP3    H231455   1.777   0.534  14.508  0.8065 -0.7956  0.1589
 3322TIP3   OH231456   4.381   0.905   2.529 -0.9643  0.6110 -0.1848
 3322TIP3    H131457   4.367   0.990   2.486 -1.1053  0.4700 -0.4195
 3322TIP3    H231458   4.312   0.849   2.493 -2.3535  1.0456  1.7478
 3323TIP3   OH231459   3.313   1.878  12.604 -0.0403 -0.0986 -0.6196
 3323TIP3    H131460   3.229   1.912  12.634  0.2274  1.2057 -1.2868
 3323TIP3    H231461   3.357   1.954  12.565  1.1742 -0.9069 -0.8629
 3324TIP3   OH231462   5.495   5.736   5.753 -0.1487  0.1419 -0.4014
 3324TIP3    H131463   5.501   5.782   5.670  0.2234 -0.9349 -0.9869
 3324TIP3    H231464   5.565   5.670   5.749 -1.6531 -1.5263 -0.2748
 3325TIP3   OH231465   5.233   1.927   6.390  0.1394  0.4171  0.3098
 3325TIP3    H131466   5.203   1.876   6.314 -0.4461  1.5559 -0.2330
 3325TIP3    H231467   5.164   1.918   6.454 -0.0725  0.7163  0.1242
 3326TIP3   OH231468   5.390   3.152   4.236 -0.0321 -0.1414 -0.0063
 3326TIP3    H131469   5.391   3.230   4.180  0.3365  0.1093  0.3463
 3326TIP3    H231470   5.319   3.168   4.298 -1.1298 -0.8842 -1.0456
 3327TIP3   OH231471   4.486   3.079   4.801 -0.3689  0.3653  0.1811
 3327TIP3    H131472   4.545   3.017   4.759  0.6519  1.7811 -0.5099
 3327TIP3    H231473   4.456   3.135   4.730 -0.2286  1.4979  1.0016
 3328TIP3   OH231474   3.471   5.729   0.381 -0.6297 -0.2724 -0.4479
 3328TIP3    H131475   3.547   5.775   0.345 -1.9884  1.1546 -1.5988
 3328TIP3    H231476   3.482   5.736   0.476  0.9063 -0.4875 -0.5922
 3329TIP3   OH231477   3.387   2.514   3.448  0.0124 -0.0349 -0.1761
 3329TIP3    H131478   3.318   2.495   3.385 -0.2783  0.4461 -0.0040
 3329TIP3    H231479   3.349   2.494   3.533  0.0572  0.3223 -0.0737
 3330TIP3   OH231480   0.428   6.249  16.196 -0.8057  0.1776 -0.1167
 3330TIP3    H131481   0.337   6.226  16.219 -0.4002 -2.6747 -1.1407
 3330TIP3    H231482   0.477   6.235  16.277 -0.7398 -1.6902 -0.4535
 3331TIP3   OH231483   2.486   0.352  16.015 -0.3797 -0.0765  0.2641
 3331TIP3    H131484   2.413   0.320  15.962 -1.0456  0.9257  0.5471
 3331TIP3    H231485   2.479   0.447  16.009  0.1268  0.0357  1.3478
 3332TIP3   OH231486   1.799   4.681  16.648 -0.1401  0.3357  0.1608
 3332TIP3    H131487   1.714   4.708  16.683  0.3421 -1.0209  2.5221
 3332TIP3    H231488   1.863   4.728  16.702  0.6226  0.3489 -0.7467
 3333TIP3   OH231489   0.539   2.878   0.129 -0.4668  0.8125 -0.3663
 3333TIP3    H131490   0.593   2.840   0.198 -1.0469  0.2541 -0.2178
 3333TIP3    H231491   0.601   2.913   0.066  0.0743 -1.0291 -0.8661
 3334TIP3   OH231492   3.655   4.965  14.515  0.2230 -0.0031  0.0042
 3334TIP3    H131493   3.566   4.960  14.548  0.2291 -1.5248 -0.1479
 3334TIP3    H231494   3.708   4.924  14.583  0.3885 -2.0257 -1.2847
 3335TIP3   OH231495   4.581   0.529  16.363  0.0010  0.2688 -0.3064
 3335TIP3    H131496   4.572   0.625  16.368 -1.0092  0.1749 -0.2140
 3335TIP3    H231497   4.630   0.514  16.282  1.3184  0.9322  0.3411
 3336TIP3   OH231498   2.818   4.624  11.082 -0.5283 -0.7375 -0.3614
 3336TIP3    H131499   2.840   4.563  11.012 -1.7527 -1.1546 -0.4053
 3336TIP3    H231500   2.874   4.598  11.155 -0.9466 -1.8532 -0.4192
 3337TIP3   OH231501   1.425   3.637  13.800  0.7125  0.2859 -0.5387
 3337TIP3    H131502   1.373   3.716  13.815 -0.7892 -0.6110 -0.9021
 3337TIP3    H231503   1.475   3.625  13.881 -0.8878  0.2536  0.4725
 3338TIP3   OH231504   5.232   3.361  17.142 -0.4530 -0.1111  0.5041
 3338TIP3    H131505   5.178   3.425  17.189 -2.5354  0.1102 -2.1053
 3338TIP3    H231506   5.176   3.284  17.134  0.2839 -0.5287 -0.6594
 3339TIP3   OH231507   4.348   0.527   0.199  0.1161  0.3722 -0.3170
 3339TIP3    H131508   4.335   0.509   0.292 -0.2446  1.7825 -0.0929
 3339TIP3    H231509   4.304   0.455   0.154  0.3262 -0.3350  0.5967
 3340TIP3   OH231510   1.380   4.763   1.669 -0.6571  0.1003 -0.2450
 3340TIP3    H131511   1.334   4.784   1.588 -1.8990 -0.0573  0.3989
 3340TIP3    H231512   1.463   4.725   1.641 -0.0710  2.1932 -1.4261
 3341TIP3   OH231513   5.068   4.451  15.378  0.1112 -0.0176 -0.8318
 3341TIP3    H131514   5.128   4.427  15.449 -0.8875 -0.2064 -0.0326
 3341TIP3    H231515   5.025   4.531  15.409 -2.0355 -1.3952 -0.1653
 3342TIP3   OH231516   6.430   3.225   0.380 -0.5188 -0.0074 -0.1242
 3342TIP3    H131517   6.494   3.240   0.311 -0.1375  1.5596  0.5556
 3342TIP3    H231518   6.402   3.313   0.407  0.1495 -0.5543  2.4566
 3343TIP3   OH231519   5.185   0.406   4.697  0.1790  0.0467 -0.0412
 3343TIP3    H131520   5.186   0.328   4.753  0.1813 -0.3031 -0.5197
 3343TIP3    H231521   5.097   0.442   4.708 -0.2547 -0.7525 -0.8025
 3344TIP3   OH231522   3.181   3.285   5.097 -0.1830  0.1363  0.1165
 3344TIP3    H131523   3.099   3.280   5.047  0.0018  1.7727 -0.3638
 3344TIP3    H231524   3.222   3.367   5.068  0.2917  0.7348  2.4084
 3345TIP3   OH231525   5.843   2.827  16.743 -0.1863  0.3719  0.0601
 3345TIP3    H131526   5.882   2.914  16.740  0.6004  0.1103  1.8147
 3345TIP3    H231527   5.839   2.799  16.651 -0.9389  2.4440 -0.5607
 3346TIP3   OH231528   2.037   5.847  16.934  0.0990 -0.4147  0.2861
 3346TIP3    H131529   2.029   5.941  16.917 -0.6659 -0.3861  0.7969
 3346TIP3    H231530   1.947   5.818  16.954  0.6348 -0.8832  2.0478
 3347TIP3   OH231531   6.482   6.621   0.669  0.1288  0.5711  0.1770
 3347TIP3    H131532   6.501   6.593   0.580 -1.1533  0.8067 -0.1825
 3347TIP3    H231533   6.537   6.566   0.724  1.9229  1.3152 -0.8191
 3348TIP3   OH231534   0.858   0.102  11.685  0.0495 -0.4359  0.1297
 3348TIP3    H131535   0.881   0.026  11.631  2.7578 -0.9780  1.9853
 3348TIP3    H231536   0.854   0.175  11.624  0.5660 -1.4874 -1.1785
 3349TIP3   OH231537   6.490   0.061  15.296  0.3420  0.1254 -0.6237
 3349TIP3    H131538   6.487   0.137  15.239 -0.3036  0.0780 -0.6533
 3349TIP3    H231539   6.573   0.018  15.275 -0.2672 -0.3465 -2.1094
 3350TIP3   OH231540   6.056   5.324  16.714  0.0850  0.1591  0.0320
 3350TIP3    H131541   6.070   5.417  16.697  1.2074 -0.0871 -0.4023
 3350TIP3    H231542   6.097   5.279  16.641 -0.0045 -0.7084  0.5047
 3351TIP3   OH231543   3.988   0.550   3.432  0.0696  0.2105  0.1803
 3351TIP3    H131544   4.084   0.548   3.425 -0.0059 -0.3500 -0.8438
 3351TIP3    H231545   3.958   0.564   3.342 -0.7930  1.1125  0.6007
 3352TIP3   OH231546   6.480   2.637  15.229 -0.1740  0.2341 -0.2328
 3352TIP3    H131547   6.457   2.592  15.310 -0.1182 -0.1663 -0.4420
 3352TIP3    H231548   6.575   2.629  15.223  0.0788  2.1020  0.7608
 3353TIP3   OH231549   6.186   4.253   2.552  0.1325  0.2433 -0.2498
 3353TIP3    H131550   6.101   4.220   2.581  0.0639  0.0424 -0.6731
 3353TIP3    H231551   6.231   4.279   2.633 -0.2100  0.0627 -0.0018
 3354TIP3   OH231552   5.182   4.605   5.473 -0.5221  0.4441  0.4262
 3354TIP3    H131553   5.263   4.606   5.422 -1.2191  0.8825 -0.6914
 3354TIP3    H231554   5.211   4.609   5.564  0.6840  1.5858  0.0140
 3355TIP3   OH231555   4.594   1.064  15.221  0.0589 -0.3192 -0.4210
 3355TIP3    H131556   4.680   1.089  15.187  0.1847  0.3537  0.3728
 3355TIP3    H231557   4.587   1.110  15.305 -1.0310 -0.4457 -0.4349
 3356TIP3   OH231558   1.467   0.102  13.154  0.1085 -0.7169 -0.5605
 3356TIP3    H131559   1.471   0.036  13.085 -0.2927 -0.5246 -0.7764
 3356TIP3    H231560   1.374   0.106  13.177  0.4331 -1.7938  0.9942
 3357TIP3   OH231561   4.404   3.867  17.098  0.3829 -0.2923 -0.2242
 3357TIP3    H131562   4.354   3.804  17.150 -0.5225 -1.0090 -1.8957
 3357TIP3    H231563   4.492   3.829  17.092  0.5303 -0.1283  0.8975
 3358TIP3   OH231564   3.313   0.989   0.604  0.1090  0.4617 -0.5336
 3358TIP3    H131565   3.330   1.028   0.518 -1.9166  0.5497 -0.9065
 3358TIP3    H231566   3.370   1.038   0.664  2.5377 -0.4968 -1.9922
 3359TIP3   OH231567   0.725   5.729   2.655  0.3291 -0.5111 -0.5152
 3359TIP3    H131568   0.677   5.787   2.714  0.4979 -0.4019 -0.4863
 3359TIP3    H231569   0.664   5.657   2.637  0.8641 -1.3769  1.0828
 3360TIP3   OH231570   3.053   4.560  11.210  0.1658  0.0499  0.0849
 3360TIP3    H131571   3.108   4.627  11.250  1.0812 -1.3559  1.2470
 3360TIP3    H231572   3.104   4.529  11.135 -0.1985  0.5628 -0.3756
 3361TIP3   OH231573   5.655   6.430  12.402 -0.8110  0.3678 -0.4553
 3361TIP3    H131574   5.652   6.374  12.325 -0.1666  0.4782 -0.5712
 3361TIP3    H231575   5.706   6.380  12.466 -2.0426 -0.0658  0.1862
 3362TIP3   OH231576   4.025   1.558   5.539 -0.5767 -0.4383  0.2543
 3362TIP3    H131577   4.096   1.614   5.508 -2.4480  0.9986 -1.6703
 3362TIP3    H231578   3.990   1.518   5.459 -0.9677 -2.2902  1.3345
 3363TIP3   OH231579   4.382   2.336   4.422  0.5052  0.3356  0.0429
 3363TIP3    H131580   4.390   2.247   4.388  1.1782  0.1617  0.6424
 3363TIP3    H231581   4.472   2.363   4.442  0.1226  0.3610  1.8416
 3364TIP3   OH231582   1.063   5.371   4.418 -0.7263 -0.2426  0.0219
 3364TIP3    H131583   0.979   5.374   4.373 -0.0372  1.0321 -1.2599
 3364TIP3    H231584   1.042   5.357   4.510 -2.2847 -0.8019 -0.4100
 3365TIP3   OH231585   3.195   4.201   3.329  0.3968 -0.0807 -0.2610
 3365TIP3    H131586   3.189   4.165   3.240  0.0977  1.7261 -0.9997
 3365TIP3    H231587   3.263   4.268   3.322  0.8787 -0.4188  1.0622
 3366TIP3   OH231588   5.930   3.323  12.991 -0.2232  0.4648 -0.7364
 3366TIP3    H131589   5.872   3.392  13.022  0.2954  0.0477  1.1997
 3366TIP3    H231590   6.012   3.367  12.970 -0.5707  0.7423 -1.5483
 3367TIP3   OH231591   3.693   2.429   0.660 -0.6592 -0.1669 -0.1008
 3367TIP3    H131592   3.657   2.432   0.749  0.1164 -2.0976  0.3164
 3367TIP3    H231593   3.788   2.427   0.674 -0.5225 -0.0107 -0.9983
 3368TIP3   OH231594   2.569   0.448  11.987 -0.0195  0.0166  0.0035
 3368TIP3    H131595   2.596   0.491  11.906  0.0153 -0.2964 -0.1498
 3368TIP3    H231596   2.631   0.480  12.052  1.1423 -1.2194 -0.4871
 3369TIP3   OH231597   1.580   0.420   2.016  0.0533 -0.3363 -0.0452
 3369TIP3    H131598   1.546   0.368   1.943  2.5811 -0.4608 -1.1861
 3369TIP3    H231599   1.594   0.357   2.086 -0.9036 -0.4748  0.0293
 3370TIP3   OH231600   6.744   4.206  14.293 -0.0242  0.2251  0.9349
 3370TIP3    H131601   6.715   4.274  14.232 -0.0831 -0.6848 -0.0575
 3370TIP3    H231602   6.667   4.190  14.348 -1.4953 -2.1887 -1.6949
 3371TIP3   OH231603   2.205   2.898   4.294 -0.2169 -0.0674  0.2363
 3371TIP3    H131604   2.243   2.924   4.378  0.9861 -2.2075  0.3960
 3371TIP3    H231605   2.112   2.886   4.313 -0.1769  0.6753  0.9541
 3372TIP3   OH231606   4.944   4.856  11.917 -0.0093 -0.0566  0.0825
 3372TIP3    H131607   4.875   4.794  11.943 -0.4095  1.5700  3.1908
 3372TIP3    H231608   4.914   4.940  11.951  2.4013  1.1377 -0.6373
 3373TIP3   OH231609   5.566   6.284  16.947  0.1728  0.8015  0.6828
 3373TIP3    H131610   5.566   6.195  16.911  0.7488  1.8796 -2.1228
 3373TIP3    H231611   5.657   6.300  16.972  0.3614  1.1404 -0.2172
 3374TIP3   OH231612   3.866   2.425   3.881 -0.9368 -0.6049  0.1099
 3374TIP3    H131613   3.917   2.344   3.878 -1.9100 -1.2323  0.5816
 3374TIP3    H231614   3.822   2.423   3.965 -1.4058  0.1512 -0.1138
 3375TIP3   OH231615   5.636   6.399   3.447 -0.2663 -0.3475  0.1852
 3375TIP3    H131616   5.628   6.387   3.542 -4.0745 -0.7516 -0.1326
 3375TIP3    H231617   5.684   6.481   3.437  0.1619 -0.3013  2.4477
 3376TIP3   OH231618   2.301   2.059  13.332  0.0419  0.2667  0.3893
 3376TIP3    H131619   2.220   2.077  13.283 -0.2233  0.8208  1.0291
 3376TIP3    H231620   2.357   2.134  13.315 -0.4319  0.9393  1.7305
 3377TIP3   OH231621   5.875   0.552   2.792 -0.0671 -0.2760 -0.4429
 3377TIP3    H131622   5.817   0.615   2.749 -2.7178 -1.2278  1.6161
 3377TIP3    H231623   5.834   0.467   2.776  1.4676 -1.1131 -0.0237
 3378TIP3   OH231624   2.862   0.407  17.111  0.3972  0.0847 -0.3119
 3378TIP3    H131625   2.827   0.497  17.116  0.6309  0.1689 -0.2193
 3378TIP3    H231626   2.955   0.416  17.129  0.4125 -0.1852 -0.2533
 3379TIP3   OH231627   6.310   3.095   2.704 -0.1181  0.3316 -0.0140
 3379TIP3    H131628   6.405   3.089   2.693 -0.3178  1.2330 -2.4341
 3379TIP3    H231629   6.281   3.003   2.706  0.8635  0.0291  1.6658
 3380TIP3   OH231630   1.311   1.003  10.871 -0.2760 -0.7799 -0.0935
 3380TIP3    H131631   1.227   0.958  10.868 -0.5108 -0.5699  2.1825
 3380TIP3    H231632   1.289   1.093  10.893  0.3211  0.0907 -2.8865
 3381TIP3   OH231633   3.818   0.660   3.965 -0.0447 -0.2783 -0.3390
 3381TIP3    H131634   3.779   0.684   4.048 -0.7122 -0.4190 -0.6098
 3381TIP3    H231635   3.905   0.701   3.966  0.3333 -1.0913  0.8307
 3382TIP3   OH231636   2.660   2.255   1.063  0.1672 -0.0038 -0.0580
 3382TIP3    H131637   2.587   2.204   1.098  0.3375 -0.1409  0.0984
 3382TIP3    H231638   2.619   2.330   1.021 -0.0089  0.6295  1.1975
 3383TIP3   OH231639   1.010   5.508   0.931  0.4501 -0.2292 -0.9011
 3383TIP3    H131640   0.985   5.579   0.872  0.2492  0.2871 -0.2053
 3383TIP3    H231641   0.930   5.456   0.941  0.1871  0.2846 -0.2592
 3384TIP3   OH231642   0.119   6.216  12.969 -0.7051 -0.1789  0.6867
 3384TIP3    H131643   0.123   6.281  13.039 -1.3544 -0.2769  0.8158
 3384TIP3    H231644   0.068   6.259  12.900  0.1378  0.0137  0.1665
 3385TIP3   OH231645   1.263   4.508  14.420  0.0751  0.4778 -0.2522
 3385TIP3    H131646   1.230   4.594  14.447 -0.3538  0.1797  0.1807
 3385TIP3    H231647   1.286   4.464  14.501 -1.5884 -0.5705 -0.3291
 3386TIP3   OH231648   1.471   6.085  17.027 -0.3055  0.7557 -0.0948
 3386TIP3    H131649   1.422   6.128  16.956  0.5035 -1.0260 -1.7746
 3386TIP3    H231650   1.563   6.094  17.001  0.0181  0.3834  0.9102
 3387TIP3   OH231651   6.488   4.820  13.367  0.1665 -0.1077  0.0444
 3387TIP3    H131652   6.469   4.866  13.286  0.5781 -0.2177 -0.1189
 3387TIP3    H231653   6.492   4.888  13.434 -1.3131 -0.1418  0.1783
 3388TIP3   OH231654   0.989   3.480   0.700 -0.5859  0.1812 -0.0672
 3388TIP3    H131655   1.035   3.408   0.743 -0.7276 -0.5720 -1.1609
 3388TIP3    H231656   0.970   3.447   0.613 -1.8042  1.0792 -0.1444
 3389TIP3   OH231657   2.316   3.080  14.699  0.2801 -0.2554 -0.1667
 3389TIP3    H131658   2.303   3.020  14.773 -3.4268 -0.6013 -0.9906
 3389TIP3    H231659   2.333   3.022  14.625 -1.7055 -0.2694 -0.6466
 3390TIP3   OH231660   0.079   2.755   1.324 -0.2685  0.1981  0.1061
 3390TIP3    H131661  -0.002   2.709   1.345 -1.0636  1.6288  0.2245
 3390TIP3    H231662   0.095   2.735   1.232  0.0307 -1.2388  0.4442
 3391TIP3   OH231663   5.608   6.706  15.714 -0.3887  0.1851 -0.2135
 3391TIP3    H131664   5.533   6.752  15.751  0.0930  0.6293  0.2167
 3391TIP3    H231665   5.639   6.650  15.785 -0.9060 -0.7429 -0.6981
 3392TIP3   OH231666   0.201   2.485  12.622  0.0508 -0.0460 -0.5747
 3392TIP3    H131667   0.200   2.547  12.549  0.1974 -0.5846 -1.0419
 3392TIP3    H231668   0.112   2.487  12.657  0.1796  0.7959 -0.2615
 3393TIP3   OH231669   0.809   1.929  13.179  0.1943  0.4874  0.1572
 3393TIP3    H131670   0.864   1.858  13.212  1.9543  1.9543  0.4565
 3393TIP3    H231671   0.777   1.974  13.257 -2.4861 -1.0826  0.0246
 3394TIP3   OH231672   1.920   2.837  13.223  0.3841  0.0026  0.6933
 3394TIP3    H131673   2.002   2.803  13.186  1.0041  0.2556  1.8235
 3394TIP3    H231674   1.943   2.866  13.311 -1.0405 -0.3821  1.2104
 3395TIP3   OH231675   2.327   5.522  14.442 -0.2596 -0.3757  0.5133
 3395TIP3    H131676   2.270   5.470  14.385 -0.1887 -1.0582  1.0653
 3395TIP3    H231677   2.355   5.595  14.387 -1.1104 -0.4116  0.0214
 3396TIP3   OH231678   0.039   3.317   4.364  0.7483  0.1122 -0.1085
 3396TIP3    H131679   0.071   3.392   4.414 -0.2117 -1.2065  2.5958
 3396TIP3    H231680   0.101   3.247   4.384 -1.0147 -1.1044  1.2445
 3397TIP3   OH231681   5.427   1.259   3.570 -0.6328  0.3488 -0.0659
 3397TIP3    H131682   5.459   1.182   3.522 -2.8576  0.4824 -1.8065
 3397TIP3    H231683   5.467   1.250   3.657  0.9520 -1.5621 -0.9289
 3398TIP3   OH231684   4.539   4.430   4.459 -0.1236  0.2697  0.0070
 3398TIP3    H131685   4.532   4.342   4.422  1.0458  0.0618  0.2737
 3398TIP3    H231686   4.627   4.460   4.435 -0.7353  1.6247 -0.6326
 3399TIP3   OH231687   6.673   5.384  13.804 -0.0290  0.0814  0.2405
 3399TIP3    H131688   6.661   5.418  13.715 -0.8582 -1.2792 -0.1795
 3399TIP3    H231689   6.584   5.379  13.839  0.4971  3.7594  2.3814
 3400TIP3   OH231690   3.964   2.007   0.073 -0.5666 -0.4400  0.5303
 3400TIP3    H131691   4.058   2.009   0.054 -0.9510  1.5973 -1.4244
 3400TIP3    H231692   3.938   1.916   0.060  1.0605 -0.9107  0.5532
 3401TIP3   OH231693   1.822   5.386  12.712  0.4236 -0.1379 -0.6156
 3401TIP3    H131694   1.886   5.457  12.726  0.0272  0.0930  0.0638
 3401TIP3    H231695   1.778   5.377  12.797  0.6081 -1.3414 -0.6380
 3402TIP3   OH231696   5.533   3.552   3.904 -0.5965 -0.1143  0.1940
 3402TIP3    H131697   5.615   3.597   3.923  0.9331 -2.4231 -0.7701
 3402TIP3    H231698   5.474   3.622   3.873  1.0619  1.5267  0.6605
 3403TIP3   OH231699   5.040   4.717   6.761 -0.1132 -0.4132 -0.2994
 3403TIP3    H131700   5.131   4.746   6.764 -0.6475  1.1120  1.9090
 3403TIP3    H231701   4.995   4.784   6.709 -0.2069 -0.5077 -0.3400
 3404TIP3   OH231702   6.661   0.698  17.196  0.1026 -0.5374  0.0128
 3404TIP3    H131703   6.637   0.643  17.122  0.4153 -0.6730  0.0140
 3404TIP3    H231704   6.752   0.676  17.214  0.4128  0.4291 -0.3779
 3405TIP3   OH231705   2.357   2.780   2.634  0.6451 -0.1028  0.1796
 3405TIP3    H131706   2.354   2.735   2.550 -0.9668  0.0178  0.1600
 3405TIP3    H231707   2.400   2.718   2.693  1.5686 -0.2812 -0.6718
 3406TIP3   OH231708   4.556   6.575   5.765 -0.1374  0.3991  0.1253
 3406TIP3    H131709   4.485   6.638   5.781 -1.4767 -0.8310 -0.8637
 3406TIP3    H231710   4.608   6.578   5.845 -1.8087  0.6707  1.2398
 3407TIP3   OH231711   1.553   4.675  11.627  0.0345  0.0184  0.7240
 3407TIP3    H131712   1.574   4.665  11.534 -0.5807 -0.4210  0.6308
 3407TIP3    H231713   1.579   4.592  11.666 -2.1516 -0.7879  0.4927
 3408TIP3   OH231714   0.883   3.105  16.640  0.0083 -0.0515  0.0538
 3408TIP3    H131715   0.975   3.095  16.666 -0.1175 -0.7314  0.2286
 3408TIP3    H231716   0.844   3.019  16.654 -0.1814 -0.3147 -1.9412
 3409TIP3   OH231717   6.734   3.152  12.209 -0.0201 -0.1061 -0.7206
 3409TIP3    H131718   6.759   3.240  12.181 -1.1459  0.2184 -0.7259
 3409TIP3    H231719   6.771   3.144  12.297 -1.2231  0.9566 -0.1026
 3410TIP3   OH231720   1.633   3.008   1.923 -0.2426  0.1864  0.1627
 3410TIP3    H131721   1.630   2.931   1.867 -1.0623  0.2282  0.1429
 3410TIP3    H231722   1.650   2.974   2.011  0.0100  0.0365  0.0563
 3411TIP3   OH231723   6.344   3.535   5.902 -0.6262  0.0094  0.3078
 3411TIP3    H131724   6.348   3.623   5.940 -0.9219  0.9648 -1.7700
 3411TIP3    H231725   6.427   3.494   5.929  0.1982  1.4572  0.0692
 3412TIP3   OH231726   1.088   6.019  15.267 -0.7226 -0.2288 -0.0658
 3412TIP3    H131727   1.134   5.936  15.277  0.5801  0.3638 -0.9085
 3412TIP3    H231728   1.001   6.003  15.301 -0.6228 -2.0814 -0.6358
 3413TIP3   OH231729   0.140   5.057   1.457  0.3633  0.8346  0.3129
 3413TIP3    H131730   0.172   5.040   1.368  0.6762  0.9364  0.4062
 3413TIP3    H231731   0.050   5.023   1.457  0.6103  0.1778  0.1794
 3414TIP3   OH231732   6.012   6.200   5.500 -0.5031 -0.6831  0.1132
 3414TIP3    H131733   5.953   6.274   5.515  0.5385  0.1372  0.2286
 3414TIP3    H231734   5.954   6.124   5.491 -1.5936  0.1666 -0.1430
 3415TIP3   OH231735   5.158   0.908  17.188 -0.0869  0.1449 -0.2382
 3415TIP3    H131736   5.156   0.867  17.101  2.8549 -0.8690  0.1266
 3415TIP3    H231737   5.157   0.834  17.249  1.9526  0.6929  0.4901
 3416TIP3   OH231738   3.712   3.065   1.053 -0.6012  0.3289  0.3599
 3416TIP3    H131739   3.674   2.977   1.062  0.3090 -0.2346 -1.0062
 3416TIP3    H231740   3.683   3.112   1.131  0.2130 -1.6960  1.9496
 3417TIP3   OH231741   5.664   1.850   0.215  0.5475 -0.2947  0.7321
 3417TIP3    H131742   5.730   1.782   0.229  1.0149  0.3003  1.4879
 3417TIP3    H231743   5.714   1.932   0.215 -0.0228  0.0567 -0.0453
 3418TIP3   OH231744   5.351   2.779   4.632 -0.2741  0.3829 -0.2391
 3418TIP3    H131745   5.431   2.738   4.599  0.1711 -1.0650  2.5151
 3418TIP3    H231746   5.377   2.869   4.655 -0.1674  0.8322 -2.0519
 3419TIP3   OH231747   2.040   3.268   2.731 -0.4006 -0.0599  0.6593
 3419TIP3    H131748   1.993   3.184   2.735 -0.7404  0.0519 -0.8894
 3419TIP3    H231749   2.037   3.301   2.821  0.9186 -2.3342  1.5785
 3420TIP3   OH231750   1.575   0.176   2.963  0.2481  0.5326  0.4018
 3420TIP3    H131751   1.493   0.152   3.006 -0.2530  0.2110 -0.7411
 3420TIP3    H231752   1.613   0.093   2.934 -0.2307  0.8760 -1.2513
 3421TIP3   OH231753   6.312   4.668   2.399 -0.3155  0.1550 -0.4417
 3421TIP3    H131754   6.374   4.599   2.422 -0.0345  0.4599 -0.2775
 3421TIP3    H231755   6.286   4.705   2.484 -1.2953 -0.4644 -0.4576
 3422TIP3   OH231756   5.448   2.043   4.487  0.4351  0.4484  0.1147
 3422TIP3    H131757   5.382   2.034   4.555 -1.3677  1.6591 -1.4029
 3422TIP3    H231758   5.417   1.987   4.415  1.6230  0.1904 -0.2181
 3423TIP3   OH231759   1.371   0.414   3.284  0.3238 -0.6458  0.0176
 3423TIP3    H131760   1.278   0.434   3.290  0.1482 -1.1324 -0.9756
 3423TIP3    H231761   1.389   0.410   3.190  1.3481 -0.5330  0.2009
 3424TIP3   OH231762   0.900   5.086  15.891  0.6545 -0.1140 -0.6253
 3424TIP3    H131763   0.917   5.067  15.983  0.4383 -0.4437 -0.6495
 3424TIP3    H231764   0.947   5.017  15.843 -1.4250 -1.5636 -0.6684
 3425TIP3   OH231765   4.451   5.589   2.889  0.4791 -0.1589 -0.7033
 3425TIP3    H131766   4.415   5.600   2.977 -0.2503  0.8044 -1.1172
 3425TIP3    H231767   4.495   5.504   2.892  0.4283 -0.1513  0.5802
 3426TIP3   OH231768   5.215   3.485  14.807  0.0749 -0.7148  0.6315
 3426TIP3    H131769   5.135   3.536  14.818 -0.4138 -0.6896 -2.5564
 3426TIP3    H231770   5.286   3.550  14.813 -0.3860 -0.0798 -0.6587
 3427TIP3   OH231771   1.838   0.293   3.882  0.1191 -0.2654 -0.1111
 3427TIP3    H131772   1.800   0.381   3.881  1.0758  0.2154 -3.6887
 3427TIP3    H231773   1.909   0.298   3.946 -1.4601  0.7983  1.6080
 3428TIP3   OH231774   4.076   5.698  13.544 -0.1993 -0.1110  0.7088
 3428TIP3    H131775   4.163   5.729  13.516  0.0931 -0.7072  0.9640
 3428TIP3    H231776   4.057   5.750  13.622 -0.3677  0.4926  0.2764
 3429TIP3   OH231777   0.341   1.803   2.070  0.0059  0.6112 -0.2465
 3429TIP3    H131778   0.300   1.794   1.984 -0.4234 -0.4643  0.0614
 3429TIP3    H231779   0.276   1.850   2.122 -0.7400 -0.8334  0.1570
 3430TIP3   OH231780   4.210   2.497   4.222 -0.2416  0.0551 -0.3033
 3430TIP3    H131781   4.229   2.415   4.177 -0.1381 -0.0916  0.0003
 3430TIP3    H231782   4.257   2.489   4.306  0.2115  0.6456 -0.4949
 3431TIP3   OH231783   4.899   1.338  12.132  0.2254  0.0017 -0.6543
 3431TIP3    H131784   4.903   1.424  12.174  2.3692  0.1929 -1.1663
 3431TIP3    H231785   4.821   1.341  12.077 -2.3335 -0.0433  2.7548
 3432TIP3   OH231786   0.330   3.682  13.247 -0.1203  0.3102  0.2196
 3432TIP3    H131787   0.235   3.686  13.232  0.0592  1.5225 -0.7159
 3432TIP3    H231788   0.366   3.749  13.188  1.2767  0.1786  0.9063
 3433TIP3   OH231789   2.655   2.507  13.334 -0.0641  0.0979  0.0426
 3433TIP3    H131790   2.653   2.592  13.289 -0.9361  0.6951  1.1791
 3433TIP3    H231791   2.749   2.487  13.342  0.1688  1.2384  0.2741
 3434TIP3   OH231792   2.571   4.998   0.263  0.1155  0.2261 -0.2152
 3434TIP3    H131793   2.563   5.087   0.298 -0.7122  0.2754 -0.5234
 3434TIP3    H231794   2.495   4.988   0.205  0.4814 -0.5014 -0.5744
 3435TIP3   OH231795   0.290   4.725   3.112  0.6233  0.4359 -0.6784
 3435TIP3    H131796   0.351   4.664   3.070  2.6006 -0.0534  2.7042
 3435TIP3    H231797   0.218   4.669   3.143  0.0227  0.5462 -1.8612
 3436TIP3   OH231798   5.664   3.128   5.218 -0.2380 -0.1582 -0.0808
 3436TIP3    H131799   5.592   3.161   5.273  0.5967 -0.6576  1.3510
 3436TIP3    H231800   5.702   3.206   5.179 -0.9377  0.1987 -0.0653
 3437TIP3   OH231801   3.186   1.324  14.921 -0.2547 -0.3082 -0.1846
 3437TIP3    H131802   3.218   1.273  14.848 -0.7456 -1.5968  0.4838
 3437TIP3    H231803   3.122   1.267  14.964 -1.0770  0.9970  0.3626
 3438TIP3   OH231804   3.040   0.163  16.813  0.1565  0.6577  0.1038
 3438TIP3    H131805   3.070   0.154  16.722  0.1349 -0.3720  0.1868
 3438TIP3    H231806   3.120   0.155  16.865  0.3311  2.4565  0.1307
 3439TIP3   OH231807   2.322   1.584  15.954 -0.6576 -0.0125  0.4189
 3439TIP3    H131808   2.390   1.628  15.903  0.2965 -1.9992 -0.0665
 3439TIP3    H231809   2.370   1.526  16.013 -1.9180 -1.1850  0.3145
 3440TIP3   OH231810   5.398   0.151   5.238 -0.0121  0.1952  0.2037
 3440TIP3    H131811   5.384   0.085   5.170 -1.3980  0.8845 -0.2049
 3440TIP3    H231812   5.439   0.225   5.192  0.1038  0.2132  0.3370
 3441TIP3   OH231813   6.539   5.582  14.786 -0.1648 -0.8023  0.1656
 3441TIP3    H131814   6.536   5.551  14.876  1.0200  0.0933  0.5312
 3441TIP3    H231815   6.564   5.505  14.734 -0.0600 -1.1317  0.7035
 3442TIP3   OH231816   5.467   2.370   6.178  0.1240  0.4613  0.3449
 3442TIP3    H131817   5.435   2.324   6.101  2.3129 -0.2986 -0.1571
 3442TIP3    H231818   5.545   2.321   6.205  1.0464  2.3746  1.3024
 3443TIP3   OH231819   3.879   2.983   0.229 -0.2907 -0.0971  1.0943
 3443TIP3    H131820   3.954   2.925   0.243 -1.6039 -2.1549  0.0315
 3443TIP3    H231821   3.843   2.998   0.316  0.5890 -0.1742  1.4739
 3444TIP3   OH231822   0.782   1.862   4.232 -0.0869  0.4165  0.2219
 3444TIP3    H131823   0.874   1.884   4.247 -0.2649  0.8839  0.6629
 3444TIP3    H231824   0.736   1.898   4.308 -0.9949  2.6414 -1.3224
 3445TIP3   OH231825   3.224   0.425   5.298  0.3188 -0.1989 -0.2010
 3445TIP3    H131826   3.231   0.512   5.258  1.2836 -0.0803  0.2227
 3445TIP3    H231827   3.241   0.440   5.391 -0.6487 -0.6709  0.0565
 3446TIP3   OH231828   0.747   4.039  12.795 -1.1410 -0.4178 -0.4763
 3446TIP3    H131829   0.739   4.070  12.705 -1.2438 -0.1056 -0.3597
 3446TIP3    H231830   0.840   4.050  12.817 -1.1794 -0.1856 -0.4316
 3447TIP3   OH231831   4.018   6.734  12.799 -0.1365  0.7071  0.1036
 3447TIP3    H131832   4.047   6.643  12.805 -1.0146  0.4711  0.8126
 3447TIP3    H231833   3.952   6.735  12.729  0.6009  0.9958 -0.5965
 3448TIP3   OH231834   5.861   2.386   3.489 -0.3582 -0.1890 -0.1505
 3448TIP3    H131835   5.788   2.441   3.462 -0.4991  0.3004  1.1996
 3448TIP3    H231836   5.888   2.421   3.574 -1.2616 -2.9314  1.3475
 3449TIP3   OH231837   3.895   0.139  17.073  0.4742 -0.0083 -0.5097
 3449TIP3    H131838   3.813   0.131  17.122  0.1757 -1.1517 -1.1695
 3449TIP3    H231839   3.928   0.226  17.095 -1.0103  0.5414 -0.3721
 3450TIP3   OH231840   3.081   0.065   0.658 -0.1680 -0.4086 -0.6401
 3450TIP3    H131841   3.063   0.157   0.676  0.6374 -0.0387 -1.7065
 3450TIP3    H231842   3.081   0.023   0.745 -1.1016  0.4810 -0.2052
 3451TIP3   OH231843   2.816   0.648  11.844 -0.7824  0.2191  0.2639
 3451TIP3    H131844   2.836   0.688  11.929  0.8710 -0.8950  0.4133
 3451TIP3    H231845   2.842   0.715  11.780  0.1333  0.1768  0.5780
 3452TIP3   OH231846   0.606   0.693   5.110 -0.4750 -0.7293  0.5263
 3452TIP3    H131847   0.578   0.772   5.156 -0.2804 -1.2309  1.5077
 3452TIP3    H231848   0.690   0.717   5.070 -1.1484  0.0337 -0.4590
 3453TIP3   OH231849   6.324   2.203  12.118 -0.4719  0.1393 -0.0534
 3453TIP3    H131850   6.293   2.153  12.043 -0.0940 -0.4724  0.1919
 3453TIP3    H231851   6.246   2.245  12.154 -0.9192 -0.9360  0.2349
 3454TIP3   OH231852   4.635   2.364   6.183 -0.3630  0.0299 -0.0440
 3454TIP3    H131853   4.586   2.333   6.260  1.6449  3.2292  2.6779
 3454TIP3    H231854   4.717   2.314   6.186 -0.1433  0.3984  0.0962
 3455TIP3   OH231855   5.351   3.419   3.615  0.2386 -0.1732 -0.2672
 3455TIP3    H131856   5.356   3.479   3.541  1.0012  0.5688  0.3749
 3455TIP3    H231857   5.425   3.444   3.671 -0.2326 -0.8309  0.6619
 3456TIP3   OH231858   0.533   3.831   1.800  0.1353  0.3073  0.2693
 3456TIP3    H131859   0.438   3.825   1.801  0.1083  0.5468 -0.3779
 3456TIP3    H231860   0.553   3.878   1.719  0.8990 -1.4549 -0.5863
 3457TIP3   OH231861   4.642   0.050   3.538  0.5349  0.7201 -0.4758
 3457TIP3    H131862   4.692   0.043   3.457  1.8146 -2.4553  0.5366
 3457TIP3    H231863   4.708   0.064   3.606 -0.2682  0.0805  0.4426
 3458TIP3   OH231864   1.159   0.183  16.635 -0.0832 -0.3967  0.0670
 3458TIP3    H131865   1.171   0.091  16.657 -2.1112 -0.1454  2.5288
 3458TIP3    H231866   1.065   0.199  16.646  0.3693  2.1695  0.7513
 3459TIP3   OH231867   6.531   1.990  15.914 -0.0734 -0.1678  0.0713
 3459TIP3    H131868   6.536   1.912  15.858  0.2398 -1.1813  1.4975
 3459TIP3    H231869   6.566   1.961  15.998 -1.2988  1.1336  1.0328
 3460TIP3   OH231870   3.030   2.854   0.814 -0.4145  0.0401 -0.1635
 3460TIP3    H131871   3.118   2.825   0.788 -0.3901  0.5727 -0.6944
 3460TIP3    H231872   3.045   2.931   0.868 -0.6382  2.0820 -2.8701
 3461TIP3   OH231873   4.706   5.985  17.247  0.1932 -0.0643 -0.1480
 3461TIP3    H131874   4.744   5.993  17.160  0.8505  0.3148  0.1646
 3461TIP3    H231875   4.756   6.048  17.301  2.2801 -2.8837  1.3348
 3462TIP3   OH231876   4.728   1.996  11.606 -0.2890  0.4064 -0.4356
 3462TIP3    H131877   4.807   2.049  11.599 -0.0200  0.0932  0.2043
 3462TIP3    H231878   4.753   1.923  11.662 -1.2023  0.6287  0.2741
 3463TIP3   OH231879   5.347   6.445  15.777 -0.4331 -0.6553 -0.2245
 3463TIP3    H131880   5.339   6.539  15.794  0.2497 -0.7427  0.5740
 3463TIP3    H231881   5.394   6.440  15.694  1.6673 -0.3201  0.9252
 3464TIP3   OH231882   4.327   5.882   6.367 -0.0812 -0.3469  0.2688
 3464TIP3    H131883   4.263   5.824   6.325 -0.1312  1.3563 -2.1405
 3464TIP3    H231884   4.339   5.845   6.455 -2.7493 -1.9324  0.0339
 3465TIP3   OH231885   2.301   2.921  14.980  0.2237 -0.5404 -0.4472
 3465TIP3    H131886   2.309   2.877  15.065  0.1745 -0.2020 -0.2666
 3465TIP3    H231887   2.253   2.858  14.925  0.2555 -0.7583 -0.2224
 3466TIP3   OH231888   0.710   4.899  12.510 -0.4419 -0.0649  0.8613
 3466TIP3    H131889   0.633   4.893  12.454 -0.8448 -2.0917  1.5955
 3466TIP3    H231890   0.732   4.993  12.511  0.0002 -0.0543 -3.1834
 3467TIP3   OH231891   1.235   4.023   0.063  0.2660  0.2317  0.1608
 3467TIP3    H131892   1.331   4.030   0.067  0.3506 -0.5098 -0.5561
 3467TIP3    H231893   1.210   3.982   0.146  0.4175  1.9750  1.0972
 3468TIP3   OH231894   2.623   4.607   4.687  0.1635  1.0273 -0.1611
 3468TIP3    H131895   2.559   4.655   4.635 -1.3320 -1.5687 -0.8297
 3468TIP3    H231896   2.682   4.567   4.622  1.4595  2.0280  0.3783
 3469TIP3   OH231897   0.118   4.403  10.969 -0.2432 -0.3798  0.2461
 3469TIP3    H131898   0.107   4.475  11.031 -0.3043 -0.7428  0.6593
 3469TIP3    H231899   0.198   4.425  10.921 -0.7506  0.4097 -0.2499
 3470TIP3   OH231900   6.588   6.586   0.431 -0.3545  0.0498  0.3198
 3470TIP3    H131901   6.598   6.498   0.395 -0.4346 -0.1877  0.8824
 3470TIP3    H231902   6.667   6.632   0.404 -1.2106  0.4191 -1.7183
 3471TIP3   OH231903   5.965   2.214  17.023  0.0672 -0.1544  0.5168
 3471TIP3    H131904   5.964   2.308  17.038  2.3946  0.0224 -0.3222
 3471TIP3    H231905   6.035   2.181  17.080 -1.3861 -1.5388  1.5688
 3472TIP3   OH231906   5.065   5.141  13.372  0.3266  0.2145  0.5041
 3472TIP3    H131907   5.111   5.225  13.364 -1.7576  1.4832  1.5536
 3472TIP3    H231908   4.983   5.162  13.417 -0.3855 -2.3377  0.4867
 3473TIP3   OH231909   0.936   0.126   0.150  0.3183  0.2759 -0.3439
 3473TIP3    H131910   0.962   0.062   0.084 -0.2029  2.5070 -2.8371
 3473TIP3    H231911   0.845   0.105   0.169  0.9444 -1.3713  0.8910
 3474TIP3   OH231912   1.830   4.878  14.520 -1.0981  0.1731  0.0709
 3474TIP3    H131913   1.871   4.807  14.569 -1.5041 -0.0445  0.0952
 3474TIP3    H231914   1.789   4.934  14.586 -2.7252 -0.7968 -0.0821
 3475TIP3   OH231915   5.164   1.059  12.589 -0.9251 -0.3926 -0.5295
 3475TIP3    H131916   5.172   1.151  12.564 -1.1669 -0.6508 -1.5700
 3475TIP3    H231917   5.112   1.019  12.519 -2.5399 -0.9097  0.9571
 3476TIP3   OH231918   2.698   1.159   2.924 -0.4031 -0.1591  0.0205
 3476TIP3    H131919   2.774   1.105   2.901 -0.9336 -1.1940  0.6718
 3476TIP3    H231920   2.622   1.105   2.904 -0.9354  0.1968  1.0406
 3477TIP3   OH231921   0.152   6.777   4.438  0.0224  0.2964  0.2195
 3477TIP3    H131922   0.196   6.854   4.473 -0.6760  0.7968  0.0144
 3477TIP3    H231923   0.108   6.738   4.514  1.2141 -0.4959  0.5272
 3478TIP3   OH231924   1.769   3.311   2.058 -0.1153  0.0245  0.0549
 3478TIP3    H131925   1.748   3.403   2.074  1.4089  0.6219 -1.2649
 3478TIP3    H231926   1.686   3.265   2.069 -0.4401  1.2109  3.2001
 3479TIP3   OH231927   5.591   4.077  13.271 -0.0254 -0.3084 -0.4758
 3479TIP3    H131928   5.672   4.027  13.258 -0.9855 -1.5772 -1.8425
 3479TIP3    H231929   5.552   4.081  13.184 -1.9461 -0.6361  0.3541
 3480TIP3   OH231930   5.698   6.465   5.665 -0.2037 -0.3719 -0.1898
 3480TIP3    H131931   5.675   6.498   5.578 -0.5867  0.1568  0.1105
 3480TIP3    H231932   5.793   6.454   5.662 -0.0693  0.8187 -0.2699
 3481TIP3   OH231933   5.160   4.474   1.205 -0.1201 -0.0090  0.1608
 3481TIP3    H131934   5.127   4.465   1.116 -1.0154  1.3034  0.3484
 3481TIP3    H231935   5.125   4.397   1.251 -1.5472  0.4980 -0.0581
 3482TIP3   OH231936   1.677   0.367   5.784 -0.5420  0.2843  0.2368
 3482TIP3    H131937   1.641   0.447   5.745 -0.9010  0.8857  1.7659
 3482TIP3    H231938   1.643   0.296   5.728 -2.1292  1.0268  0.2212
 3483TIP3   OH231939   5.760   6.521   2.932 -0.3178  0.2165  0.3687
 3483TIP3    H131940   5.740   6.536   2.839 -2.1117  0.1689  0.7433
 3483TIP3    H231941   5.735   6.430   2.948  1.2624 -0.2030  0.5828
 3484TIP3   OH231942   3.084   2.845   5.864  0.1799 -0.3229  0.1482
 3484TIP3    H131943   3.097   2.938   5.845 -0.6039 -0.1709  0.3329
 3484TIP3    H231944   2.996   2.826   5.831  0.8365 -1.3170 -1.0654
 3485TIP3   OH231945   6.377   1.697  10.941 -0.6846 -0.3523 -1.2248
 3485TIP3    H131946   6.465   1.723  10.912 -0.5327 -0.1056 -0.5774
 3485TIP3    H231947   6.317   1.746  10.885 -0.4010  2.2830  0.6800
 3486TIP3   OH231948   2.113   6.784   0.697  0.5206 -0.7242  0.7428
 3486TIP3    H131949   2.079   6.736   0.622 -0.0419 -0.3064  0.7232
 3486TIP3    H231950   2.114   6.875   0.669  1.1667 -0.6745  0.9292
 3487TIP3   OH231951   2.459   4.822   3.854  0.3976  0.2961 -0.1374
 3487TIP3    H131952   2.449   4.732   3.823 -1.7705 -0.3120  2.1758
 3487TIP3    H231953   2.370   4.851   3.871  1.0714  2.9011 -0.7674
 3488TIP3   OH231954   1.610   0.654  13.370 -0.0883  0.4341  0.3453
 3488TIP3    H131955   1.571   0.736  13.341  0.5064  0.5011 -0.2975
 3488TIP3    H231956   1.625   0.666  13.464 -0.1104  1.0198  0.2785
 3489TIP3   OH231957   6.393   4.081  12.321  0.5064 -0.8663  0.5908
 3489TIP3    H131958   6.322   4.122  12.369 -0.2374 -1.7415  0.2398
 3489TIP3    H231959   6.358   4.067  12.233  2.0521  1.2932 -0.4395
 3490TIP3   OH231960   6.518   1.199  16.482  0.3987 -0.3633 -0.4672
 3490TIP3    H131961   6.459   1.258  16.530  0.6579 -0.4075 -0.0945
 3490TIP3    H231962   6.598   1.198  16.534  0.4621 -0.8954 -0.5701
 3491TIP3   OH231963   0.497   6.648   6.044  0.0020 -0.1914  0.0316
 3491TIP3    H131964   0.508   6.694   5.961 -0.4980  0.6030  0.3987
 3491TIP3    H231965   0.483   6.718   6.108 -0.8534 -0.8560  0.5763
 3492TIP3   OH231966   2.345   3.404  10.450  0.2868 -0.6494 -0.2707
 3492TIP3    H131967   2.328   3.437  10.362 -0.1291  0.6925  0.3009
 3492TIP3    H231968   2.258   3.385  10.486  0.2461  1.6318  0.9104
 3493TIP3   OH231969   5.218   6.710  15.711 -0.2376 -0.1442 -0.1096
 3493TIP3    H131970   5.146   6.772  15.714  0.0307  0.2484 -1.2227
 3493TIP3    H231971   5.184   6.636  15.660 -0.5588 -0.9337  1.2141
 3494TIP3   OH231972   1.949   5.057   0.567 -0.1681  0.3153  0.0937
 3494TIP3    H131973   1.870   5.094   0.608 -0.7322 -0.5448 -0.1864
 3494TIP3    H231974   2.018   5.119   0.588 -0.3849 -0.1972  2.5524
 3495TIP3   OH231975   1.005   4.591  13.552 -0.2805 -0.1564  0.2219
 3495TIP3    H131976   0.997   4.585  13.647  2.0146 -0.4260  0.4379
 3495TIP3    H231977   1.022   4.683  13.534 -0.2256 -0.1837  0.1292
 3496TIP3   OH231978   2.904   0.641   1.389 -0.9706 -0.0795  0.2688
 3496TIP3    H131979   2.833   0.647   1.324 -0.3109 -0.4243 -0.4856
 3496TIP3    H231980   2.946   0.727   1.387 -1.3041  0.0967  0.6548
 3497TIP3   OH231981   5.547   1.027   0.741  0.5283  0.3665  0.6396
 3497TIP3    H131982   5.641   1.021   0.759  0.7039 -1.0826 -0.7183
 3497TIP3    H231983   5.540   1.017   0.646 -0.7433  3.8296  0.2933
 3498TIP3   OH231984   4.222   0.687   2.420  0.1082  0.3944 -0.0682
 3498TIP3    H131985   4.139   0.669   2.464 -0.5221  0.7406 -1.1162
 3498TIP3    H231986   4.197   0.723   2.335  1.3267  1.4341 -0.0025
 3499TIP3   OH231987   3.413   0.513  14.073  0.1167 -0.3163 -0.7373
 3499TIP3    H131988   3.341   0.456  14.099 -0.4483  0.1832 -1.1887
 3499TIP3    H231989   3.449   0.545  14.156 -0.5173 -0.1626 -0.5179
 3500TIP3   OH231990   2.012   3.056  15.985 -0.5700 -0.3659 -0.0045
 3500TIP3    H131991   1.989   3.135  15.934  1.3381  0.2952  0.1175
 3500TIP3    H231992   2.090   3.022  15.942  1.1234  0.2286  2.4648
 3501TIP3   OH231993   1.654   1.554  15.281  0.1649  0.4867 -0.0469
 3501TIP3    H131994   1.653   1.626  15.344  2.3900  1.7740 -1.4151
 3501TIP3    H231995   1.705   1.588  15.207  0.4754 -2.1982 -1.1068
 3502TIP3   OH231996   2.917   0.957   2.276  0.0245 -0.2716  0.4133
 3502TIP3    H131997   2.929   0.912   2.193 -2.4242 -1.2673  0.5565
 3502TIP3    H231998   2.822   0.965   2.286  0.1650 -1.9921  4.0482
 3503TIP3   OH231999   2.672   0.166  15.919 -0.5536 -0.2084 -0.0471
 3503TIP3    H132000   2.711   0.113  15.988 -0.0192 -2.0445 -1.7107
 3503TIP3    H232001   2.635   0.241  15.965  2.6258  0.2903  1.8577
 3504TIP3   OH232002   0.681   1.642  15.203  0.7892  0.1023 -0.4397
 3504TIP3    H132003   0.734   1.616  15.128  0.2108  0.3084 -0.9232
 3504TIP3    H232004   0.605   1.584  15.199  0.6990  0.1977 -0.0830
 3505TIP3   OH232005   2.047   5.816  13.249 -0.6602  0.1258  0.0826
 3505TIP3    H132006   1.986   5.872  13.298 -1.8900 -0.4275 -0.8002
 3505TIP3    H232007   2.017   5.727  13.266  0.6373 -0.2307  0.5965
 3506TIP3   OH232008   1.052   2.955  16.900 -0.0948  0.4295  0.0809
 3506TIP3    H132009   1.118   2.976  16.834 -0.3127 -2.2741 -1.0991
 3506TIP3    H232010   1.101   2.946  16.981  0.9286 -0.8771 -0.6547
 3507TIP3   OH232011   3.343   1.775   5.846 -0.2639  0.6274  0.1061
 3507TIP3    H132012   3.259   1.794   5.804  0.2636 -0.2868 -1.4352
 3507TIP3    H232013   3.403   1.761   5.773  1.1050  0.7444  1.1940
 3508TIP3   OH232014   5.079   2.222   1.657 -0.4992  0.0349 -0.7273
 3508TIP3    H132015   5.168   2.220   1.624 -0.1040  1.7125  0.1963
 3508TIP3    H232016   5.057   2.130   1.674  2.0054 -0.1962  1.5547
 3509TIP3   OH232017   2.523   1.392  14.800 -0.0278 -0.7589 -0.2969
 3509TIP3    H132018   2.491   1.306  14.770  1.0477 -0.4663 -2.3064
 3509TIP3    H232019   2.504   1.451  14.728  0.9945  0.3219  0.3090
 3510TIP3   OH232020   0.373   6.575   2.606  0.0359  0.2341  0.4921
 3510TIP3    H132021   0.277   6.575   2.599  0.0542  1.4156  0.0090
 3510TIP3    H232022   0.403   6.556   2.518  0.2442 -0.4981  0.7238
 3511TIP3   OH232023   1.178   2.875  11.599  0.0470  0.3248 -0.2389
 3511TIP3    H132024   1.200   2.785  11.576  0.7711  0.7856 -1.4257
 3511TIP3    H232025   1.165   2.918  11.515  1.5386  1.7755  0.2322
 3512TIP3   OH232026   1.731   0.235   1.708 -0.3831 -0.0173 -0.1351
 3512TIP3    H132027   1.741   0.144   1.681 -1.3277  0.3783 -1.8863
 3512TIP3    H232028   1.802   0.281   1.664 -1.0989  0.4161 -0.8347
 3513TIP3   OH232029   2.220   4.294   3.322  0.5086  0.3497  0.0508
 3513TIP3    H132030   2.266   4.353   3.262 -1.3832  0.9962 -0.8143
 3513TIP3    H232031   2.139   4.340   3.343 -0.5983 -1.5537  0.0669
 3514TIP3   OH232032   5.693   3.891   0.795 -0.2496 -0.2045  0.0703
 3514TIP3    H132033   5.653   3.872   0.710  0.1576 -0.0112 -0.1650
 3514TIP3    H232034   5.686   3.809   0.844 -0.3074 -0.3748 -0.2230
 3515TIP3   OH232035   3.719   4.301   0.150 -0.2015 -0.5499  0.0244
 3515TIP3    H132036   3.752   4.232   0.206  0.3973 -0.5328 -0.3041
 3515TIP3    H232037   3.791   4.321   0.090 -0.0545  0.9449  0.6595
 3516TIP3   OH232038   2.338   1.613  12.039 -0.6446  0.2347 -0.3438
 3516TIP3    H132039   2.306   1.684  11.983  0.8439 -0.1883 -1.7616
 3516TIP3    H232040   2.422   1.646  12.073 -1.2851  0.2800  1.2620
 3517TIP3   OH232041   5.402   2.761   4.004 -0.0268 -0.2683  0.0197
 3517TIP3    H132042   5.485   2.804   4.024 -0.3812  0.8896 -0.9483
 3517TIP3    H232043   5.375   2.720   4.087 -0.3005  2.4345  1.2995
 3518TIP3   OH232044   4.224   1.462  12.182 -0.1222 -0.4990  0.6863
 3518TIP3    H132045   4.178   1.384  12.213 -0.4074 -0.3513  0.6281
 3518TIP3    H232046   4.162   1.534  12.195  0.4029 -0.1639  1.4353
 3519TIP3   OH232047   4.889   5.149   1.533 -0.1700 -0.4144 -0.4688
 3519TIP3    H132048   4.849   5.146   1.446 -0.0438 -0.2993 -0.5322
 3519TIP3    H232049   4.962   5.210   1.523 -0.0769 -0.5008 -0.3139
 3520TIP3   OH232050   0.101   4.728   1.550 -0.3089 -0.3821 -0.2467
 3520TIP3    H132051   0.067   4.644   1.521 -0.2286 -0.1678 -0.9825
 3520TIP3    H232052   0.043   4.793   1.509  0.3768 -0.0460 -0.7068
 3521TIP3   OH232053   0.893   1.806  12.180  0.1517 -0.3530  0.0927
 3521TIP3    H132054   0.893   1.841  12.270  1.7206 -1.3337  0.4928
 3521TIP3    H232055   0.914   1.713  12.191  1.0476 -0.3302 -1.3295
 3522TIP3   OH232056   2.086   5.301   1.036  0.4302 -0.1107 -0.3326
 3522TIP3    H132057   2.069   5.380   0.985 -0.4621  0.6552  1.1394
 3522TIP3    H232058   2.096   5.232   0.970  2.0232  1.3517 -1.6528
 3523TIP3   OH232059   4.427   5.754   6.066 -0.0352  0.2739  0.2666
 3523TIP3    H132060   4.348   5.775   6.015  0.5663  0.6620 -0.5276
 3523TIP3    H232061   4.397   5.694   6.134 -0.5270 -1.8855 -1.7635
 3524TIP3   OH232062   1.511   1.466   4.642 -0.2200 -0.7023  0.1277
 3524TIP3    H132063   1.498   1.490   4.734 -1.6368 -1.7058  0.2026
 3524TIP3    H232064   1.579   1.527   4.611 -0.2331  0.1119  1.6343
 3525TIP3   OH232065   6.111   4.476  12.788  0.3743  0.3774  0.2400
 3525TIP3    H132066   6.134   4.400  12.841  0.7114  1.2280  1.3321
 3525TIP3    H232067   6.167   4.469  12.711 -1.2708 -1.7441 -0.8321
 3526TIP3   OH232068   1.562   6.531  15.063 -0.2189  0.6799  0.0575
 3526TIP3    H132069   1.525   6.538  14.975  0.8169  0.5716 -0.3866
 3526TIP3    H232070   1.635   6.471  15.054  0.0032  0.8128  0.9626
 3527TIP3   OH232071   0.761   6.670   0.862  0.2202 -0.8352 -0.2270
 3527TIP3    H132072   0.742   6.576   0.862 -1.7240 -0.4667  1.9881
 3527TIP3    H232073   0.726   6.701   0.778 -0.1072 -1.8734 -0.4929
 3528TIP3   OH232074   1.774   4.799   4.131  0.4569  0.6353 -0.7410
 3528TIP3    H132075   1.743   4.712   4.156  0.4051  1.7129  3.3042
 3528TIP3    H232076   1.694   4.850   4.117  0.4467  0.6844 -0.5159
 3529TIP3   OH232077   0.719   3.964  13.070  0.1207  0.2989 -0.4512
 3529TIP3    H132078   0.700   3.872  13.088  1.6677 -0.0484 -0.5518
 3529TIP3    H232079   0.741   3.966  12.977 -1.8938  1.1241 -0.9552
 3530TIP3   OH232080   1.539   1.877  13.997  0.3482 -0.2061  0.4601
 3530TIP3    H132081   1.581   1.895  14.081  1.4656 -0.3084 -0.0762
 3530TIP3    H232082   1.577   1.795  13.968 -1.4769 -1.1792  0.7699
 3531TIP3   OH232083   1.094   1.973   2.486  0.4035  0.2783 -0.3618
 3531TIP3    H132084   1.131   1.935   2.566  1.3937  3.1508  0.6100
 3531TIP3    H232085   1.018   1.918   2.466  0.8462 -1.2069  1.8466
 3532TIP3   OH232086   6.052   5.200   5.935  0.5113  0.4853  0.0973
 3532TIP3    H132087   6.140   5.163   5.923  1.0048  1.9844 -1.0398
 3532TIP3    H232088   6.022   5.164   6.019  1.6227 -1.1796 -0.1833
 3533TIP3   OH232089   2.954   0.226  16.531  0.1855  0.6131 -0.0146
 3533TIP3    H132090   2.920   0.279  16.459 -0.1656 -0.0836 -0.3697
 3533TIP3    H232091   2.892   0.153  16.538  1.4245 -0.5072 -0.4483
 3534TIP3   OH232092   5.939   2.501   0.193  0.5842 -0.5012  0.1456
 3534TIP3    H132093   5.847   2.476   0.190  1.0474 -2.4860  1.7182
 3534TIP3    H232094   5.950   2.559   0.118 -1.2197 -2.6707 -1.8487
 3535TIP3   OH232095   1.390   0.036  13.974 -0.1646  0.4802  0.1265
 3535TIP3    H132096   1.443   0.116  13.976  0.3556  0.2034 -1.6089
 3535TIP3    H232097   1.451  -0.034  13.994 -0.4951  0.4609  1.0591
 3536TIP3   OH232098   4.614   0.796  15.192 -0.2162  0.4218 -0.0131
 3536TIP3    H132099   4.555   0.753  15.130  1.5464 -0.9780 -0.7642
 3536TIP3    H232100   4.582   0.886  15.198 -1.7113 -0.0156 -1.2851
 3537TIP3   OH232101   6.253   3.499   0.304 -0.0142  0.0580  0.0769
 3537TIP3    H132102   6.290   3.586   0.287  1.2238 -0.1274  1.7171
 3537TIP3    H232103   6.195   3.512   0.379  2.5426 -1.0943  2.3017
 3538TIP3   OH232104   6.374   1.758  11.590 -0.2589  0.0117 -0.3247
 3538TIP3    H132105   6.446   1.696  11.602  0.4805  1.1059  0.9797
 3538TIP3    H232106   6.397   1.806  11.509  0.7821  0.7445  0.3918
 3539TIP3   OH232107   0.158   0.472   4.281 -0.9484 -0.1018  0.2241
 3539TIP3    H132108   0.149   0.510   4.368  0.0797  0.7369 -0.0163
 3539TIP3    H232109   0.184   0.381   4.296  1.5783  0.6594  0.8202
 3540TIP3   OH232110   0.169   4.066   5.601 -0.3013  0.3816 -0.2045
 3540TIP3    H132111   0.241   4.107   5.552 -0.8314  0.2747 -1.0720
 3540TIP3    H232112   0.188   4.087   5.692  1.7826 -1.1172 -0.2556
 3541TIP3   OH232113   0.562   3.024  13.769  0.1698 -0.0095 -0.3026
 3541TIP3    H132114   0.490   3.073  13.808  0.5918 -0.3247  0.8833
 3541TIP3    H232115   0.527   2.935  13.758  0.4119 -0.1795  0.3393
 3542TIP3   OH232116   3.934   0.588   3.175  0.1661  0.5475 -0.4303
 3542TIP3    H132117   3.958   0.647   3.103  0.0554  1.1188 -0.0060
 3542TIP3    H232118   3.917   0.504   3.132  2.1971  0.3150 -0.8312
 3543TIP3   OH232119   5.929   3.663   0.138 -0.8803  0.1310  0.0315
 3543TIP3    H132120   5.920   3.701   0.225  2.3059 -2.4664  1.6114
 3543TIP3    H232121   6.012   3.697   0.105 -0.6907 -1.0989 -0.8018
 3544TIP3   OH232122   4.052   1.348   5.741  0.3427  0.7587 -0.2958
 3544TIP3    H132123   4.032   1.285   5.672 -1.6528  0.0889  0.8437
 3544TIP3    H232124   4.067   1.430   5.695 -0.2760  0.1648 -1.5888
 3545TIP3   OH232125   2.124   3.692  10.594  0.4163 -0.0878 -0.0168
 3545TIP3    H132126   2.065   3.739  10.653  0.5838  0.4889 -0.3071
 3545TIP3    H232127   2.191   3.756  10.571  0.1109 -0.1809 -1.1745
 3546TIP3   OH232128   4.460   3.746   5.675  0.3192 -0.1727 -0.0999
 3546TIP3    H132129   4.379   3.793   5.693  1.1341  0.8057  1.1188
 3546TIP3    H232130   4.508   3.803   5.614  0.6430 -0.1337  0.1883
 3547TIP3   OH232131   5.944   2.416   0.640 -0.2752 -0.2810 -0.2128
 3547TIP3    H132132   5.954   2.383   0.729 -1.1486  1.0517  0.3974
 3547TIP3    H232133   5.879   2.486   0.647 -1.5640 -1.2352 -2.1706
 3548TIP3   OH232134   2.768   5.912   2.404 -0.3300  0.0393 -0.2492
 3548TIP3    H132135   2.742   5.989   2.454  0.9360  0.6267 -0.4974
 3548TIP3    H232136   2.711   5.914   2.327 -1.8659 -0.5361  0.8335
 3549TIP3   OH232137   2.479   5.040  15.027  0.2212  0.5837 -0.2371
 3549TIP3    H132138   2.495   5.133  15.011  0.6029  0.1699 -2.4340
 3549TIP3    H232139   2.565   4.999  15.019  0.3306  0.2130  2.3250
 3550TIP3   OH232140   5.593   0.233   1.276 -0.2773 -0.0063 -0.0099
 3550TIP3    H132141   5.687   0.216   1.268 -0.4672 -1.0654 -0.0380
 3550TIP3    H232142   5.554   0.146   1.284 -1.2459  0.4407  0.1133
 3551TIP3   OH232143   5.548   6.319   0.342 -0.3034 -0.4628 -0.0213
 3551TIP3    H132144   5.603   6.290   0.269 -0.6445 -0.6815 -0.1904
 3551TIP3    H232145   5.570   6.412   0.353  0.4002 -0.6545  0.1771
 3552TIP3   OH232146   3.407   3.188  12.419  0.4930 -0.4362 -0.9029
 3552TIP3    H132147   3.405   3.259  12.354 -1.1046 -0.7685 -1.2367
 3552TIP3    H232148   3.496   3.189  12.453  0.1849  2.5243 -0.0386
 3553TIP3   OH232149   4.046   3.822   2.222  0.1540 -0.1510 -0.1185
 3553TIP3    H132150   4.023   3.762   2.293 -2.3979  0.4987 -0.3572
 3553TIP3    H232151   4.142   3.825   2.224  0.2164 -2.0614  1.6843
 3554TIP3   OH232152   0.684   1.526   2.079  0.4488 -0.5409 -0.1873
 3554TIP3    H132153   0.724   1.607   2.112 -1.4782  0.3344  0.0472
 3554TIP3    H232154   0.684   1.537   1.984  1.0290 -0.6671 -0.2012
 3555TIP3   OH232155   4.023   2.542   5.492  0.2552 -0.0026  0.2052
 3555TIP3    H132156   4.114   2.539   5.462 -0.2094  2.5431 -1.5492
 3555TIP3    H232157   4.012   2.630   5.528 -1.7857  0.0707 -0.5207
 3556TIP3   OH232158   6.071   3.656  11.736 -0.2504 -0.3516 -0.4243
 3556TIP3    H132159   6.112   3.742  11.723 -1.3870  0.2077 -0.4068
 3556TIP3    H232160   6.071   3.645  11.831 -0.4570 -0.1899 -0.4035
 3557TIP3   OH232161   5.163   5.478   3.790 -0.3714  0.1354  0.0626
 3557TIP3    H132162   5.234   5.537   3.815 -0.4063  0.1897  0.0348
 3557TIP3    H232163   5.206   5.396   3.769 -0.1561  0.6074 -1.4379
 3558TIP3   OH232164   5.659   0.484  15.133 -0.1512 -0.4388 -0.1322
 3558TIP3    H132165   5.706   0.402  15.117 -1.1437 -1.0234 -0.1005
 3558TIP3    H232166   5.575   0.472  15.088 -1.0497 -0.1762  1.4550
 3559TIP3   OH232167   2.184   5.395  15.772 -0.5526  0.5409  0.0912
 3559TIP3    H132168   2.234   5.318  15.747  0.9646  1.1407  1.2516
 3559TIP3    H232169   2.145   5.426  15.690 -0.8272 -1.2036 -0.4381
 3560TIP3   OH232170   2.680   0.473   0.079  0.1384  0.2988 -0.0313
 3560TIP3    H132171   2.726   0.423   0.011  0.1719  0.3723 -0.0615
 3560TIP3    H232172   2.685   0.418   0.157  3.6754  1.9810  1.0356
 3561TIP3   OH232173   3.404   4.927   5.629 -0.1593 -0.7087  0.0880
 3561TIP3    H132174   3.425   4.866   5.559 -1.7844 -1.2670  0.0564
 3561TIP3    H232175   3.324   4.972   5.599  0.1851  0.3721  0.7594
 3562TIP3   OH232176   2.350   0.969   0.280 -0.1166 -0.2687  0.3153
 3562TIP3    H132177   2.410   0.895   0.269  1.5767  1.0039  0.7605
 3562TIP3    H232178   2.407   1.046   0.284 -1.6701  0.8062  2.5441
 3563TIP3   OH232179   6.757   0.176   2.497  0.4269  0.1186  0.3281
 3563TIP3    H132180   6.693   0.105   2.495  2.0436 -1.6091  3.6620
 3563TIP3    H232181   6.810   0.163   2.418 -1.6309 -0.0209 -1.0702
 3564TIP3   OH232182   3.840   6.749  12.596 -0.1066 -0.2372 -0.0971
 3564TIP3    H132183   3.875   6.753  12.507 -2.1539 -0.4879 -0.9547
 3564TIP3    H232184   3.753   6.710  12.586 -0.3908 -0.2405  2.0217
 3565TIP3   OH232185   1.658   1.072  11.575  0.0938 -0.0527  0.3111
 3565TIP3    H132186   1.708   1.093  11.497  0.9989  0.2207  0.9546
 3565TIP3    H232187   1.578   1.031  11.543  0.3608  0.2670 -0.7591
 3566TIP3   OH232188   2.239   5.235   5.017 -0.5251  0.1779 -0.2579
 3566TIP3    H132189   2.174   5.265   4.955 -0.6323  0.1010 -0.1832
 3566TIP3    H232190   2.191   5.224   5.100 -0.0154  2.0128  0.2959
 3567TIP3   OH232191   3.805   1.833  10.528  0.5606 -0.2350  0.2218
 3567TIP3    H132192   3.773   1.762  10.583  1.0344  0.7907  1.8775
 3567TIP3    H232193   3.741   1.903  10.539  1.5617  0.6069  0.8938
 3568TIP3   OH232194   4.406   6.258   1.270 -0.3053 -0.0783 -0.2739
 3568TIP3    H132195   4.491   6.214   1.263 -1.1106 -2.1321  2.1079
 3568TIP3    H232196   4.419   6.325   1.337  0.0493  1.3297 -1.6840
 3569TIP3   OH232197   2.591   2.654   0.713 -0.5135  0.0303 -0.1100
 3569TIP3    H132198   2.622   2.622   0.798  0.6659 -1.0103 -0.9354
 3569TIP3    H232199   2.646   2.730   0.694 -1.3390  0.7776  0.4421
 3570TIP3   OH232200   6.706   2.316  14.353  0.0600  0.1925 -0.0373
 3570TIP3    H132201   6.701   2.295  14.259  0.5306  0.3435 -0.1000
 3570TIP3    H232202   6.620   2.295  14.387 -0.5118  1.3056 -0.7523
 3571TIP3   OH232203   3.215   4.565   5.070 -0.1663 -0.3273  0.5340
 3571TIP3    H132204   3.145   4.567   5.135 -0.3829  0.3983  0.2814
 3571TIP3    H232205   3.265   4.645   5.086 -0.9034  0.4567 -0.9391
 3572TIP3   OH232206   4.241   2.029   3.908  0.1256 -0.1519 -0.4065
 3572TIP3    H132207   4.152   2.004   3.883 -0.8150  1.7608  0.8747
 3572TIP3    H232208   4.283   2.054   3.825 -0.8790 -0.0570 -0.9022
 3573TIP3   OH232209   2.893   1.395  14.235 -0.4913  0.6701 -0.1024
 3573TIP3    H132210   2.836   1.472  14.244 -1.8584 -0.3650  0.4511
 3573TIP3    H232211   2.848   1.327  14.286  0.4362 -0.6336 -1.0055
 3574TIP3   OH232212   2.839   1.852   2.911  0.0872  0.2521  0.1890
 3574TIP3    H132213   2.766   1.831   2.853 -1.5224  1.0567  1.8485
 3574TIP3    H232214   2.797   1.866   2.997  2.3530 -0.6293  1.4681
 3575TIP3   OH232215   0.725   1.035   0.248  0.3710  0.7333  0.6146
 3575TIP3    H132216   0.695   1.125   0.236 -0.0088  0.6185  0.7104
 3575TIP3    H232217   0.699   0.990   0.168 -1.9349  0.0277  1.7034
 3576TIP3   OH232218   2.154   4.930   5.171  0.2024  0.3591  0.5753
 3576TIP3    H132219   2.112   5.012   5.145 -1.2166  0.1504  2.0513
 3576TIP3    H232220   2.086   4.885   5.222  1.4997 -1.0139  1.1080
 3577TIP3   OH232221   2.162   0.594  14.640  0.3488  0.4680  0.5235
 3577TIP3    H132222   2.239   0.638  14.605  0.4678 -2.0363 -2.6127
 3577TIP3    H232223   2.197   0.515  14.683 -0.4377 -1.0876 -1.5932
 3578TIP3   OH232224   3.638   6.168   5.411 -0.0868 -0.1612  0.0673
 3578TIP3    H132225   3.605   6.234   5.349 -0.4469 -1.5218 -1.2053
 3578TIP3    H232226   3.560   6.132   5.452  0.0469 -0.5707 -0.0390
 3579TIP3   OH232227   3.806   1.196   0.700  0.2795  0.0278 -0.3916
 3579TIP3    H132228   3.833   1.263   0.761 -3.6429  1.0221  0.3931
 3579TIP3    H232229   3.782   1.243   0.620 -0.2014 -0.6605 -0.6684
 3580TIP3   OH232230   4.622   6.752  13.328 -0.1226 -0.0301 -0.1365
 3580TIP3    H132231   4.607   6.660  13.307  0.5308 -0.5133  1.4825
 3580TIP3    H232232   4.567   6.768  13.405  0.0461  0.8303 -0.1955
 3581TIP3   OH232233   1.134   4.347  13.535  0.0263 -0.2860  0.6233
 3581TIP3    H132234   1.121   4.321  13.443  0.8426 -0.3819  0.5296
 3581TIP3    H232235   1.062   4.407  13.553  0.1358  0.1227 -0.2335
 3582TIP3   OH232236   1.783   0.719   4.882 -0.0123  0.2092  0.4615
 3582TIP3    H132237   1.838   0.735   4.959  0.1918 -1.2056  0.6289
 3582TIP3    H232238   1.695   0.744   4.909  0.0124 -0.5434  1.2595
 3583TIP3   OH232239   3.007   2.464  12.394 -0.1565 -0.3771 -0.3305
 3583TIP3    H132240   2.929   2.444  12.447 -1.4692  0.5052 -1.8655
 3583TIP3    H232241   3.038   2.548  12.429 -1.7223  0.8088 -1.6570
 3584TIP3   OH232242   3.976   2.120  15.215 -0.4136 -0.2014  0.4565
 3584TIP3    H132243   3.882   2.109  15.200 -0.1802 -0.1588 -1.1368
 3584TIP3    H232244   3.999   2.050  15.275 -1.9626  1.3831  2.9951
 3585TIP3   OH232245   1.870   6.226  16.471  0.4392 -0.0979 -0.2670
 3585TIP3    H132246   1.855   6.314  16.437 -0.0427 -0.3792 -0.8084
 3585TIP3    H232247   1.792   6.177  16.445  0.7597 -0.7145 -0.0819
 3586TIP3   OH232248   2.451   6.701   1.681  0.2102  0.2110  0.3794
 3586TIP3    H132249   2.524   6.716   1.621 -0.9562 -0.3255 -1.1943
 3586TIP3    H232250   2.388   6.650   1.630 -0.1109 -1.6653  2.5630
 3587TIP3   OH232251   1.305   2.588  12.427 -0.3754 -0.6780  0.4229
 3587TIP3    H132252   1.253   2.666  12.445  0.2560 -0.1881  0.1476
 3587TIP3    H232253   1.291   2.532  12.503 -1.1598 -0.4807  0.4337
 3588TIP3   OH232254   0.172   2.333  13.816 -0.5167  0.3650 -0.1580
 3588TIP3    H132255   0.126   2.254  13.844  2.1196 -0.2208  2.9028
 3588TIP3    H232256   0.217   2.308  13.735 -0.8904 -0.8271 -0.0031
 3589TIP3   OH232257   2.357   0.810  17.154  0.0433  0.6497  0.2293
 3589TIP3    H132258   2.407   0.767  17.223 -1.1971 -0.6529  0.3279
 3589TIP3    H232259   2.410   0.797  17.075  0.3760  0.2141  0.5227
 3590TIP3   OH232260   0.429   1.925  11.619 -0.0511  0.9164  0.6952
 3590TIP3    H132261   0.516   1.957  11.598 -0.8686  3.3496  0.7866
 3590TIP3    H232262   0.427   1.922  11.715  0.1030  0.3341  0.6817
 3591TIP3   OH232263   3.516   4.721   3.319 -0.0719  0.3880  0.5452
 3591TIP3    H132264   3.473   4.793   3.364 -2.6777 -1.2997  0.8800
 3591TIP3    H232265   3.445   4.675   3.274  1.7834 -0.8737 -1.2168
 3592TIP3   OH232266   1.516   2.288   5.732  0.2475 -0.3107  0.2222
 3592TIP3    H132267   1.474   2.374   5.738  1.2248  0.3239 -1.5728
 3592TIP3    H232268   1.533   2.263   5.822 -1.0812  0.8649  0.8110
 3593TIP3   OH232269   4.066   5.712   0.349 -0.2845 -0.3807 -0.3908
 3593TIP3    H132270   4.117   5.708   0.430 -0.7512 -0.0664 -0.0862
 3593TIP3    H232271   4.132   5.708   0.280  0.1065 -0.7577  0.0025
 3594TIP3   OH232272   3.483   4.849   0.638 -0.4059  0.0706  0.2102
 3594TIP3    H132273   3.577   4.834   0.653 -0.2168 -0.0404 -1.0546
 3594TIP3    H232274   3.450   4.879   0.723  0.8523  0.4820  0.5672
 3595TIP3   OH232275   1.924   4.924  11.449 -0.7501  0.8555 -0.0931
 3595TIP3    H132276   1.922   4.829  11.438  0.4162  1.1986 -4.3209
 3595TIP3    H232277   1.994   4.939  11.513 -0.1307 -1.0964 -0.2593
 3596TIP3   OH232278   1.171   0.345   4.129 -0.0117 -0.1952  0.3201
 3596TIP3    H132279   1.236   0.288   4.088 -2.1607 -2.1675 -0.4828
 3596TIP3    H232280   1.124   0.385   4.056 -0.1894  0.6444  0.8829
 3597TIP3   OH232281   4.113   0.674   2.151 -0.2648  0.4407  0.0064
 3597TIP3    H132282   4.120   0.715   2.064  3.0198  0.7540  0.3684
 3597TIP3    H232283   4.143   0.584   2.137  0.2915  0.4999  0.8146
 3598TIP3   OH232284   4.293   6.168  15.802  0.3474  0.0136 -0.5244
 3598TIP3    H132285   4.291   6.234  15.871 -0.0144  0.7022 -1.1792
 3598TIP3    H232286   4.208   6.178  15.758  0.1898 -1.0528 -0.4748
 3599TIP3   OH232287   5.625   0.772   6.184  0.7242  0.0319  0.2561
 3599TIP3    H132288   5.546   0.827   6.185  1.4194  1.0533  2.1305
 3599TIP3    H232289   5.630   0.736   6.273  0.9907 -2.0759 -0.5897
 3600TIP3   OH232290   1.897   3.302   2.314 -0.9471 -0.0618  0.1480
 3600TIP3    H132291   1.968   3.238   2.325  1.3567  2.4100  0.1643
 3600TIP3    H232292   1.870   3.293   2.223  0.2371 -0.1704 -0.1966
 3601TIP3   OH232293   0.597   6.717   4.013  0.2888  0.7197  0.1595
 3601TIP3    H132294   0.556   6.779   4.074  1.1053  1.8001 -0.3770
 3601TIP3    H232295   0.659   6.770   3.962  0.0808 -0.2974 -1.1810
 3602TIP3   OH232296   4.539   0.807  15.980 -0.2962 -0.1828  0.3432
 3602TIP3    H132297   4.454   0.769  15.957 -1.5602  2.5449  0.3147
 3602TIP3    H232298   4.543   0.888  15.931  1.5315  0.6522  1.8009
 3603TIP3   OH232299   5.998   3.142   0.639 -1.1887  0.1381 -0.2017
 3603TIP3    H132300   6.092   3.135   0.624 -1.3009  0.0604 -0.8982
 3603TIP3    H232301   5.966   3.052   0.636 -0.9416 -0.0827  2.4547
 3604TIP3   OH232302   5.531   0.035  13.309 -0.1273 -0.2192 -0.2064
 3604TIP3    H132303   5.496  -0.051  13.285  0.3500 -0.5659  0.3328
 3604TIP3    H232304   5.609   0.016  13.360 -0.1049  0.5384  0.0468
 3605TIP3   OH232305   5.771   2.355  16.836 -0.5319  0.2749  0.2220
 3605TIP3    H132306   5.802   2.307  16.913  1.5991  1.0708 -0.0925
 3605TIP3    H232307   5.759   2.445  16.867 -0.6542  0.3733 -0.1145
 3606TIP3   OH232308   5.034   5.504   4.041 -0.1911  0.5359  0.0334
 3606TIP3    H132309   5.059   5.494   3.949 -0.3399 -1.0921  0.1708
 3606TIP3    H232310   5.086   5.439   4.088 -0.4715  1.0261  1.0478
 3607TIP3   OH232311   0.210   1.572   1.375 -0.4797 -0.2162 -0.1660
 3607TIP3    H132312   0.249   1.517   1.444 -0.5788 -2.0195 -1.5031
 3607TIP3    H232313   0.117   1.575   1.397 -0.1390  1.2249  1.1140
 3608TIP3   OH232314   1.080   2.342   5.373  0.8049 -0.5527  0.0849
 3608TIP3    H132315   1.174   2.361   5.373  0.5702  0.7448 -1.0072
 3608TIP3    H232316   1.042   2.413   5.320 -0.5110 -2.4296 -1.5417
 3609TIP3   OH232317   3.031   3.838   1.653 -0.1243 -0.3260  0.5815
 3609TIP3    H132318   2.969   3.911   1.647  0.5441  0.3236  1.4229
 3609TIP3    H232319   3.081   3.842   1.572  2.0816  2.1716  1.9809
 3610TIP3   OH232320   6.174   0.585  16.361 -0.1254 -0.3262 -0.7543
 3610TIP3    H132321   6.101   0.619  16.412  1.1473  1.5229 -0.1074
 3610TIP3    H232322   6.139   0.508  16.316 -3.2092  2.1297 -2.6848
 3611TIP3   OH232323   5.930   5.202   3.426 -0.3404  0.4286 -0.1663
 3611TIP3    H132324   5.981   5.263   3.373 -0.4592  0.7167  0.0488
 3611TIP3    H232325   5.992   5.134   3.451 -0.0905  0.7061 -0.0243
 3612TIP3   OH232326   6.575   2.501   4.761 -0.1004 -0.2978 -0.3221
 3612TIP3    H132327   6.520   2.558   4.815 -1.2170 -1.9143  0.3147
 3612TIP3    H232328   6.629   2.453   4.824 -0.1998 -0.9727 -0.7479
 3613TIP3   OH232329   5.097   2.768  12.027 -0.0985 -0.3197 -0.6090
 3613TIP3    H132330   5.137   2.687  12.059 -0.9709 -0.6101 -0.2320
 3613TIP3    H232331   5.133   2.779  11.939 -1.1145 -1.9437 -1.2616
 3614TIP3   OH232332   5.382   0.800  15.394 -0.1282 -0.2642 -0.0209
 3614TIP3    H132333   5.415   0.808  15.304  0.7557 -0.2293  0.3039
 3614TIP3    H232334   5.333   0.881  15.409  1.9029  0.9168  0.4166
 3615TIP3   OH232335   0.868   2.059   4.930 -0.0790 -0.3304 -0.4674
 3615TIP3    H132336   0.871   2.155   4.935 -0.5773 -0.3610  0.3779
 3615TIP3    H232337   0.854   2.030   5.020  2.9183 -1.3349 -0.2651
 3616TIP3   OH232338   3.566   0.960   4.251 -0.5568 -0.7591 -0.1368
 3616TIP3    H132339   3.618   0.998   4.322 -0.4028 -0.1785 -0.5591
 3616TIP3    H232340   3.477   0.954   4.287 -0.1709 -1.9522  0.6583
 3617TIP3   OH232341   2.361   6.262   1.397 -0.4257  0.0370 -0.3985
 3617TIP3    H132342   2.344   6.249   1.304 -1.1060 -2.7664  0.0501
 3617TIP3    H232343   2.456   6.261   1.405 -0.3328  1.4811 -1.1919
 3618TIP3   OH232344   2.999   2.879  16.008  0.1927 -0.3845  0.5016
 3618TIP3    H132345   2.951   2.799  15.984  0.3894 -0.7634  1.3424
 3618TIP3    H232346   2.942   2.922  16.072 -0.7414  1.0696 -1.2605
 3619TIP3   OH232347   1.454   4.155   2.780 -0.2883 -0.4146  0.1386
 3619TIP3    H132348   1.466   4.121   2.868  1.1948 -0.8178 -0.2101
 3619TIP3    H232349   1.373   4.207   2.785  0.2100  0.2211  1.9143
 3620TIP3   OH232350   6.804   5.988   2.901  0.0839 -0.6048 -0.0342
 3620TIP3    H132351   6.743   5.924   2.937 -0.1014 -0.6068 -0.3473
 3620TIP3    H232352   6.815   5.962   2.809 -3.1680  2.2038 -1.3042
 3621TIP3   OH232353   4.945   4.512   5.360  0.3766 -0.1255 -0.2357
 3621TIP3    H132354   4.933   4.554   5.274  0.9735  2.0139  0.6756
 3621TIP3    H232355   5.040   4.511   5.372  0.2482  0.8450  0.9675
 3622TIP3   OH232356   4.857   4.816  13.850  0.2702  0.2088 -0.0609
 3622TIP3    H132357   4.777   4.788  13.804  0.5226  0.9224 -0.9443
 3622TIP3    H232358   4.893   4.735  13.886 -0.7117 -0.1581  0.1144
 3623TIP3   OH232359   6.012   1.266  11.573  1.1329 -0.0387  0.2995
 3623TIP3    H132360   5.973   1.352  11.593  1.8262  0.2846  0.2756
 3623TIP3    H232361   5.994   1.213  11.650 -1.9231 -0.8136 -0.8360
 3624TIP3   OH232362   5.579   4.393   1.818 -0.7081 -0.0335  0.4338
 3624TIP3    H132363   5.653   4.435   1.863 -0.9688  1.6464 -0.6899
 3624TIP3    H232364   5.502   4.423   1.866 -0.7448 -1.0157  1.0027
 3625TIP3   OH232365   0.236   1.451  14.411 -0.5902  0.1418  0.0495
 3625TIP3    H132366   0.234   1.497  14.495  0.9171  0.8109 -0.2666
 3625TIP3    H232367   0.328   1.451  14.386 -0.8885 -1.0143 -1.0878
 3626TIP3   OH232368   2.099   2.301   5.497  0.0770 -0.2088  0.6139
 3626TIP3    H132369   2.118   2.289   5.404 -0.2505  0.7126  0.4185
 3626TIP3    H232370   2.155   2.238   5.542  0.4168 -0.4847 -0.1965
 3627TIP3   OH232371   0.140   0.080   3.868  0.0552 -0.0119  0.3587
 3627TIP3    H132372   0.128   0.002   3.922  0.5651 -0.3491 -0.0056
 3627TIP3    H232373   0.193   0.139   3.921 -1.2725  0.5607  1.0850
 3628TIP3   OH232374   6.644   2.881   5.048 -0.0887 -0.5960 -0.6622
 3628TIP3    H132375   6.689   2.880   5.132  0.8523 -2.0215 -1.1534
 3628TIP3    H232376   6.566   2.935   5.062  0.9112  0.5198  0.6576
 3629TIP3   OH232377   0.437   3.110   0.847  0.1407 -0.8273 -0.5289
 3629TIP3    H132378   0.382   3.140   0.774 -0.2434 -0.8284 -0.2371
 3629TIP3    H232379   0.503   3.054   0.805 -1.9199 -3.3531 -0.5122
 3630TIP3   OH232380   6.465   5.954  16.139  0.0197  0.2235  0.1007
 3630TIP3    H132381   6.473   5.951  16.234 -0.5148 -0.4005  0.1302
 3630TIP3    H232382   6.383   6.002  16.123 -0.3743 -0.4800 -0.0213
 3631TIP3   OH232383   4.276   2.493  16.204  0.0321 -0.4753  0.2674
 3631TIP3    H132384   4.333   2.519  16.132  0.0082 -1.0471  0.0399
 3631TIP3    H232385   4.225   2.571  16.224 -0.0273 -0.3367 -0.3984
 3632TIP3   OH232386   6.366   4.778  14.067 -0.3498  0.4398 -0.2263
 3632TIP3    H132387   6.304   4.711  14.039  0.3647 -0.8416  1.2101
 3632TIP3    H232388   6.341   4.856  14.018 -3.6680  0.1862  0.9591
 3633TIP3   OH232389   0.794   2.270   1.933  0.2226  0.4111 -0.4119
 3633TIP3    H132390   0.853   2.336   1.897 -0.0075  1.6322  1.3690
 3633TIP3    H232391   0.717   2.273   1.877  1.3508 -0.3505 -2.0406
 3634TIP3   OH232392   3.150   6.602  11.901 -0.3063 -0.1394  0.3571
 3634TIP3    H132393   3.190   6.685  11.926 -1.3116  0.9192 -1.4358
 3634TIP3    H232394   3.095   6.578  11.975 -1.1511  1.5545  0.2920
 3635TIP3   OH232395   6.154   5.011   5.362  0.0667  0.0724 -0.0341
 3635TIP3    H132396   6.125   5.026   5.451  0.8797 -0.1553  0.2784
 3635TIP3    H232397   6.143   4.917   5.348 -0.6036  0.1992 -0.3741
 3636TIP3   OH232398   5.686   1.628   1.268  0.3549  0.0527 -0.2675
 3636TIP3    H132399   5.660   1.662   1.183  0.9208 -2.5151 -1.5221
 3636TIP3    H232400   5.611   1.578   1.299  0.0876  1.1137  0.8336
 3637TIP3   OH232401   2.890   0.976   2.888 -0.4588 -0.0126 -0.0930
 3637TIP3    H132402   2.979   0.985   2.921 -0.7300  1.3919  0.2957
 3637TIP3    H232403   2.851   0.907   2.941  0.9246 -1.8640 -1.4256
 3638TIP3   OH232404   1.507   3.518  12.516 -0.1543  0.7216 -0.1576
 3638TIP3    H132405   1.450   3.488  12.445 -0.9570  3.2639 -0.6286
 3638TIP3    H232406   1.576   3.568  12.472  1.2094 -0.4530  0.6035
 3639TIP3   OH232407   6.193   2.449   6.188  0.2574 -0.3856  0.1971
 3639TIP3    H132408   6.191   2.498   6.270 -1.4530 -1.1607  0.6427
 3639TIP3    H232409   6.115   2.479   6.141 -0.0759 -1.7055 -0.1004
 3640TIP3   OH232410   2.881   4.141  12.457 -0.3235  0.8085 -0.3265
 3640TIP3    H132411   2.800   4.184  12.484 -1.5579 -1.4055 -0.4411
 3640TIP3    H232412   2.876   4.054  12.495  1.3833  0.1853 -1.4838
 3641TIP3   OH232413   3.261   0.595  14.593 -0.1372  0.1780  0.2470
 3641TIP3    H132414   3.178   0.643  14.590 -0.7105 -0.7079  1.4897
 3641TIP3    H232415   3.247   0.520  14.536 -0.2100  0.0134  0.4791
 3642TIP3   OH232416   4.952   6.187   5.030  0.2620  0.0150  0.6771
 3642TIP3    H132417   4.974   6.173   5.122 -0.2335  0.7736  0.9126
 3642TIP3    H232418   5.014   6.132   4.982  1.2046  0.4019  1.4252
 3643TIP3   OH232419   4.961   0.645   4.988 -0.0120 -0.2851  0.0557
 3643TIP3    H132420   5.045   0.691   4.990 -0.5775  0.8013 -0.6361
 3643TIP3    H232421   4.964   0.591   4.909  0.5411 -1.2300  0.7172
 3644TIP3   OH232422   6.636   0.314   5.137 -0.3852  0.5211 -0.5667
 3644TIP3    H132423   6.540   0.309   5.133 -0.4272 -0.8280  1.3197
 3644TIP3    H232424   6.665   0.267   5.059 -1.2630 -0.8642 -0.0846
 3645TIP3   OH232425   6.477   4.362  15.750 -0.3982 -0.1608 -0.2246
 3645TIP3    H132426   6.386   4.377  15.724 -0.1568  0.3645 -0.7724
 3645TIP3    H232427   6.480   4.268  15.771 -0.8325 -0.3902 -1.1476
 3646TIP3   OH232428   0.775   6.305  13.784  0.0850 -0.4765 -0.0999
 3646TIP3    H132429   0.772   6.262  13.699 -1.1256 -0.7464  0.0650
 3646TIP3    H232430   0.868   6.306  13.807  0.3460 -1.0603 -1.0873
 3647TIP3   OH232431   4.053   5.777  14.352 -0.3351 -0.1366 -0.0334
 3647TIP3    H132432   4.004   5.850  14.314  0.1504  0.0564 -0.2873
 3647TIP3    H232433   4.009   5.760  14.435 -1.0447 -0.1873 -0.4152
 3648TIP3   OH232434   6.195   2.979  17.075 -0.1969 -0.1404  0.1386
 3648TIP3    H132435   6.277   2.952  17.115 -1.6065 -2.2565  1.7424
 3648TIP3    H232436   6.157   3.041  17.138  0.6841  1.7494 -1.1533
 3649TIP3   OH232437   5.060   1.436   4.701 -0.0230 -0.3459  0.0990
 3649TIP3    H132438   5.111   1.355   4.709 -0.4190 -0.6457 -0.3847
 3649TIP3    H232439   4.969   1.409   4.711 -0.2815 -0.2142 -1.6514
 3650TIP3   OH232440   0.675   5.569   2.100 -0.1898 -0.0940  0.4410
 3650TIP3    H132441   0.686   5.617   2.018 -1.0105 -0.7817 -0.0683
 3650TIP3    H232442   0.586   5.591   2.129  0.7115  1.5705  2.0678
 3651TIP3   OH232443   2.056   2.120  17.132 -0.1032 -0.1266 -0.4052
 3651TIP3    H132444   1.974   2.072  17.145 -0.1568  0.1210  0.1454
 3651TIP3    H232445   2.111   2.059  17.082 -1.6060  0.7215 -3.2525
 3652TIP3   OH232446   6.224   1.021  14.089 -0.1722  0.1519  0.4258
 3652TIP3    H132447   6.287   0.959  14.128  0.2666 -0.1664 -0.7455
 3652TIP3    H232448   6.246   1.021  13.995 -2.5489 -0.7062 -0.1704
 3653TIP3   OH232449   1.651   6.483  12.717 -0.1435 -0.1584 -0.0073
 3653TIP3    H132450   1.571   6.518  12.678 -1.0732 -1.7290  0.4088
 3653TIP3    H232451   1.686   6.423  12.652  2.1538  2.4392 -1.2560
 3654TIP3   OH232452   2.768   5.120   1.964  0.2610  0.2438 -0.5601
 3654TIP3    H132453   2.859   5.112   1.935  0.4692  2.0615 -0.5073
 3654TIP3    H232454   2.724   5.043   1.928  1.8723 -0.7921 -0.3588
 3655TIP3   OH232455   4.299   3.823   0.555  0.4545  0.2089 -0.2494
 3655TIP3    H132456   4.345   3.893   0.508  0.8552  0.7432  0.9352
 3655TIP3    H232457   4.366   3.756   0.570  0.5942  0.5330  0.5615
 3656TIP3   OH232458   5.594   6.694   1.665 -0.4397 -1.0831 -0.3025
 3656TIP3    H132459   5.597   6.615   1.612 -0.3034 -0.4715 -1.2353
 3656TIP3    H232460   5.602   6.765   1.601 -0.0306 -0.3365  0.5706
 3657TIP3   OH232461   5.283   2.440   2.820  0.1762 -0.0234  0.6661
 3657TIP3    H132462   5.254   2.511   2.762  1.4234  2.4454  2.9529
 3657TIP3    H232463   5.227   2.447   2.897  1.9382  0.1230  1.9740
 3658TIP3   OH232464   2.016   5.481  16.780 -0.1246 -0.2881 -0.6304
 3658TIP3    H132465   2.081   5.505  16.845  0.0612 -0.5232 -0.7300
 3658TIP3    H232466   1.992   5.391  16.801 -1.2356  0.1652  0.0858
 3659TIP3   OH232467   3.452   5.865  14.183  0.1258  0.2224 -0.4924
 3659TIP3    H132468   3.387   5.802  14.153  0.5782  0.6233 -2.4225
 3659TIP3    H232469   3.536   5.829  14.152  0.7897 -0.0207  1.4941
 3660TIP3   OH232470   1.928   4.368  14.024 -0.0940 -0.2794 -0.4984
 3660TIP3    H132471   1.968   4.449  14.057 -2.2178 -0.3685  2.5339
 3660TIP3    H232472   1.992   4.300  14.041  1.2599  0.5877 -2.0512
 3661TIP3   OH232473   1.898   3.118   1.306 -0.2934  0.0574 -0.4505
 3661TIP3    H132474   1.887   3.208   1.278 -1.5169 -0.0905 -0.4562
 3661TIP3    H232475   1.898   3.122   1.402  0.6025  0.1693 -0.4495
 3662TIP3   OH232476   5.375   4.599   4.284 -0.4367 -0.2570  0.6024
 3662TIP3    H132477   5.310   4.588   4.215  1.6323 -0.6919 -1.3289
 3662TIP3    H232478   5.433   4.668   4.252  0.1749  0.0039  2.2108
 3663TIP3   OH232479   3.610   2.622   3.335 -0.0021 -0.4716  0.1022
 3663TIP3    H132480   3.550   2.551   3.358  0.6206 -1.2415 -0.6106
 3663TIP3    H232481   3.553   2.690   3.298 -0.9114  0.4642  3.1026
 3664TIP3   OH232482   2.872   1.014  14.169  0.3429  0.3550  0.0985
 3664TIP3    H132483   2.934   1.069  14.121 -1.2807  0.7512 -1.6230
 3664TIP3    H232484   2.843   0.949  14.105  0.9585 -1.4800  1.6329
 3665TIP3   OH232485   0.186   4.682   0.497  0.0312 -0.1923 -0.1625
 3665TIP3    H132486   0.274   4.693   0.461  1.7984  0.5356  4.1039
 3665TIP3    H232487   0.174   4.587   0.503  1.3087 -0.2989  0.9151
 3666TIP3   OH232488   2.472   5.720   4.673  0.1774 -0.2272 -0.4372
 3666TIP3    H132489   2.547   5.773   4.646 -0.4141  0.6672 -0.3274
 3666TIP3    H232490   2.404   5.783   4.695 -0.4520 -1.0253 -0.0620
 3667TIP3   OH232491   5.422   0.871   2.509  0.3373 -0.2545 -0.0326
 3667TIP3    H132492   5.364   0.907   2.442  1.4876  0.7052 -0.5457
 3667TIP3    H232493   5.474   0.946   2.538  3.8975 -1.7225 -2.2255
 3668TIP3   OH232494   2.047   2.925  11.233  0.1480 -0.0001  0.2250
 3668TIP3    H132495   2.096   2.855  11.276 -1.2003 -0.8323  0.4514
 3668TIP3    H232496   1.976   2.945  11.294 -0.1173  0.8069 -0.3444
 3669TIP3   OH232497   6.795   1.066   5.517  0.4771 -0.8806 -0.4164
 3669TIP3    H132498   6.827   0.982   5.485 -2.4568 -1.5802 -1.7171
 3669TIP3    H232499   6.776   1.116   5.438  2.6800  1.2341  0.3566
 3670TIP3   OH232500   5.534   2.392   0.559  0.1321  0.2952  0.3462
 3670TIP3    H132501   5.519   2.484   0.537 -2.6497 -0.5730 -1.7382
 3670TIP3    H232502   5.469   2.372   0.627 -1.0128 -0.7329 -1.0096
 3671TIP3   OH232503   1.599   0.915   5.594 -0.0941 -0.1937 -0.4091
 3671TIP3    H132504   1.554   0.952   5.670 -0.0432 -1.5401  0.2899
 3671TIP3    H232505   1.528   0.888   5.535 -0.1431  0.1971 -0.5337
 3672TIP3   OH232506   5.484   6.466  14.126 -0.2378 -0.3314  0.7185
 3672TIP3    H132507   5.475   6.539  14.065 -0.6549 -1.4727 -0.6107
 3672TIP3    H232508   5.570   6.478  14.165 -0.7644  1.5047  1.3661
 3673TIP3   OH232509   3.964   6.360  12.673 -0.1544 -0.1102  0.0282
 3673TIP3    H132510   3.980   6.436  12.730 -2.9428  0.9593 -0.5683
 3673TIP3    H232511   3.879   6.327  12.700  1.0769 -3.1923  0.3784
 3674TIP3   OH232512   0.494   0.741  15.553 -0.4920  0.2389 -0.0580
 3674TIP3    H132513   0.475   0.673  15.618  1.0822 -0.0650  0.1060
 3674TIP3    H232514   0.538   0.694  15.482 -0.7976  0.8398 -0.6514
 3675TIP3   OH232515   2.101   5.717   5.867  0.0658  0.1400  0.0055
 3675TIP3    H132516   2.015   5.678   5.853  0.0192  0.4996 -0.7506
 3675TIP3    H232517   2.149   5.700   5.786 -0.8747  4.0025 -1.4585
 3676TIP3   OH232518   5.080   2.034   6.741 -0.6522 -0.1315  0.5948
 3676TIP3    H132519   5.171   2.006   6.750  0.0842  1.9465  0.0644
 3676TIP3    H232520   5.039   1.966   6.688  0.9029 -0.4817 -0.1926
 3677TIP3   OH232521   3.066   1.564   5.798 -0.2267 -0.5391  0.4172
 3677TIP3    H132522   3.103   1.590   5.882  1.7202  0.7934 -0.8290
 3677TIP3    H232523   3.125   1.496   5.766 -1.7459 -2.0511  0.7390
 3678TIP3   OH232524   1.734   3.906  16.794  0.3889 -0.0610  0.2917
 3678TIP3    H132525   1.735   3.974  16.727  0.8959  1.2780  1.6277
 3678TIP3    H232526   1.808   3.850  16.773 -0.5183 -0.6845 -1.2965
 3679TIP3   OH232527   4.916   1.283  14.348  0.1476 -0.5574  0.5050
 3679TIP3    H132528   5.011   1.289  14.333  0.0994 -1.4848 -0.1870
 3679TIP3    H232529   4.904   1.319  14.436  0.9750  0.8422  0.0810
 3680TIP3   OH232530   5.031   4.407  13.629  0.1197 -0.4636  0.1850
 3680TIP3    H132531   4.969   4.478  13.611 -0.9245 -0.8105  2.2610
 3680TIP3    H232532   5.090   4.443  13.695  0.8038 -0.8787 -0.1947
 3681TIP3   OH232533   1.890   0.082  12.703  0.6660 -0.6150  0.3807
 3681TIP3    H132534   1.912  -0.011  12.702 -1.6590 -1.2008 -2.2647
 3681TIP3    H232535   1.847   0.096  12.788  1.2923 -1.8679  0.9124
 3682TIP3   OH232536   2.558   0.032  14.265  0.4525 -0.1510  0.0185
 3682TIP3    H132537   2.645   0.051  14.231  0.1283  0.1306 -0.6544
 3682TIP3    H232538   2.566  -0.056  14.303  1.2202  0.1712  0.6425
 3683TIP3   OH232539   3.092   0.951   2.602 -0.2424 -0.0295 -0.1662
 3683TIP3    H132540   3.156   1.019   2.581 -0.1191 -0.4397 -1.1549
 3683TIP3    H232541   3.140   0.869   2.592  0.0043 -0.2541  2.3696
 3684TIP3   OH232542   5.339   4.652   1.784  0.0948  0.3897  0.3024
 3684TIP3    H132543   5.299   4.720   1.838 -3.2223 -0.0577 -1.4863
 3684TIP3    H232544   5.356   4.580   1.845 -2.0659  0.5218  1.1157
 3685TIP3   OH232545   6.697   3.411  16.939  0.2143  0.2568  0.1131
 3685TIP3    H132546   6.728   3.437  16.852 -0.4008 -0.8338 -0.4230
 3685TIP3    H232547   6.774   3.371  16.981  0.0674 -0.6691 -0.5078
 3686TIP3   OH232548   1.974   6.234  13.700  0.1677  0.4761  0.4286
 3686TIP3    H132549   1.904   6.267  13.757  0.4896 -0.4923  1.4054
 3686TIP3    H232550   2.031   6.186  13.759  0.8861  0.0371 -0.6190
 3687TIP3   OH232551   0.152   0.749  12.151  0.2784 -0.1669 -0.3777
 3687TIP3    H132552   0.088   0.792  12.094 -0.3975 -0.5102  0.1121
 3687TIP3    H232553   0.115   0.662  12.168 -0.0081  0.2597  1.3382
 3688TIP3   OH232554   4.822   5.113  15.412 -0.0049  0.4686 -0.0785
 3688TIP3    H132555   4.915   5.131  15.428  0.2247 -0.8000  0.0479
 3688TIP3    H232556   4.803   5.037  15.467 -0.5785 -0.6133 -1.7594
 3689TIP3   OH232557   2.861   2.423  11.981 -0.0261  0.2772 -0.2983
 3689TIP3    H132558   2.897   2.355  12.038  0.6051  1.4172  0.6799
 3689TIP3    H232559   2.768   2.424  12.000  0.0409  0.0197  0.0365
 3690TIP3   OH232560   2.609   5.595   5.428  0.6280 -0.0855  0.4857
 3690TIP3    H132561   2.535   5.548   5.388 -0.7846  0.4754  2.3858
 3690TIP3    H232562   2.621   5.673   5.373 -1.4924  0.8400  1.2993
 3691TIP3   OH232563   1.034   0.797  15.803 -0.3317 -0.5623 -0.3794
 3691TIP3    H132564   1.118   0.779  15.761  0.5304 -1.4769  1.7009
 3691TIP3    H232565   1.030   0.892  15.810 -0.7083 -0.3427 -2.8931
 3692TIP3   OH232566   2.426   5.712  14.684 -0.4297  0.0582  0.5353
 3692TIP3    H132567   2.356   5.689  14.622 -0.6806  0.3626  0.7042
 3692TIP3    H232568   2.380   5.726  14.767 -0.4520  2.3535  0.1773
 3693TIP3   OH232569   5.237   4.078  16.838  0.4404  0.3901 -0.6369
 3693TIP3    H132570   5.270   4.072  16.748  1.8002  0.4315 -0.1618
 3693TIP3    H232571   5.218   3.987  16.862  1.7253  0.1744 -0.3868
 3694TIP3   OH232572   0.833   5.816  17.011  0.2349 -0.1060 -0.2667
 3694TIP3    H132573   0.866   5.800  16.922  0.5017 -1.5576  0.0803
 3694TIP3    H232574   0.912   5.822  17.065  0.0441 -0.2137  0.0246
 3695TIP3   OH232575   2.035   6.567  16.596 -0.1683  0.7129  0.1675
 3695TIP3    H132576   2.086   6.531  16.669  0.3428 -1.0309 -1.0357
 3695TIP3    H232577   1.951   6.591  16.636 -0.0563 -0.6472  1.2602
 3696TIP3   OH232578   6.317   4.600  10.806  0.4293 -0.6069  0.1768
 3696TIP3    H132579   6.403   4.633  10.781 -0.3653 -0.0357 -1.9142
 3696TIP3    H232580   6.258   4.633  10.739 -1.4812 -0.7791  1.7089
 3697TIP3   OH232581   0.078   6.334  15.951 -0.1450 -0.2520 -0.0832
 3697TIP3    H132582   0.070   6.354  16.044 -1.4924 -0.9036 -0.0450
 3697TIP3    H232583   0.171   6.314  15.939  0.3905  1.5998  0.7386
 3698TIP3   OH232584   1.556   4.242  11.968 -0.5556 -0.5097 -0.6894
 3698TIP3    H132585   1.519   4.188  11.898 -2.5319 -1.6270  1.1675
 3698TIP3    H232586   1.651   4.232  11.958 -0.8445 -2.9736 -1.4570
 3699TIP3   OH232587   6.785   4.881   3.360  0.1516 -0.5257  0.2907
 3699TIP3    H132588   6.747   4.811   3.307 -0.9761  0.0712  0.2961
 3699TIP3    H232589   6.711   4.938   3.381  1.0820  0.7787  0.1177
 3700TIP3   OH232590   2.151   2.338  11.615  0.2605 -0.4231 -0.0192
 3700TIP3    H132591   2.115   2.281  11.683  0.0881 -0.6802 -0.3215
 3700TIP3    H232592   2.163   2.280  11.540  1.3209 -0.3506  0.0787
 3701TIP3   OH232593   4.730   6.565   1.532 -0.8193 -0.0283 -0.2437
 3701TIP3    H132594   4.700   6.514   1.607  3.1270  2.0200  2.9119
 3701TIP3    H232595   4.687   6.650   1.542 -0.2018  0.2845 -0.2177
 3702TIP3   OH232596   3.480   5.245   1.932  0.5286 -0.6111  0.6967
 3702TIP3    H132597   3.571   5.271   1.949  1.6557 -2.3586 -2.1426
 3702TIP3    H232598   3.463   5.275   1.842 -1.8686  0.1056  1.3731
 3703TIP3   OH232599   4.612   0.858  12.125  0.3346  0.5119 -0.0477
 3703TIP3    H132600   4.597   0.933  12.068  0.0440  1.1017  0.7955
 3703TIP3    H232601   4.594   0.782  12.070 -0.5296  1.0892 -0.5717
 3704TIP3   OH232602   5.626   2.743  16.145  0.2815 -0.2901 -0.2894
 3704TIP3    H132603   5.549   2.755  16.089 -0.9476 -0.7431  1.2718
 3704TIP3    H232604   5.592   2.700  16.224  1.8617  1.0379  1.1445
 3705TIP3   OH232605   1.736   4.623  14.741  0.0146 -0.0373 -0.0361
 3705TIP3    H132606   1.782   4.618  14.657  2.0670  0.1178  1.0205
 3705TIP3    H232607   1.731   4.532  14.771  0.2033  0.0033  0.1249
 3706TIP3   OH232608   6.364   6.101  11.483 -0.1673  0.5168  0.4860
 3706TIP3    H132609   6.388   6.150  11.405 -2.8334  0.5641 -0.3773
 3706TIP3    H232610   6.320   6.023  11.448 -1.9099  0.8314  1.9213
 3707TIP3   OH232611   1.197   1.139   4.353 -0.0681 -0.3101 -0.4698
 3707TIP3    H132612   1.176   1.069   4.292 -0.4852 -0.1163 -0.5451
 3707TIP3    H232613   1.155   1.217   4.317 -0.0747 -0.1358 -0.0896
 3708TIP3   OH232614   2.627   4.282  16.134 -0.1522  0.1491  0.2871
 3708TIP3    H132615   2.579   4.356  16.096  0.1168  0.8283  1.2420
 3708TIP3    H232616   2.686   4.322  16.197  0.2901 -0.8550  0.5178
 3709TIP3   OH232617   4.960   6.524   6.023 -0.2737  0.4577  0.3049
 3709TIP3    H132618   5.051   6.508   6.047 -0.6877 -1.2835  0.8081
 3709TIP3    H232619   4.909   6.482   6.092 -1.4669  1.5709  0.1253
 3710TIP3   OH232620   5.930   1.870   2.433  0.0536 -0.8130 -0.1507
 3710TIP3    H132621   5.925   1.821   2.515 -1.7561  0.5966  0.6137
 3710TIP3    H232622   5.895   1.811   2.366 -0.8058 -1.0757  0.5312
 3711TIP3   OH232623   4.842   5.960   5.603 -0.0970 -0.4821  0.0169
 3711TIP3    H132624   4.916   5.942   5.662 -0.2084  2.0630  1.0283
 3711TIP3    H232625   4.768   5.974   5.662 -0.5388  0.6756 -0.7904
 3712TIP3   OH232626   3.914   1.121   5.329 -0.3544 -0.7964  0.6469
 3712TIP3    H132627   3.887   1.130   5.238  0.2793  1.6906  0.6804
 3712TIP3    H232628   3.856   1.181   5.377  0.6019 -0.6368  1.6146
 3713TIP3   OH232629   4.749   2.204  16.332  0.1381 -0.2220 -0.2936
 3713TIP3    H132630   4.671   2.259  16.332 -0.6732 -1.3244  1.8166
 3713TIP3    H232631   4.742   2.154  16.250 -0.3260  1.1008 -1.0754
 3714TIP3   OH232632   0.212   4.847   3.740  0.8184 -0.1077  0.3464
 3714TIP3    H132633   0.191   4.754   3.735 -1.3373  0.4004 -0.7314
 3714TIP3    H232634   0.299   4.855   3.701  0.7071 -1.5551 -0.2062
 3715TIP3   OH232635   0.246   6.252  16.852 -0.1124 -0.4224  0.1180
 3715TIP3    H132636   0.280   6.306  16.780 -3.7725  2.2306  0.2386
 3715TIP3    H232637   0.257   6.306  16.930 -1.3201 -0.9770  0.6885
 3716TIP3   OH232638   5.472   6.577   3.269  0.9756 -0.3014 -0.3143
 3716TIP3    H132639   5.552   6.549   3.312 -0.3990 -2.3420  1.0002
 3716TIP3    H232640   5.425   6.628   3.335  1.8098  2.2105 -1.5563
 3717TIP3   OH232641   4.463   1.591  17.001  0.2246  1.1999  0.3160
 3717TIP3    H132642   4.478   1.639  17.082  1.7370 -0.7126  1.1981
 3717TIP3    H232643   4.546   1.594  16.954  1.4985 -3.4236  1.9875
 3718TIP3   OH232644   6.610   2.304  16.736  0.3264  0.6780  0.1062
 3718TIP3    H132645   6.689   2.257  16.761 -0.5026 -0.3841  0.7826
 3718TIP3    H232646   6.590   2.273  16.647 -1.7741 -2.4493  1.5624
 3719TIP3   OH232647   6.353   1.080  12.580  0.9634 -0.0472 -0.4315
 3719TIP3    H132648   6.319   1.142  12.516  1.8690  1.3322  0.4161
 3719TIP3    H232649   6.294   1.005  12.574 -1.6022  1.8568  0.2395
 3720TIP3   OH232650   4.281   3.536   1.152 -0.0542 -0.0546 -0.1959
 3720TIP3    H132651   4.250   3.446   1.146  1.2530 -0.4791 -0.8751
 3720TIP3    H232652   4.319   3.542   1.240 -0.3846 -0.0839 -0.0514
 3721TIP3   OH232653   1.515   4.381  15.460  0.1635  0.3030 -0.2757
 3721TIP3    H132654   1.449   4.330  15.508 -0.2137  0.7464 -0.3192
 3721TIP3    H232655   1.589   4.321  15.450  0.4705  0.3899  1.3601
 3722TIP3   OH232656   0.376   6.075  12.983  0.1068 -0.2230  0.4419
 3722TIP3    H132657   0.365   6.076  13.078 -0.2435  2.4713  0.3983
 3722TIP3    H232658   0.310   6.135  12.950 -0.0898 -1.4867 -1.5816
 3723TIP3   OH232659   2.202   4.225  16.313 -0.1735  0.7036 -0.1156
 3723TIP3    H132660   2.220   4.207  16.405  1.7879 -0.0699 -0.6200
 3723TIP3    H232661   2.238   4.150  16.266 -1.8450  0.7119 -1.4815
 3724TIP3   OH232662   6.799   2.396   4.939  0.2782 -0.0048 -0.0085
 3724TIP3    H132663   6.807   2.363   5.028  0.5006  0.0333 -0.0137
 3724TIP3    H232664   6.785   2.319   4.885 -1.4659  0.1212  0.2539
 3725TIP3   OH232665   2.706   0.524   1.151  0.7256  0.1400 -0.7336
 3725TIP3    H132666   2.640   0.466   1.189 -0.0718  1.0238 -0.7523
 3725TIP3    H232667   2.667   0.553   1.068  1.8964 -0.7475 -1.6287
 3726TIP3   OH232668   5.336   2.063   5.331  0.5476 -0.4244  0.1317
 3726TIP3    H132669   5.373   2.075   5.419 -1.1307  1.5289  0.6239
 3726TIP3    H232670   5.398   2.109   5.273  0.6161  0.0233  0.5500
 3727TIP3   OH232671   6.370   6.816  14.460 -0.2862  0.4852 -0.6075
 3727TIP3    H132672   6.417   6.883  14.511 -1.7307  0.6957  0.4702
 3727TIP3    H232673   6.363   6.742  14.519  0.7254 -0.3985 -1.5783
 3728TIP3   OH232674   3.126   6.611   4.746  0.2961  0.2250 -0.0103
 3728TIP3    H132675   3.108   6.616   4.652 -1.1329  1.1456  0.2969
 3728TIP3    H232676   3.047   6.573   4.783  0.9053 -0.2418  0.8094
 3729TIP3   OH232677   5.132   6.113  12.846  0.2931  0.0204  0.5036
 3729TIP3    H132678   5.114   6.204  12.871 -0.6384  0.2703 -1.0614
 3729TIP3    H232679   5.171   6.075  12.925 -0.2945  1.4742  1.5315
 3730TIP3   OH232680   0.067   6.776   2.794 -0.4777  0.3986 -0.3998
 3730TIP3    H132681  -0.007   6.718   2.776  0.0671  0.2847 -2.3622
 3730TIP3    H232682   0.027   6.858   2.825 -1.3651  0.0009 -0.5024
 3731TIP3   OH232683   2.853   3.903  16.863 -0.6894  0.5641 -0.0870
 3731TIP3    H132684   2.838   3.830  16.802  0.6413  1.0725 -1.0491
 3731TIP3    H232685   2.865   3.979  16.807  1.2640  0.9183  0.7620
 3732TIP3   OH232686   4.211   2.429  11.463  0.1401 -0.4657  0.1525
 3732TIP3    H132687   4.119   2.429  11.435 -0.1432 -1.7990  1.0784
 3732TIP3    H232688   4.250   2.355  11.416  1.7937  2.5713 -3.5364
 3733TIP3   OH232689   0.224   5.912  14.144 -0.2318  0.1919 -0.5341
 3733TIP3    H132690   0.309   5.942  14.178 -0.2198 -1.1543  0.6484
 3733TIP3    H232691   0.159   5.960  14.194 -0.1921  0.0783 -0.3763
 3734TIP3   OH232692   2.043   5.238  17.213 -0.5763 -0.3069 -0.2399
 3734TIP3    H132693   1.979   5.168  17.201  0.2818 -1.1291 -0.0507
 3734TIP3    H232694   2.053   5.247  17.308 -0.3646 -0.2292 -0.2677
 3735TIP3   OH232695   0.379   3.677   0.857  0.1326  0.4443 -0.0876
 3735TIP3    H132696   0.345   3.732   0.787 -0.0883  0.0943 -0.2522
 3735TIP3    H232697   0.338   3.591   0.844  0.5588  0.2070  0.1041
 3736TIP3   OH232698   6.673   0.782  15.891  0.3082 -0.2024  0.4151
 3736TIP3    H132699   6.620   0.730  15.830  0.0121 -1.4606  1.7322
 3736TIP3    H232700   6.609   0.830  15.943  0.5797  1.5549 -0.8154
 3737TIP3   OH232701   3.214   0.087  16.581 -0.6232 -0.1474 -0.2780
 3737TIP3    H132702   3.222   0.179  16.555  0.4402 -0.0392  0.4175
 3737TIP3    H232703   3.272   0.040  16.522 -1.0016 -0.3532 -0.4892
 3738TIP3   OH232704   4.482   3.440  14.016 -0.2987  0.2561 -0.2286
 3738TIP3    H132705   4.409   3.409  14.070 -0.8874 -0.3258 -1.3278
 3738TIP3    H232706   4.522   3.360  13.981  0.6169  0.5898  0.0492
 3739TIP3   OH232707   1.960   2.161   2.184 -0.2722 -0.6868  0.1990
 3739TIP3    H132708   1.883   2.119   2.222 -0.0216 -0.1805  1.2574
 3739TIP3    H232709   1.946   2.254   2.198  0.6493 -0.6084  0.6174
 3740TIP3   OH232710   3.042   0.191   4.185 -0.5669 -0.3103 -0.0222
 3740TIP3    H132711   2.977   0.219   4.120  0.0296  0.3058 -0.3570
 3740TIP3    H232712   3.123   0.182   4.136  0.0394  0.7868  0.7547
 3741TIP3   OH232713   6.425   2.314   1.640  0.4249  0.1876 -0.2142
 3741TIP3    H132714   6.374   2.262   1.578  0.8229 -0.9725  0.4144
 3741TIP3    H232715   6.359   2.347   1.702  0.2346 -0.0246 -0.3001
 3742TIP3   OH232716   3.741   5.411   5.471 -0.1488  0.7208  0.2215
 3742TIP3    H132717   3.803   5.458   5.527 -0.2597  0.7779  0.2975
 3742TIP3    H232718   3.746   5.320   5.499 -2.4891  1.2228  2.4706
 3743TIP3   OH232719   0.920   0.256   4.240 -0.2153  0.3667  0.0922
 3743TIP3    H132720   0.958   0.220   4.320  0.6540  1.2390  0.0815
 3743TIP3    H232721   0.994   0.296   4.194 -1.2489  2.9215  0.5293
 3744TIP3   OH232722   3.791   1.425  14.500  0.2410  0.0998 -0.7651
 3744TIP3    H132723   3.735   1.373  14.557  1.0664  1.1869  1.0666
 3744TIP3    H232724   3.737   1.443  14.423 -1.2628 -0.4487  0.1518
 3745TIP3   OH232725   5.528   4.208   3.490 -0.6389  0.1233  0.0458
 3745TIP3    H132726   5.441   4.248   3.495 -1.5271 -1.7255 -0.1491
 3745TIP3    H232727   5.542   4.191   3.397 -0.3421 -0.1422  0.1355
 3746TIP3   OH232728   5.744   1.046   4.151 -0.1777  0.9246  0.4538
 3746TIP3    H132729   5.744   1.138   4.126  0.5064  0.8705  0.2414
 3746TIP3    H232730   5.830   1.014   4.124 -0.7546 -0.0050 -0.3536
 3747TIP3   OH232731   3.664   5.061  16.292 -0.1831 -0.5516  0.1439
 3747TIP3    H132732   3.746   5.016  16.310 -0.2896 -0.6087  0.4935
 3747TIP3    H232733   3.688   5.154  16.285 -0.0708 -0.5826  0.1276
 3748TIP3   OH232734   0.929   1.520   3.244 -0.2813 -0.0340  0.0556
 3748TIP3    H132735   0.881   1.593   3.284  0.2302 -0.6521  1.8665
 3748TIP3    H232736   0.861   1.463   3.209 -0.8134 -0.1146  1.1864
 3749TIP3   OH232737   6.281   5.641   3.710  0.3954  0.3657 -0.3172
 3749TIP3    H132738   6.304   5.725   3.668  0.5292  1.4642  1.8664
 3749TIP3    H232739   6.331   5.641   3.791 -1.6136 -0.6440  0.9541
 3750TIP3   OH232740   4.691   0.055   3.881  0.0166 -0.4775 -0.6479
 3750TIP3    H132741   4.752   0.062   3.954 -0.2508 -1.3308 -0.3456
 3750TIP3    H232742   4.740   0.090   3.806  0.7655 -0.8651 -0.3415
 3751TIP3   OH232743   0.920   2.052  10.559 -0.6134 -0.2103 -0.0749
 3751TIP3    H132744   0.864   1.982  10.594 -0.7420  0.0664  0.2752
 3751TIP3    H232745   1.008   2.016  10.563 -0.6822 -0.3642  0.0809
 3752TIP3   OH232746   1.716   6.197  13.937  0.4203 -0.1953 -0.0330
 3752TIP3    H132747   1.713   6.286  13.900 -0.5683  0.3820  1.3741
 3752TIP3    H232748   1.772   6.206  14.014  0.6872 -0.8901 -0.1525
 3753TIP3   OH232749   4.657   0.820   5.446  0.0835  0.0306  0.0307
 3753TIP3    H132750   4.743   0.782   5.469  0.1446 -0.3470 -0.8069
 3753TIP3    H232751   4.604   0.805   5.524  0.3157 -1.1728 -0.0301
 3754TIP3   OH232752   5.960   5.951   4.491  0.2249  0.1085 -0.6651
 3754TIP3    H132753   6.005   5.902   4.422  0.4758 -0.2840 -0.2264
 3754TIP3    H232754   5.922   5.883   4.547 -3.0401  0.3710 -2.3803
 3755TIP3   OH232755   1.749   4.957   4.355 -0.6556  0.5800  0.3876
 3755TIP3    H132756   1.769   4.912   4.272 -1.7406 -1.1459  1.0343
 3755TIP3    H232757   1.834   4.981   4.390 -0.0616 -0.7475 -0.1144
 3756TIP3   OH232758   4.225   4.587  12.907 -0.4662 -0.3304  0.1356
 3756TIP3    H132759   4.248   4.662  12.963  1.0782  0.2277 -1.2173
 3756TIP3    H232760   4.148   4.616  12.859  1.2873  1.1795 -1.8421
 3757TIP3   OH232761   3.041   2.767  16.478  0.1908 -0.8027 -0.1519
 3757TIP3    H132762   3.038   2.700  16.547  0.3664 -0.9167 -0.2560
 3757TIP3    H232763   3.121   2.816  16.497 -0.8665  0.5216  1.0033
 3758TIP3   OH232764   2.912   4.585  16.567 -0.5894 -0.6540  0.5156
 3758TIP3    H132765   2.947   4.643  16.500 -0.0158 -1.3037  0.2473
 3758TIP3    H232766   2.827   4.558  16.532 -0.9589  0.2007  0.7470
 3759TIP3   OH232767   0.391   5.052  13.411  0.9512  0.1909  0.0263
 3759TIP3    H132768   0.401   4.958  13.425  0.0019 -0.1408 -1.4111
 3759TIP3    H232769   0.481   5.084  13.401  1.4357 -0.1772  2.6733
 3760TIP3   OH232770   5.308   5.093  11.786  0.4753 -0.5563 -0.3025
 3760TIP3    H132771   5.273   5.140  11.711 -0.4423 -1.7574 -0.6412
 3760TIP3    H232772   5.337   5.162  11.846 -0.6261  0.4416 -0.8904
 3761TIP3   OH232773   3.805   1.897  14.006  0.2188  0.1439 -0.2938
 3761TIP3    H132774   3.826   1.922  14.096  0.9352  0.3419 -0.5148
 3761TIP3    H232775   3.755   1.816  14.015  0.1103  0.2675  0.2906
 3762TIP3   OH232776   0.088   2.751  15.324  0.1594 -0.0860  0.0905
 3762TIP3    H132777   0.047   2.791  15.401 -0.3345  0.3460 -0.3938
 3762TIP3    H232778   0.166   2.708  15.358  0.1561  0.4439  0.7724
 3763TIP3   OH232779   5.420   1.387  16.840 -0.0994  0.6115 -0.0675
 3763TIP3    H132780   5.330   1.359  16.853  0.5465 -2.3111 -1.4842
 3763TIP3    H232781   5.447   1.423  16.925 -2.7166  1.9600  0.2204
 3764TIP3   OH232782   5.807   6.291   5.907 -0.0107 -0.3443  0.4126
 3764TIP3    H132783   5.829   6.356   5.975 -0.0729  0.1135 -0.0007
 3764TIP3    H232784   5.854   6.321   5.829  0.7253 -1.3243  0.4671
 3765TIP3   OH232785   0.750   6.316   1.130 -0.5262  0.8264  0.2722
 3765TIP3    H132786   0.686   6.272   1.186 -0.7609  1.2608  0.3480
 3765TIP3    H232787   0.733   6.410   1.143 -1.6741  0.9357 -1.7636
 3766TIP3   OH232788   4.602   6.265   3.136  0.0097  0.1239  0.5599
 3766TIP3    H132789   4.664   6.233   3.071 -0.4899  0.0888  0.0952
 3766TIP3    H232790   4.547   6.188   3.156  0.8434 -0.1607  1.8258
 3767TIP3   OH232791   4.842   3.868   2.589  0.1212  0.6514 -0.0372
 3767TIP3    H132792   4.898   3.945   2.601 -0.3830  1.4084 -2.3958
 3767TIP3    H232793   4.753   3.902   2.597 -0.1246  0.5002 -2.0106
 3768TIP3   OH232794   5.533   2.424   1.554 -0.4468 -0.3129 -0.4200
 3768TIP3    H132795   5.497   2.478   1.483 -0.6588  0.6634  0.4167
 3768TIP3    H232796   5.628   2.436   1.547 -0.3956 -1.1752 -1.2828
 3769TIP3   OH232797   3.361   5.763   4.769  0.1065 -0.0466 -0.5893
 3769TIP3    H132798   3.421   5.726   4.833  1.5168  0.8536 -1.3760
 3769TIP3    H232799   3.331   5.688   4.717  0.0834 -0.5771  0.1864
 3770TIP3   OH232800   4.299   4.304  12.156 -0.1462 -0.0928  0.1259
 3770TIP3    H132801   4.382   4.351  12.141  0.4552 -0.4585  2.1413
 3770TIP3    H232802   4.315   4.216  12.123 -0.0559  0.1088 -0.3671
 3771TIP3   OH232803   2.168   3.770  12.569 -0.4081 -0.3906 -0.4516
 3771TIP3    H132804   2.085   3.734  12.600  0.6043 -3.3910 -1.0119
 3771TIP3    H232805   2.227   3.761  12.644 -0.6234  2.0296  0.0542
 3772TIP3   OH232806   5.238   5.803   2.603  0.5404  0.2142 -0.4414
 3772TIP3    H132807   5.176   5.738   2.636 -0.0630  0.9172 -0.1695
 3772TIP3    H232808   5.187   5.857   2.542  0.2943  2.1318  1.3990
 3773TIP3   OH232809   4.238   1.518   5.202 -0.4823  0.4799 -0.5212
 3773TIP3    H132810   4.215   1.444   5.258  3.7087  1.9463  3.5644
 3773TIP3    H232811   4.286   1.479   5.129 -1.5035 -1.1124 -0.3602
 3774TIP3   OH232812   0.539   3.047   6.389 -0.2154  0.0996 -0.2338
 3774TIP3    H132813   0.611   3.023   6.331 -0.4620  0.3821 -0.6618
 3774TIP3    H232814   0.564   3.133   6.424  1.3017 -1.3065  2.3323
 3775TIP3   OH232815   3.342   6.460  14.612 -0.2727 -0.3014 -0.1063
 3775TIP3    H132816   3.339   6.536  14.554 -0.5927  0.1515  0.4915
 3775TIP3    H232817   3.256   6.419  14.602 -0.0833 -0.6052 -0.4621
 3776TIP3   OH232818   6.334   0.848   4.597  0.1406 -0.5232  0.6630
 3776TIP3    H132819   6.398   0.777   4.597  1.2285  0.4406  0.5334
 3776TIP3    H232820   6.250   0.804   4.610  0.4136 -2.1498 -2.6418
 3777TIP3   OH232821   2.113   5.764   2.758 -0.2266 -0.4440 -0.4512
 3777TIP3    H132822   2.203   5.776   2.788 -0.8045  0.0814  1.1586
 3777TIP3    H232823   2.104   5.669   2.748  0.6182 -0.4698 -0.9935
 3778TIP3   OH232824   4.893   5.423   2.265 -0.3480  0.2145  0.0635
 3778TIP3    H132825   4.877   5.505   2.313  0.7231  2.6828 -3.5937
 3778TIP3    H232826   4.806   5.397   2.234 -0.6063  0.3019  0.7036
 3779TIP3   OH232827   0.510   5.372  13.847 -1.0192  0.1128  0.2757
 3779TIP3    H132828   0.461   5.418  13.915 -1.8767 -0.2108 -0.1105
 3779TIP3    H232829   0.501   5.427  13.769  2.8438  2.2477  1.2450
 3780TIP3   OH232830   4.179   5.868  12.706  0.3344  0.5041 -0.8988
 3780TIP3    H132831   4.162   5.858  12.799  0.6140  0.3520 -0.8657
 3780TIP3    H232832   4.274   5.873  12.698  0.3148  0.4720 -1.1788
 3781TIP3   OH232833   6.581   1.196   5.361 -0.4925 -0.4205 -0.2380
 3781TIP3    H132834   6.568   1.291   5.364 -0.7001 -0.4688  0.6282
 3781TIP3    H232835   6.494   1.159   5.379 -0.3154 -0.7726 -0.0956
 3782TIP3   OH232836   2.170   5.555  12.092  0.3545 -0.0045 -0.1633
 3782TIP3    H132837   2.218   5.496  12.149  1.2987  0.7006 -0.2173
 3782TIP3    H232838   2.081   5.555  12.127  0.5447 -0.8170  0.3259
 3783TIP3   OH232839   0.633   0.968  14.457  0.1825  0.0636 -0.0178
 3783TIP3    H132840   0.592   0.934  14.536  0.5728  0.9695  0.5840
 3783TIP3    H232841   0.722   0.931  14.458  0.2135  0.1396 -0.0005
 3784TIP3   OH232842   1.014   6.010   2.836 -0.1167  0.0258  0.8703
 3784TIP3    H132843   1.094   5.995   2.785 -0.0511 -3.6601  1.9015
 3784TIP3    H232844   1.046   6.021   2.926 -0.6637  0.1412  1.0485
 3785TIP3   OH232845   6.182   4.216   2.992 -0.0223 -0.1763 -0.1320
 3785TIP3    H132846   6.181   4.234   3.086 -1.3105 -0.6905 -0.0372
 3785TIP3    H232847   6.213   4.126   2.985 -0.4161 -0.3079 -0.1729
 3786TIP3   OH232848   1.503   4.162  17.234  0.5819 -0.2885 -0.1735
 3786TIP3    H132849   1.551   4.204  17.163 -1.3267 -0.3426 -1.5391
 3786TIP3    H232850   1.502   4.227  17.304 -0.2794  1.0405 -1.3932
 3787TIP3   OH232851   4.734   1.551  16.470 -0.3223  0.3568  0.2788
 3787TIP3    H132852   4.800   1.531  16.536 -2.6981 -0.6261  2.4537
 3787TIP3    H232853   4.731   1.647  16.467 -0.2657  0.4019  1.6503
 3788TIP3   OH232854   4.194   0.043  11.382  0.2408  0.0486 -0.0426
 3788TIP3    H132855   4.276   0.052  11.430 -0.2245 -0.1334  0.7921
 3788TIP3    H232856   4.206   0.096  11.303  1.9729 -1.7145 -0.9949
 3789TIP3   OH232857   0.756   0.353  14.732 -0.7896  0.1689  0.3835
 3789TIP3    H132858   0.768   0.293  14.659  0.7087 -0.1255  0.8551
 3789TIP3    H232859   0.823   0.328  14.796 -0.4077  2.0616  0.7602
 3790TIP3   OH232860   5.986   3.585  16.347 -0.3628  0.1380 -0.1835
 3790TIP3    H132861   5.991   3.520  16.416  3.8439  0.8498  0.3000
 3790TIP3    H232862   6.020   3.541  16.269  1.4627  1.3738 -0.1128
 3791TIP3   OH232863   5.496   3.858  11.534  0.2444 -0.1827  0.5558
 3791TIP3    H132864   5.460   3.858  11.445  0.7593 -0.0901  0.3474
 3791TIP3    H232865   5.589   3.838  11.523  1.0256  3.0193  0.7604
 3792TIP3   OH232866   3.263   6.253   0.302 -0.2221  0.6204  0.3605
 3792TIP3    H132867   3.213   6.214   0.230  0.5828 -0.2980  0.2905
 3792TIP3    H232868   3.300   6.179   0.349 -0.8813  1.2077  1.8415
 3793TIP3   OH232869   2.538   0.452   5.059 -0.5206 -0.3054 -0.0507
 3793TIP3    H132870   2.575   0.524   5.007  0.9219 -0.6352  0.5199
 3793TIP3    H232871   2.534   0.487   5.148 -0.0066 -0.8644  0.1920
 3794TIP3   OH232872   4.013   5.764  11.928 -0.4542 -0.2742 -0.2388
 3794TIP3    H132873   4.054   5.723  12.004  0.0594  0.7392  0.0367
 3794TIP3    H232874   3.945   5.821  11.964  0.3195  0.8196 -0.4805
 3795TIP3   OH232875   1.175   3.414  13.359  0.3319  0.0463 -0.1034
 3795TIP3    H132876   1.163   3.320  13.373 -1.8057  0.4017  0.7745
 3795TIP3    H232877   1.230   3.442  13.432 -1.1098 -0.1303  1.0936
 3796TIP3   OH232878   3.306   4.355  12.781 -0.2971 -0.1361 -0.8814
 3796TIP3    H132879   3.264   4.406  12.713 -0.2660  0.7022 -0.2739
 3796TIP3    H232880   3.390   4.399  12.797 -1.6792  1.6138  1.9803
 3797TIP3   OH232881   3.589   3.637   3.538 -0.6196 -0.0006 -0.4205
 3797TIP3    H132882   3.564   3.727   3.514 -0.6899 -0.0782 -0.6354
 3797TIP3    H232883   3.505   3.590   3.541 -0.4389 -0.4200 -1.7839
 3798TIP3   OH232884   2.162   2.698  16.123  0.6789 -0.3187  0.1843
 3798TIP3    H132885   2.238   2.738  16.164  1.1391 -1.1774  0.1838
 3798TIP3    H232886   2.148   2.617  16.172 -0.8449  0.3122  0.8392
 3799TIP3   OH232887   2.381   3.937   5.401  0.5381  0.4229  0.2832
 3799TIP3    H132888   2.403   4.015   5.350  1.3517 -1.7743 -2.9115
 3799TIP3    H232889   2.286   3.932   5.397  0.6669 -0.5068 -2.3368
 3800TIP3   OH232890   3.334   6.324  14.994  0.4387 -0.1389  0.5813
 3800TIP3    H132891   3.323   6.238  14.952 -0.0977  0.2053 -0.0102
 3800TIP3    H232892   3.406   6.313  15.055  1.8751 -0.4253 -1.1191
 3801TIP3   OH232893   2.765   2.782  16.422 -0.3506  0.0467 -0.0719
 3801TIP3    H132894   2.854   2.808  16.447 -1.0377 -0.1514  2.7262
 3801TIP3    H232895   2.771   2.688  16.408 -0.6553 -0.4578  2.8553
 3802TIP3   OH232896   5.832   3.893  15.941 -0.4606  0.1557  0.3802
 3802TIP3    H132897   5.856   3.802  15.956 -1.9476 -0.2485  0.3762
 3802TIP3    H232898   5.829   3.902  15.846 -2.5035 -0.4040  0.3694
 3803TIP3   OH232899   0.968   6.594   0.661 -0.7348 -0.0652  0.3301
 3803TIP3    H132900   1.050   6.628   0.696 -0.5233  0.0369 -0.2534
 3803TIP3    H232901   0.900   6.640   0.710 -0.4432 -0.1442  0.8096
 3804TIP3   OH232902   6.590   6.292   3.297  0.2996 -0.4339 -0.1289
 3804TIP3    H132903   6.516   6.332   3.342  0.6817  0.7454 -0.5483
 3804TIP3    H232904   6.559   6.278   3.207  0.9803  1.1843 -0.6322
 3805TIP3   OH232905   2.686   2.448   1.433 -0.1935 -0.0048  0.4645
 3805TIP3    H132906   2.706   2.519   1.494  0.5094  1.8993 -1.9178
 3805TIP3    H232907   2.741   2.375   1.463 -0.4367  0.6209  2.5574
 3806TIP3   OH232908   3.859   6.021   2.162  0.6080  0.0555 -0.5978
 3806TIP3    H132909   3.945   6.035   2.122  0.9950  0.1055  0.2377
 3806TIP3    H232910   3.802   5.998   2.089  1.2826  0.2461 -1.1899
 3807TIP3   OH232911   2.994   5.299  16.645 -0.5119 -0.4316  0.4009
 3807TIP3    H132912   2.899   5.307  16.650 -0.3957  0.6992  1.0322
 3807TIP3    H232913   3.027   5.383  16.677  0.7433 -1.6516  2.4571
 3808TIP3   OH232914   1.656   5.751   4.145  0.4433 -0.5973 -0.5015
 3808TIP3    H132915   1.565   5.774   4.166  0.0562 -0.0572 -2.6533
 3808TIP3    H232916   1.702   5.758   4.228 -0.7350  2.8104 -0.0636
 3809TIP3   OH232917   0.002   5.466   1.375  0.2915 -0.2993 -0.4376
 3809TIP3    H132918  -0.003   5.488   1.468 -0.0371  1.2338 -0.8027
 3809TIP3    H232919  -0.060   5.526   1.333 -1.6273 -2.8094 -1.3428
 3810TIP3   OH232920   1.285   5.315  12.234  0.2300 -0.1980 -0.3633
 3810TIP3    H132921   1.212   5.343  12.290  0.3425 -1.1720  0.2731
 3810TIP3    H232922   1.348   5.388  12.240 -0.3449  0.3000 -0.2969
 3811TIP3   OH232923   5.480   2.360  12.218 -0.1542  0.4043 -0.1739
 3811TIP3    H132924   5.503   2.285  12.164  0.4699 -0.6407  1.4913
 3811TIP3    H232925   5.386   2.349  12.236  0.0815 -0.3660  0.6318
 3812TIP3   OH232926   2.775   1.725  15.027  0.1525 -0.2977 -0.3468
 3812TIP3    H132927   2.740   1.788  15.090 -1.8518 -2.4694  0.8304
 3812TIP3    H232928   2.732   1.642  15.050  5.4649 -3.0249  0.6503
 3813TIP3   OH232929   0.723   5.332   2.262 -0.2362 -0.4409 -0.2555
 3813TIP3    H132930   0.665   5.264   2.226  0.9255 -0.5656 -1.9615
 3813TIP3    H232931   0.709   5.408   2.205 -0.5708  0.3531  0.8604
 3814TIP3   OH232932   0.382   5.697  13.316 -0.4749 -0.2220  0.1810
 3814TIP3    H132933   0.364   5.701  13.222 -2.0672 -1.6064  0.3943
 3814TIP3    H232934   0.477   5.712  13.323 -0.1376 -1.2535 -1.7395
 3815TIP3   OH232935   0.165   3.204  13.160 -0.1372 -0.4972 -0.4014
 3815TIP3    H132936   0.246   3.157  13.183 -1.4682 -2.0894  1.1696
 3815TIP3    H232937   0.150   3.263  13.234 -0.3020 -0.0751 -0.7736
 3816TIP3   OH232938   2.432   1.821   1.375  0.0611 -0.0557  0.7998
 3816TIP3    H132939   2.495   1.777   1.318  0.0879  2.3572 -1.1463
 3816TIP3    H232940   2.417   1.759   1.446  1.8164 -2.2070 -0.6064
 3817TIP3   OH232941   2.528   4.268  11.186 -0.3361 -0.4566 -0.2588
 3817TIP3    H132942   2.433   4.276  11.196  0.0140  1.7779  1.8482
 3817TIP3    H232943   2.554   4.207  11.254 -0.5617 -3.5697 -2.8566
 3818TIP3   OH232944   2.559   4.840  13.017  0.5135 -0.6671 -0.6024
 3818TIP3    H132945   2.482   4.894  13.000  1.1514  0.6428  0.5766
 3818TIP3    H232946   2.533   4.752  12.989 -0.5433  0.2245 -2.5467
 3819TIP3   OH232947   2.776   5.051   2.531 -0.1690 -0.1585 -0.4679
 3819TIP3    H132948   2.745   4.962   2.518  0.0342 -0.3329  0.2215
 3819TIP3    H232949   2.734   5.102   2.461 -0.5596 -0.7233 -0.6461
 3820TIP3   OH232950   3.479   0.835  11.348 -0.4615 -0.5459  0.2873
 3820TIP3    H132951   3.466   0.930  11.340  3.1042  0.0290  0.4526
 3820TIP3    H232952   3.479   0.803  11.257  0.7442  0.0244  0.0665
 3821TIP3   OH232953   3.217   1.647   2.767  0.0123 -0.0771 -0.2951
 3821TIP3    H132954   3.235   1.727   2.718  0.2410  0.6867  0.9917
 3821TIP3    H232955   3.303   1.618   2.798 -0.5301  2.1228  3.6495
 3822TIP3   OH232956   3.415   2.733   0.230  0.6789 -0.0111  0.4651
 3822TIP3    H132957   3.397   2.795   0.300  0.0916  1.8366 -1.2713
 3822TIP3    H232958   3.505   2.752   0.203  0.1709  0.8222 -0.7311
 3823TIP3   OH232959   5.129   4.982  14.110 -0.3509  0.2932  0.4036
 3823TIP3    H132960   5.195   4.913  14.098 -0.6633  0.0314  0.1681
 3823TIP3    H232961   5.069   4.945  14.175  0.3768  1.0054  1.4939
 3824TIP3   OH232962   4.041   4.877  15.489 -1.1153  0.1124  0.0675
 3824TIP3    H132963   4.071   4.809  15.429 -1.5554 -0.2305  0.2299
 3824TIP3    H232964   3.949   4.856  15.505 -0.4241 -1.1586  2.6626
 3825TIP3   OH232965   0.767   0.337  15.921 -0.0396 -0.3642  0.4989
 3825TIP3    H132966   0.671   0.337  15.929 -0.2206  1.0239 -1.1123
 3825TIP3    H232967   0.786   0.419  15.876  2.0217 -0.0967  1.8107
 3826TIP3   OH232968   0.761   0.424  15.112 -0.2918  0.6130 -1.0177
 3826TIP3    H132969   0.673   0.389  15.104 -1.2947  2.3146  1.9321
 3826TIP3    H232970   0.813   0.354  15.150 -0.9314  0.4096 -0.5246
 3827TIP3   OH232971   1.579   5.006   0.442  0.4675  0.3728 -0.5195
 3827TIP3    H132972   1.488   5.034   0.430  0.0896  0.0260  1.3545
 3827TIP3    H232973   1.580   4.966   0.529  2.2324 -0.3996 -0.8818
 3828TIP3   OH232974   5.817   2.604   3.927  0.0562  0.3114  0.2358
 3828TIP3    H132975   5.733   2.578   3.965 -0.2340 -1.0169 -1.2801
 3828TIP3    H232976   5.873   2.528   3.938  1.0201  1.1174  1.0385
 3829TIP3   OH232977   0.328   5.682   1.519  0.2373  0.8440 -0.5794
 3829TIP3    H132978   0.236   5.684   1.547  0.3017 -0.1864 -0.2755
 3829TIP3    H232979   0.344   5.590   1.498  1.5379  0.8299  0.4661
 3830TIP3   OH232980   4.981   4.761  14.228 -0.1148 -0.5204 -0.2952
 3830TIP3    H132981   4.959   4.720  14.145 -0.4776  2.2204 -1.6054
 3830TIP3    H232982   4.903   4.746  14.283 -0.8289 -0.3117 -1.2386
 3831TIP3   OH232983   5.585   3.878  12.758  0.4271  0.1858  0.2492
 3831TIP3    H132984   5.630   3.829  12.690  1.2417 -0.4489  1.2316
 3831TIP3    H232985   5.558   3.811  12.822 -1.7555  0.5637 -0.2212
 3832TIP3   OH232986   6.283   6.424  16.357  0.1375  0.7113  0.0922
 3832TIP3    H132987   6.305   6.334  16.381 -0.7125  0.9030  1.6674
 3832TIP3    H232988   6.339   6.478  16.413  0.0754  1.1739 -0.2908
 3833TIP3   OH232989   0.487   0.995   1.329 -0.1372 -0.6869  0.0459
 3833TIP3    H132990   0.562   1.018   1.273  1.2946 -0.6564  1.9390
 3833TIP3    H232991   0.435   0.936   1.274 -0.3903  1.7263 -2.4227
 3834TIP3   OH232992   6.272   4.995   2.758 -0.0955  0.1703 -0.2859
 3834TIP3    H132993   6.242   5.006   2.668  1.0384  0.2573 -0.6598
 3834TIP3    H232994   6.243   4.907   2.783 -1.9876  0.8426 -0.1123
 3835TIP3   OH232995   2.421   5.459  13.969  0.2332  0.2790  0.3513
 3835TIP3    H132996   2.432   5.400  14.044 -0.7500 -0.1394  0.1619
 3835TIP3    H232997   2.419   5.546  14.008  0.9144  0.1412  0.7013
 3836TIP3   OH232998   3.560   1.835   4.829 -0.5775  0.0152  0.0943
 3836TIP3    H132999   3.572   1.918   4.783 -0.0143 -0.2662 -0.2673
 3836TIP3    H233000   3.576   1.768   4.763  0.2248 -0.3894  0.6869
 3837TIP3   OH233001   1.496   1.775   0.530 -0.2735 -0.1601 -0.0732
 3837TIP3    H133002   1.442   1.723   0.591 -2.9831  1.1730 -1.2354
 3837TIP3    H233003   1.490   1.727   0.447 -0.3272  0.4175 -0.4014
 3838TIP3   OH233004   5.356   3.975  12.953  0.3719 -0.2295 -0.5402
 3838TIP3    H133005   5.314   3.945  12.872  0.0888  0.8851 -0.8150
 3838TIP3    H233006   5.363   3.896  13.007 -0.1700 -0.8257 -1.3290
 3839TIP3   OH233007   1.014   0.986   0.553  0.2076  0.0455  0.5624
 3839TIP3    H133008   1.031   1.011   0.644  1.4334  0.7705  0.1503
 3839TIP3    H233009   0.921   1.005   0.540  0.5064  1.9647  1.0462
 3840TIP3   OH233010   2.557   5.975  14.700 -0.2678 -0.2880 -0.3574
 3840TIP3    H133011   2.484   5.923  14.667  0.2670 -0.9696 -0.4885
 3840TIP3    H233012   2.567   5.948  14.791 -2.2767  2.2001  0.6323
 3841TIP3   OH233013   2.126   2.602  14.177 -0.4827  0.1731 -0.3476
 3841TIP3    H133014   2.054   2.608  14.239  0.0899  0.9525  0.2712
 3841TIP3    H233015   2.172   2.521  14.201 -0.5340  0.2311 -0.0449
 3842TIP3   OH233016   0.906   2.382   5.938 -0.5787  0.8632 -0.3643
 3842TIP3    H133017   0.923   2.288   5.939 -3.1472  0.3613  1.1078
 3842TIP3    H233018   0.949   2.414   5.859  1.1139 -1.3795 -0.3999
 3843TIP3   OH233019   2.805   4.752   1.859  0.1943 -0.2339  0.6208
 3843TIP3    H133020   2.797   4.714   1.946  0.0393  0.9644  1.1489
 3843TIP3    H233021   2.731   4.813   1.853 -0.3676 -1.0309 -0.7303
 3844TIP3   OH233022   2.759   6.252  17.270 -0.0158  0.0284 -0.4631
 3844TIP3    H133023   2.684   6.306  17.242  0.3949  0.0398 -1.5858
 3844TIP3    H233024   2.834   6.312  17.267  0.3583 -0.4602 -1.2215
 3845TIP3   OH233025   2.318   1.690   2.430  0.2031 -0.8483 -0.1561
 3845TIP3    H133026   2.277   1.632   2.494  0.4965 -1.5531 -0.6089
 3845TIP3    H233027   2.357   1.632   2.365  0.8019 -0.1603 -0.4273
 3846TIP3   OH233028   1.311   2.820  13.077  0.1555 -0.1312  0.3156
 3846TIP3    H133029   1.358   2.754  13.128 -1.4816 -1.0093  0.7297
 3846TIP3    H233030   1.338   2.903  13.115  1.5676 -0.5941  0.3638
 3847TIP3   OH233031   1.872   1.009  12.616  0.3527  0.0999  0.2122
 3847TIP3    H133032   1.914   0.931  12.580  1.0294  0.5907 -0.0781
 3847TIP3    H233033   1.933   1.080  12.597 -0.5164  0.7971 -0.0432
 3848TIP3   OH233034   2.232   3.025   4.827 -0.5423  0.1333 -0.2772
 3848TIP3    H133035   2.254   3.114   4.855 -0.9268  0.0283  0.3664
 3848TIP3    H233036   2.142   3.012   4.857  0.1355 -1.1266  1.2570
 3849TIP3   OH233037   3.788   5.692  16.103 -0.0532 -0.8345 -0.0624
 3849TIP3    H133038   3.706   5.698  16.153  0.0090  1.0481 -0.1336
 3849TIP3    H233039   3.843   5.762  16.139  1.0244 -1.2206 -0.9239
 3850TIP3   OH233040   0.071   1.452  11.897 -0.1241 -0.3108 -0.6913
 3850TIP3    H133041   0.026   1.428  11.977  1.1067 -2.5290 -0.6490
 3850TIP3    H233042   0.036   1.393  11.830 -2.8357  2.9883 -2.3799
 3851TIP3   OH233043   0.897   5.761   1.132 -0.7047  0.7093  0.4336
 3851TIP3    H133044   0.882   5.856   1.134  0.2118  0.9161 -1.6077
 3851TIP3    H233045   0.979   5.751   1.085 -0.2781 -1.0641  1.5278
 3852TIP3   OH233046   4.650   4.021   1.200 -0.3336 -0.0322  0.1199
 3852TIP3    H133047   4.690   4.105   1.178 -0.1593  0.2304  1.3795
 3852TIP3    H233048   4.558   4.043   1.218 -0.3418 -0.1534  0.2215
 3853TIP3   OH233049   1.906   1.814   1.880 -0.1114  0.2434  0.3778
 3853TIP3    H133050   1.960   1.813   1.801 -1.6925 -1.7968 -0.7293
 3853TIP3    H233051   1.908   1.906   1.909  1.0520  0.8829 -1.6262
 3854TIP3   OH233052   1.232   6.216   2.509 -0.3387  0.4165  0.1044
 3854TIP3    H133053   1.157   6.239   2.454 -2.2389  1.3625  3.0020
 3854TIP3    H233054   1.307   6.253   2.463 -1.9060  1.4608 -1.6806
 3855TIP3   OH233055   3.179   2.434   1.530  0.1890  0.5123  0.1658
 3855TIP3    H133056   3.149   2.435   1.439  1.7524  0.6808 -0.3769
 3855TIP3    H233057   3.155   2.347   1.562 -1.6587  0.9757  0.0442
 3856TIP3   OH233058   0.741   4.165   5.732 -0.1775  0.6190 -0.2160
 3856TIP3    H133059   0.808   4.230   5.752 -0.4088  0.6772  0.3677
 3856TIP3    H233060   0.730   4.116   5.813 -1.4344  1.1539 -0.0512
 3857TIP3   OH233061   6.786   3.009   4.167  0.5542  0.2209  0.1463
 3857TIP3    H133062   6.866   2.963   4.141  0.6418 -0.6530  1.9105
 3857TIP3    H233063   6.715   2.951   4.140  0.5985 -0.0432  0.5906
 3858TIP3   OH233064   4.657   4.525  16.190  0.0374 -0.0652 -0.2836
 3858TIP3    H133065   4.656   4.571  16.274  0.9932 -0.5477  0.0035
 3858TIP3    H233066   4.722   4.456  16.202 -0.0708 -0.3488 -1.3148
 3859TIP3   OH233067   1.336   6.393   2.680  0.6029 -0.6495 -0.0037
 3859TIP3    H133068   1.299   6.309   2.653 -1.8755 -0.4368  2.4902
 3859TIP3    H233069   1.371   6.431   2.600  0.8231 -3.6007 -1.3445
 3860TIP3   OH233070   0.107   2.078   2.522 -0.4386  0.1650 -0.3152
 3860TIP3    H133071   0.147   2.092   2.437  0.8898  0.2494  0.3086
 3860TIP3    H233072   0.156   2.135   2.582 -0.3302 -1.0408  0.7733
 3861TIP3   OH233073   0.782   0.565  16.966 -0.4275 -0.1578  0.1000
 3861TIP3    H133074   0.771   0.655  16.933  1.4274  0.0863  0.1358
 3861TIP3    H233075   0.732   0.564  17.047 -0.3055  0.9027  0.2002
 3862TIP3   OH233076   0.657   2.790  11.097  0.4141 -0.0659 -0.4865
 3862TIP3    H133077   0.727   2.854  11.085  0.9770 -0.6710 -0.4590
 3862TIP3    H233078   0.602   2.799  11.019  1.2565 -0.4977 -1.1306
 3863TIP3   OH233079   2.094   2.380   2.369  0.3448 -0.4023  0.1538
 3863TIP3    H133080   2.052   2.452   2.417  0.5046 -1.0733  1.3218
 3863TIP3    H233081   2.177   2.367   2.414  1.9504  1.0849 -2.3138
 3864TIP3   OH233082   5.384   0.492   5.546 -0.1906 -0.2390 -0.1157
 3864TIP3    H133083   5.345   0.487   5.459  0.6487  1.6265 -0.6351
 3864TIP3    H233084   5.477   0.474   5.533  0.0148  0.4705  0.3175
 3865TIP3   OH233085   0.993   2.229   0.821  0.2582  0.0622  0.0541
 3865TIP3    H133086   1.069   2.283   0.841  2.5602 -2.4861 -1.4632
 3865TIP3    H233087   1.008   2.147   0.868 -1.8366 -0.2867  0.1668
 3866TIP3   OH233088   5.368   3.431   4.130 -0.3517  0.0181 -0.2540
 3866TIP3    H133089   5.340   3.505   4.183 -1.2095 -0.7740  0.4191
 3866TIP3    H233090   5.448   3.461   4.086 -0.9640  1.4950 -0.3690
 3867TIP3   OH233091   2.722   2.938  15.500 -0.1557 -0.0640  0.1071
 3867TIP3    H133092   2.703   2.917  15.592 -0.3596  1.1068  0.3472
 3867TIP3    H233093   2.678   2.870  15.450  0.8729 -1.3441  0.9103
 3868TIP3   OH233094   1.011   2.323   1.124 -0.0761 -0.0404 -0.3822
 3868TIP3    H133095   0.951   2.278   1.064  0.7364 -1.4364 -0.1885
 3868TIP3    H233096   1.080   2.258   1.140  1.1378  1.3089 -0.1046
 3869TIP3   OH233097   0.280   2.936  13.650  0.4968 -0.1914 -0.3639
 3869TIP3    H133098   0.199   2.973  13.615  0.7437  1.0797  0.3473
 3869TIP3    H233099   0.251   2.863  13.705  0.0182 -1.2730 -2.0334
 3870TIP3   OH233100   6.347   4.085  16.909  0.1892 -0.4808 -0.7252
 3870TIP3    H133101   6.399   4.159  16.940  0.2451 -0.9312  0.2575
 3870TIP3    H233102   6.401   4.045  16.842  0.0259  0.5519 -1.4948
 3871TIP3   OH233103   1.561   4.807  14.806 -0.4531  0.2158 -0.0727
 3871TIP3    H133104   1.623   4.748  14.763  1.6062  1.2864  1.3484
 3871TIP3    H233105   1.581   4.893  14.770  0.1570  0.8639  1.7777
 3872TIP3   OH233106   4.728   2.933  14.703 -0.0704 -0.3869 -0.4370
 3872TIP3    H133107   4.741   2.998  14.634  1.5344  0.0756  0.2927
 3872TIP3    H233108   4.812   2.928  14.748 -0.6486 -1.8143  0.5231
 3873TIP3   OH233109   1.322   0.050   3.478  0.6631  0.0762 -0.0429
 3873TIP3    H133110   1.257  -0.019   3.491  0.2992  0.2696 -0.8480
 3873TIP3    H233111   1.298   0.117   3.542  0.9908 -0.5106  0.7100
 3874TIP3   OH233112   0.860   2.621   6.058 -0.6047  0.2610 -0.2412
 3874TIP3    H133113   0.800   2.610   6.132  1.4574  0.2695  1.4664
 3874TIP3    H233114   0.879   2.532   6.030 -1.1510  0.2480 -0.5827
 3875TIP3   OH233115   2.395   2.328  12.286  0.4382 -0.0830 -0.1754
 3875TIP3    H133116   2.359   2.283  12.362 -0.6462 -0.4305 -0.8702
 3875TIP3    H233117   2.457   2.390  12.322  0.2624 -0.5497  0.9624
 3876TIP3   OH233118   4.753   0.110  16.007  0.3587  0.5313 -0.1294
 3876TIP3    H133119   4.672   0.070  15.974  0.0077  0.8377  0.3421
 3876TIP3    H233120   4.813   0.037  16.018 -0.8544 -0.1402  2.4210
 3877TIP3   OH233121   0.560   3.660  15.601 -0.6580  0.4444 -0.3632
 3877TIP3    H133122   0.543   3.725  15.533 -0.0989  1.3866  0.3953
 3877TIP3    H233123   0.494   3.677  15.668  2.0432  2.9607  1.7730
 3878TIP3   OH233124   1.555   0.969  15.857 -0.0273  0.1488 -0.2770
 3878TIP3    H133125   1.462   0.991  15.848  0.1334  0.5534 -1.0250
 3878TIP3    H233126   1.601   1.041  15.813  0.6927  0.6169  1.2246
 3879TIP3   OH233127   4.681   5.922   1.858  0.6743 -0.2166  0.5724
 3879TIP3    H133128   4.772   5.929   1.887  0.7008 -0.6204  0.5861
 3879TIP3    H233129   4.642   6.006   1.882  0.9395 -0.1947  0.9375
 3880TIP3   OH233130   5.309   1.237  13.510 -0.1901 -0.3670 -0.3784
 3880TIP3    H133131   5.350   1.188  13.439 -1.9284  0.3444 -1.9159
 3880TIP3    H233132   5.323   1.329  13.486 -1.6902 -0.1236 -0.3433
 3881TIP3   OH233133   1.263   6.265   2.177  0.3483  0.3813  0.6330
 3881TIP3    H133134   1.290   6.279   2.086 -1.2265 -0.8012 -0.0338
 3881TIP3    H233135   1.252   6.170   2.185 -2.7889  0.7380  1.1033
 3882TIP3   OH233136   3.420   0.204  11.949 -0.2796 -0.0663 -0.1325
 3882TIP3    H133137   3.373   0.286  11.941  0.2185  0.4573  1.8913
 3882TIP3    H233138   3.495   0.213  11.890 -2.1496 -0.5646 -2.6986
 3883TIP3   OH233139   0.757   0.296   3.641  0.0578  0.8578  0.7628
 3883TIP3    H133140   0.835   0.306   3.586  1.1154 -0.3011  2.0080
 3883TIP3    H233141   0.685   0.283   3.579  1.2161 -0.3332 -0.3531
 3884TIP3   OH233142   3.137   3.266   3.525 -0.1057 -0.0977  0.0909
 3884TIP3    H133143   3.105   3.345   3.481 -1.9358  0.4685  2.3450
 3884TIP3    H233144   3.160   3.295   3.613  0.1062 -1.8964  0.6544
 3885TIP3   OH233145   6.773   4.034   3.282  0.1768  0.0744  0.0888
 3885TIP3    H133146   6.853   4.027   3.230  1.2389 -0.0328  1.7030
 3885TIP3    H233147   6.763   4.127   3.299  1.1337 -0.0954  1.6569
 3886TIP3   OH233148   2.792   3.926  15.788  0.9797 -0.3914 -0.7881
 3886TIP3    H133149   2.783   3.954  15.697 -1.3772  0.8302 -0.2087
 3886TIP3    H233150   2.718   3.966  15.834  0.7724 -2.8823  1.2150
 3887TIP3   OH233151   4.486   6.030  15.311  0.0365  0.3383  0.2016
 3887TIP3    H133152   4.461   6.083  15.387 -0.6183  0.2563  0.0520
 3887TIP3    H233153   4.580   6.016  15.321 -0.1592 -0.2440  1.3616
 3888TIP3   OH233154   1.156   5.094  15.176  0.2669  0.3523 -0.0348
 3888TIP3    H133155   1.131   5.023  15.237 -2.5547 -0.5754 -2.1223
 3888TIP3    H233156   1.174   5.049  15.094  1.1010  1.8550 -0.6890
 3889TIP3   OH233157   3.506   2.598  11.573  0.2923 -0.4822 -0.4192
 3889TIP3    H133158   3.427   2.644  11.544  0.5796  0.5605  0.4664
 3889TIP3    H233159   3.559   2.589  11.494 -0.4794 -0.7448 -0.9162
 3890TIP3   OH233160   4.228   4.423  12.639  0.8063 -0.5234  0.2102
 3890TIP3    H133161   4.160   4.482  12.608 -1.1322 -2.5676  0.4446
 3890TIP3    H233162   4.251   4.370  12.563  2.2427  0.2464  0.0973
 3891TIP3   OH233163   1.023   0.117  16.970  0.2679 -0.2598  0.4001
 3891TIP3    H133164   0.963   0.185  16.942 -1.5838 -0.7889  2.9099
 3891TIP3    H233165   1.081   0.160  17.032  1.0373 -0.2742 -0.3026
 3892TIP3   OH233166   0.404   6.009  15.369 -0.0340  0.2806 -0.1586
 3892TIP3    H133167   0.390   5.997  15.463  2.1306  1.7408  0.3712
 3892TIP3    H233168   0.329   5.965  15.329 -0.0617 -1.9549  2.1660
 3893TIP3   OH233169   3.394   5.779  13.371  0.7447 -0.3143 -0.1385
 3893TIP3    H133170   3.454   5.853  13.358  0.2114 -0.2863 -2.8642
 3893TIP3    H233171   3.393   5.735  13.285 -3.2496 -0.2370 -0.2017
 3894TIP3   OH233172   6.539   6.726  12.800 -0.3533  0.0486 -0.0921
 3894TIP3    H133173   6.498   6.731  12.886 -1.5088 -1.0725 -0.5603
 3894TIP3    H233174   6.548   6.632  12.783  0.7545  0.2629 -0.7906
 3895TIP3   OH233175   3.067   4.352   4.948 -0.3359 -0.5656  0.1171
 3895TIP3    H133176   3.124   4.363   4.873  0.0967 -0.7346  0.4182
 3895TIP3    H233177   3.085   4.429   5.003  0.8169 -1.4351  0.9986
 3896TIP3   OH233178   2.284   6.203  13.083 -0.4776  0.1384  0.0072
 3896TIP3    H133179   2.236   6.285  13.078  3.4362  2.4817 -2.0171
 3896TIP3    H233180   2.339   6.212  13.160  1.2905  0.2711 -1.2345
 3897TIP3   OH233181   2.295   3.686  14.436 -0.0792 -0.2826 -0.3598
 3897TIP3    H133182   2.344   3.632  14.374 -1.0306 -1.5762 -0.0239
 3897TIP3    H233183   2.304   3.775  14.403  0.1209 -0.8494 -1.8852
 3898TIP3   OH233184   5.955   1.005  10.673 -0.0327  0.7596 -0.1492
 3898TIP3    H133185   6.048   1.013  10.695  0.8339 -1.2634 -2.8034
 3898TIP3    H233186   5.938   1.079  10.615  0.3282  0.3089 -0.8431
 3899TIP3   OH233187   4.836   3.712  11.682 -0.4663  0.1377  0.2215
 3899TIP3    H133188   4.826   3.745  11.772  2.3623  1.6187  0.0315
 3899TIP3    H233189   4.826   3.618  11.690 -0.4814  0.2817  2.0597
 3900TIP3   OH233190   0.305   0.639   0.398  0.8845  0.0140  0.1277
 3900TIP3    H133191   0.313   0.545   0.381 -0.3320  0.0627 -0.8602
 3900TIP3    H233192   0.236   0.646   0.463  1.9583  0.1462  1.2600
 3901TIP3   OH233193   2.153   4.215  15.738  0.0862 -0.8152 -0.2696
 3901TIP3    H133194   2.066   4.255  15.730  0.2178 -0.4277  0.1741
 3901TIP3    H233195   2.138   4.121  15.728 -0.2701 -0.6761 -1.0308
 3902TIP3   OH233196   0.997   3.893  14.365 -0.5301 -0.2950  0.1744
 3902TIP3    H133197   0.936   3.953  14.407 -1.2116 -0.3241 -0.7543
 3902TIP3    H233198   1.047   3.855  14.437  0.8915  2.4113  0.6864
 3903TIP3   OH233199   3.499   1.781  16.993 -0.6239  0.2906 -0.0219
 3903TIP3    H133200   3.487   1.689  17.017 -0.9277  0.8517  2.0812
 3903TIP3    H233201   3.431   1.797  16.928  0.5293 -1.4174 -1.6862
 3904TIP3   OH233202   3.373   3.656  12.467  0.0128 -0.1418  0.0832
 3904TIP3    H133203   3.291   3.703  12.484 -0.7044 -1.4050  0.1661
 3904TIP3    H233204   3.426   3.671  12.545 -1.0230 -1.1511  1.0072
 3905TIP3   OH233205   6.283   5.008  12.795  0.4570  0.0948  0.1455
 3905TIP3    H133206   6.326   4.960  12.866 -1.2701 -2.1448 -0.2927
 3905TIP3    H233207   6.298   4.955  12.717  1.1719  1.8507 -0.9424
 3906TIP3   OH233208   2.304   2.769  15.512 -0.2056 -0.1275  0.0201
 3906TIP3    H133209   2.377   2.759  15.573 -0.2333 -0.3395  0.0166
 3906TIP3    H233210   2.305   2.863  15.490 -0.8496  0.1606  1.1638
 3907TIP3   OH233211   3.026   5.809   1.052 -0.8010 -0.1656 -0.0148
 3907TIP3    H133212   2.952   5.826   0.994 -0.3687  0.2160 -0.4530
 3907TIP3    H233213   3.039   5.714   1.046 -1.2784 -0.2430  0.1012
 3908TIP3   OH233214   3.148   4.215   2.653 -0.1563 -0.4843  0.1731
 3908TIP3    H133215   3.118   4.133   2.692 -0.4364 -0.1827  0.5971
 3908TIP3    H233216   3.138   4.280   2.722 -1.5673  0.2515 -0.6938
 3909TIP3   OH233217   2.124   2.773   5.937  0.3377 -0.4794 -0.1099
 3909TIP3    H133218   2.136   2.864   5.910  0.9565 -0.3757  0.4965
 3909TIP3    H233219   2.055   2.740   5.879  0.9855  0.0079 -1.1694
 3910TIP3   OH233220   2.739   4.686  13.909  0.1018  0.3713 -0.1613
 3910TIP3    H133221   2.820   4.703  13.861  0.2119  0.2357 -0.0286
 3910TIP3    H233222   2.756   4.603  13.955 -0.1978  0.2214 -0.3190
 3911TIP3   OH233223   3.214   0.081   3.339 -0.0798 -0.1093 -0.3040
 3911TIP3    H133224   3.251   0.154   3.291  0.1662  0.5954  0.9379
 3911TIP3    H233225   3.255   0.085   3.426 -1.8177 -0.2941  0.5615
 3912TIP3   OH233226   0.538   2.956   2.647  0.1366  0.6761  0.2764
 3912TIP3    H133227   0.464   2.934   2.589 -0.4245  1.5712  0.6434
 3912TIP3    H233228   0.576   3.034   2.608  2.2872 -1.0214 -1.1621
 3913TIP3   OH233229   2.732   1.058  11.339  0.3767  0.6200  0.4131
 3913TIP3    H133230   2.663   1.096  11.284 -0.2460  0.4123  1.0357
 3913TIP3    H233231   2.790   1.014  11.278 -0.4782  0.1305 -0.0565
 3914TIP3   OH233232   2.353   4.913   3.171 -0.0646 -0.2570 -0.7523
 3914TIP3    H133233   2.434   4.963   3.161 -0.2161 -0.3678 -2.7012
 3914TIP3    H233234   2.285   4.970   3.137 -0.3118 -1.5079 -2.4618
 3915TIP3   OH233235   2.405   6.618   1.418  0.0245  0.5072  0.0399
 3915TIP3    H133236   2.421   6.704   1.378 -2.6909  0.7699 -0.6167
 3915TIP3    H233237   2.472   6.562   1.380  1.1702  2.0950 -0.3625
 3916TIP3   OH233238   6.409   1.103  14.975 -0.2763  0.3479  0.1794
 3916TIP3    H133239   6.442   1.147  14.897 -1.2199 -1.9287 -1.5646
 3916TIP3    H233240   6.314   1.098  14.962 -0.2037 -2.0810  0.3784
 3917TIP3   OH233241   1.802   4.894   1.340 -0.1957  0.1283  0.2244
 3917TIP3    H133242   1.886   4.849   1.351  0.1679  0.3977 -1.2578
 3917TIP3    H233243   1.792   4.903   1.245 -1.0548  1.6874  0.4391
 3918TIP3   OH233244   3.257   4.694  10.690  0.0582 -0.1403  0.8886
 3918TIP3    H133245   3.353   4.700  10.697  0.1151 -0.3436  0.2601
 3918TIP3    H233246   3.241   4.676  10.598 -0.6090  0.2632  0.9288
 3919TIP3   OH233247   2.066   1.558  11.511  0.0683 -0.7118  0.3686
 3919TIP3    H133248   2.004   1.530  11.443 -1.3508 -0.2821  1.4623
 3919TIP3    H233249   2.151   1.556  11.467 -0.7433 -1.0321 -1.2547
 3920TIP3   OH233250   0.336   2.953   2.458 -0.0873  0.3268  0.5517
 3920TIP3    H133251   0.344   3.041   2.422 -1.2309 -0.2144 -1.0711
 3920TIP3    H233252   0.246   2.927   2.440  0.2024 -1.1316  1.1075
 3921TIP3   OH233253   4.733   1.646   2.437  0.0281  0.2214  0.4689
 3921TIP3    H133254   4.726   1.714   2.370  0.8130  0.6795  0.8447
 3921TIP3    H233255   4.738   1.694   2.520  1.2496 -0.2705  0.6871
 3922TIP3   OH233256   6.042   5.869   0.990 -0.0425  0.3801  0.3265
 3922TIP3    H133257   6.027   5.784   1.031 -1.7151 -0.4358 -1.8957
 3922TIP3    H233258   6.094   5.849   0.912 -1.0285  1.2941 -0.5882
 3923TIP3   OH233259   0.039   6.275   5.221  0.0833  0.2916  0.3491
 3923TIP3    H133260  -0.055   6.292   5.223 -0.3228 -1.8536  0.3930
 3923TIP3    H233261   0.066   6.301   5.132 -1.1508 -1.9887 -0.7364
 3924TIP3   OH233262   6.162   2.918   6.219 -0.0561 -0.2539  0.3739
 3924TIP3    H133263   6.226   2.980   6.184 -1.5120  1.2422  0.2918
 3924TIP3    H233264   6.115   2.968   6.286 -3.1113 -0.3677 -1.6133
 3925TIP3   OH233265   0.710   0.499  12.253  0.1495  0.3477  0.1102
 3925TIP3    H133266   0.711   0.430  12.186 -0.3853 -0.8002  1.2495
 3925TIP3    H233267   0.792   0.546  12.241 -0.9329  1.5960 -2.7998
 3926TIP3   OH233268   5.340   6.572   4.027 -0.1756  0.6710 -0.6898
 3926TIP3    H133269   5.405   6.519   4.074  2.3892  2.4706 -2.0686
 3926TIP3    H233270   5.328   6.649   4.081  0.4629  1.3204 -1.4582
 3927TIP3   OH233271   2.303   2.703   0.977  0.2069  0.1773  0.2431
 3927TIP3    H133272   2.364   2.639   0.941 -0.9688 -1.5998  1.2997
 3927TIP3    H233273   2.355   2.755   1.038  0.8545 -0.7202  0.4635
 3928TIP3   OH233274   4.402   4.866  16.526 -0.2083  0.3376 -0.6598
 3928TIP3    H133275   4.466   4.849  16.457  1.9543  0.3183  1.2838
 3928TIP3    H233276   4.437   4.942  16.572  0.1071 -1.5893  2.3857
 3929TIP3   OH233277   3.996   0.384  17.087 -0.1204  0.2691  0.1130
 3929TIP3    H133278   4.010   0.449  17.155 -1.6926 -0.1393  0.8534
 3929TIP3    H233279   3.939   0.426  17.024 -1.2280 -0.3980  0.6459
 3930TIP3   OH233280   5.898   5.794   1.842  0.2834  0.0715  0.0161
 3930TIP3    H133281   5.904   5.775   1.935 -3.4589  2.9024  0.9288
 3930TIP3    H233282   5.988   5.817   1.816  1.3764 -0.8880  2.8087
 3931TIP3   OH233283   0.604   5.219   4.107 -0.2970 -1.3476  0.2612
 3931TIP3    H133284   0.571   5.302   4.142  0.2820 -1.1696  0.3988
 3931TIP3    H233285   0.527   5.176   4.070 -0.2701  0.1656 -1.6703
 3932TIP3   OH233286   4.708   4.489  11.303  0.0589 -0.1722  0.4067
 3932TIP3    H133287   4.694   4.421  11.369 -0.6549 -1.4874 -1.0830
 3932TIP3    H233288   4.725   4.568  11.354  1.3824 -1.5485  2.1617
 3933TIP3   OH233289   6.105   6.149   3.906 -0.1281  0.4322  0.3572
 3933TIP3    H133290   6.197   6.153   3.934 -0.2162  0.6602  0.6202
 3933TIP3    H233291   6.092   6.058   3.879  0.3493  0.5461 -0.2819
 3934TIP3   OH233292   3.005   5.826  12.553 -0.5652 -0.2614  0.4866
 3934TIP3    H133293   2.988   5.753  12.493 -1.7084  0.6221 -0.2916
 3934TIP3    H233294   2.963   5.799  12.635 -4.9555  1.3743 -1.0605
 3935TIP3   OH233295   1.015   4.952  17.009 -0.0329 -0.1961  0.0631
 3935TIP3    H133296   1.016   4.927  16.917  0.0329  0.1942 -0.0396
 3935TIP3    H233297   1.088   5.013  17.019 -0.4173  0.2316  0.2445
 3936TIP3   OH233298   3.155   0.989  15.498  0.5896 -0.0160  0.0690
 3936TIP3    H133299   3.212   0.929  15.449  0.7410  0.5643 -0.4778
 3936TIP3    H233300   3.211   1.063  15.519  0.7183 -0.5807  1.7674
 3937TIP3   OH233301   0.232   0.417   1.966  0.4436 -0.0750 -0.0260
 3937TIP3    H133302   0.158   0.475   1.984 -0.7462 -1.5340 -0.1285
 3937TIP3    H233303   0.308   0.476   1.960 -0.9732  1.6360 -1.6442
 3938TIP3   OH233304   2.017   1.194  11.519 -0.1635 -0.0321  0.2206
 3938TIP3    H133305   1.942   1.212  11.462  0.9189 -0.2307 -1.3017
 3938TIP3    H233306   2.014   1.100  11.534 -1.5671  0.2948  2.1104
 3939TIP3   OH233307   6.532   0.876  11.564  0.2133 -0.1496  0.4420
 3939TIP3    H133308   6.441   0.852  11.549 -0.0475 -0.1832  1.9393
 3939TIP3    H233309   6.528   0.957  11.614  0.9607 -0.9649  1.8732
 3940TIP3   OH233310   1.388   4.175   5.422  0.2573  0.1784 -0.5058
 3940TIP3    H133311   1.480   4.199   5.417  0.4396 -0.4004  0.0128
 3940TIP3    H233312   1.347   4.247   5.470  0.9909 -1.0190  1.9912
 3941TIP3   OH233313   3.855   6.287  11.146  0.6115  0.7516 -0.3283
 3941TIP3    H133314   3.814   6.309  11.063 -0.8473  1.1953  0.4905
 3941TIP3    H233315   3.948   6.276  11.125  0.2253  0.6610 -2.0354
 3942TIP3   OH233316   3.399   1.659   2.098 -0.2631  0.1975 -0.1739
 3942TIP3    H133317   3.362   1.579   2.136 -2.2142  1.0717 -0.1730
 3942TIP3    H233318   3.325   1.720   2.096  0.8412  1.4966 -1.5802
 3943TIP3   OH233319   1.423   0.013  11.754  0.3523 -0.1604 -0.2132
 3943TIP3    H133320   1.461   0.078  11.813  0.3909  1.1681 -1.6579
 3943TIP3    H233321   1.365  -0.040  11.809  1.1207  0.4428  1.1813
 3944TIP3   OH233322   5.832   0.910   0.403  0.4811  0.4018 -0.2800
 3944TIP3    H133323   5.878   0.920   0.319 -0.7352 -0.5733 -1.0764
 3944TIP3    H233324   5.902   0.911   0.468  1.5318  0.1146 -1.3822
 3945TIP3   OH233325   2.228   5.200  11.158 -0.0249  0.6358  0.4080
 3945TIP3    H133326   2.206   5.188  11.066 -0.5444  2.6443  0.2253
 3945TIP3    H233327   2.143   5.197  11.203  0.1626  0.2792  0.7375
 3946TIP3   OH233328   2.386   0.776   5.562  0.5047 -0.1012  0.3193
 3946TIP3    H133329   2.356   0.852   5.512  1.6102  1.4919  1.9929
 3946TIP3    H233330   2.309   0.744   5.607 -0.5419 -1.6365 -2.4296
 3947TIP3   OH233331   4.523   2.041  10.340 -0.0027  0.0249  0.0136
 3947TIP3    H133332   4.469   2.033  10.262  0.4350  0.5833 -0.3527
 3947TIP3    H233333   4.523   2.134  10.361  0.8262  0.0408 -0.0101
 3948TIP3   OH233334   3.137   6.783   1.552 -0.4143  0.0906  0.9056
 3948TIP3    H133335   3.202   6.729   1.597 -1.1205 -0.5549  1.1758
 3948TIP3    H233336   3.185   6.861   1.525  0.4359 -0.3106  1.2244
 3949TIP3   OH233337   0.896   1.900  12.444  0.3707 -0.5861  0.2307
 3949TIP3    H133338   0.883   1.844  12.520  0.1388  0.7665  1.2013
 3949TIP3    H233339   0.990   1.918  12.443  0.4811 -1.1617 -0.2163
 3950TIP3   OH233340   2.189   5.907   5.294 -0.2709 -0.4527 -0.5018
 3950TIP3    H133341   2.266   5.964   5.298 -0.7280  0.0321  2.0916
 3950TIP3    H233342   2.225   5.820   5.277  0.8996 -0.3128  1.1656
 3951TIP3   OH233343   3.975   3.744  16.243  0.0176  0.1502 -0.6094
 3951TIP3    H133344   3.892   3.714  16.206 -0.1744  0.3144 -0.3084
 3951TIP3    H233345   3.982   3.701  16.328  0.6654 -0.5594 -1.0131
 3952TIP3   OH233346   0.211   5.261   0.148  0.3274  0.2543 -0.1522
 3952TIP3    H133347   0.163   5.330   0.194  0.7071 -0.1443  0.8371
 3952TIP3    H233348   0.142   5.202   0.115  0.1162 -0.1500  0.9971
 3953TIP3   OH233349   1.367   6.299  11.544 -0.1557 -0.1425 -0.1272
 3953TIP3    H133350   1.414   6.382  11.532 -0.9390  0.2641 -0.4572
 3953TIP3    H233351   1.387   6.273  11.633  2.6082 -1.1921 -1.0034
 3954TIP3   OH233352   6.167   5.292  11.702 -0.5762 -0.3715 -0.3406
 3954TIP3    H133353   6.121   5.373  11.684  0.2554  0.0204 -0.7260
 3954TIP3    H233354   6.106   5.223  11.676 -1.2234  0.1248 -0.1513
 3955TIP3   OH233355   1.563   4.818  16.981 -0.2296 -0.2961  0.8148
 3955TIP3    H133356   1.550   4.837  16.888 -0.6439  0.1125  0.9534
 3955TIP3    H233357   1.558   4.903  17.024 -3.4554 -0.8327  1.6046
 3956TIP3   OH233358   2.961   4.668   4.343  0.3700 -0.6831 -1.1844
 3956TIP3    H133359   2.977   4.736   4.409 -1.9050 -0.5203 -0.7827
 3956TIP3    H233360   2.913   4.712   4.273  1.4285 -1.2199 -2.2777
 3957TIP3   OH233361   3.951   2.214   3.027 -0.4182  0.1589  0.3789
 3957TIP3    H133362   3.880   2.278   3.034 -0.9703 -0.3858 -0.1540
 3957TIP3    H233363   4.003   2.226   3.107 -1.6643 -0.1048  1.2386
 3958TIP3   OH233364   5.691   2.294   4.606 -0.2094 -0.2495  0.7702
 3958TIP3    H133365   5.633   2.370   4.616 -0.8654 -0.7863  1.0611
 3958TIP3    H233366   5.778   2.327   4.630 -0.7606  0.0005  2.4601
 3959TIP3   OH233367   4.573   3.379  12.582 -0.1151 -0.1431 -0.0468
 3959TIP3    H133368   4.509   3.311  12.559 -0.8568  0.9557 -1.2982
 3959TIP3    H233369   4.608   3.407  12.498  2.0115 -0.7107  0.6297
 3960TIP3   OH233370   0.410   3.729   1.137 -0.0243  0.1096 -0.3052
 3960TIP3    H133371   0.405   3.710   1.043 -1.8869  0.6670 -0.3367
 3960TIP3    H233372   0.410   3.643   1.179  0.5083 -0.1321 -0.7927
 3961TIP3   OH233373   1.881   6.160   1.640 -0.7918  0.3906 -0.1286
 3961TIP3    H133374   1.957   6.217   1.631 -1.0484  0.3903 -2.7474
 3961TIP3    H233375   1.883   6.131   1.731  2.4402  0.2603 -0.1771
 3962TIP3   OH233376   3.629   2.113  13.530 -0.8660 -0.5551  0.0198
 3962TIP3    H133377   3.677   2.102  13.613 -1.0094 -2.8088 -0.1709
 3962TIP3    H233378   3.691   2.161  13.474  0.0162 -0.7914  0.7649
 3963TIP3   OH233379   0.040   2.715  13.046 -0.5441  0.5699  0.4806
 3963TIP3    H133380  -0.007   2.792  13.077 -2.3143 -1.0625  1.9997
 3963TIP3    H233381  -0.028   2.651  13.024  0.8859 -1.5488  1.9311
 3964TIP3   OH233382   4.156   5.093  14.857 -0.0714 -0.2877 -0.3686
 3964TIP3    H133383   4.236   5.123  14.813 -0.6866 -0.1490 -1.4032
 3964TIP3    H233384   4.104   5.053  14.787 -1.1181  0.0597  0.2110
 3965TIP3   OH233385   5.839   3.824  11.154 -0.1903 -0.2015  0.2782
 3965TIP3    H133386   5.763   3.835  11.097  0.4244 -0.6803 -0.6518
 3965TIP3    H233387   5.898   3.896  11.130 -0.1735 -0.0723  0.7039
 3966TIP3   OH233388   3.722   6.758   0.306  0.1649  0.6140  0.2011
 3966TIP3    H133389   3.802   6.765   0.358  0.8667  2.5107 -1.0961
 3966TIP3    H233390   3.727   6.830   0.243 -1.9707  0.0101 -0.7207
 3967TIP3   OH233391   5.162   0.795  12.806 -0.1331 -0.0414 -0.0617
 3967TIP3    H133392   5.114   0.714  12.791  0.1810 -0.2162 -0.1146
 3967TIP3    H233393   5.094   0.859  12.828 -0.2969 -0.5394  0.9104
 3968TIP3   OH233394   0.325   6.343  16.613 -0.5680 -0.3139 -0.2856
 3968TIP3    H133395   0.353   6.394  16.537 -0.3302  0.0420  0.0386
 3968TIP3    H233396   0.377   6.263  16.608  0.7753  0.4852  0.4971
 3969TIP3   OH233397   0.123   5.093   4.234  0.3373 -0.3517  0.3150
 3969TIP3    H133398   0.098   5.041   4.158 -0.3756  1.2315 -0.5605
 3969TIP3    H233399   0.211   5.062   4.257  0.7140 -0.5649 -1.3907
 3970TIP3   OH233400   6.705   6.817   5.554  0.4366  0.3251  0.5214
 3970TIP3    H133401   6.661   6.882   5.500  1.3759 -1.3323 -2.2990
 3970TIP3    H233402   6.799   6.833   5.540  0.6797 -1.1278  0.4029
 3971TIP3   OH233403   5.776   0.299  16.337  0.9176 -0.4060  1.0474
 3971TIP3    H133404   5.853   0.286  16.391  3.4092  1.6441 -1.8527
 3971TIP3    H233405   5.740   0.384  16.365  0.7430 -0.5160  1.1635
 3972TIP3   OH233406   2.888   5.013   2.248 -0.2375 -0.4027  0.3323
 3972TIP3    H133407   2.823   4.943   2.238 -0.2063 -0.4678  0.5835
 3972TIP3    H233408   2.841   5.093   2.222 -0.2108 -0.5441 -0.1553
 3973TIP3   OH233409   5.695   4.919  14.087 -0.2552 -0.1434 -0.2320
 3973TIP3    H133410   5.789   4.917  14.071 -0.1198  1.4579  0.2534
 3973TIP3    H233411   5.660   4.976  14.018 -0.8128 -0.4183 -0.1781
 3974TIP3   OH233412   3.620   6.416   4.242  0.2552  0.3321 -0.0708
 3974TIP3    H133413   3.581   6.503   4.242 -0.2093  0.1239  0.1406
 3974TIP3    H233414   3.591   6.377   4.160  0.2729  0.2949 -0.0594
 3975TIP3   OH233415   0.819   4.745  15.496  0.2809 -0.4369 -0.6253
 3975TIP3    H133416   0.840   4.687  15.570  1.6518  0.2804 -0.4403
 3975TIP3    H233417   0.789   4.826  15.537 -0.0358 -0.4279 -0.8738
 3976TIP3   OH233418   3.491   2.469  14.207  0.0155  0.4312  0.2106
 3976TIP3    H133419   3.448   2.447  14.124 -1.3155  1.7506  0.5272
 3976TIP3    H233420   3.429   2.528  14.251  1.1416  0.5205  1.7080
 3977TIP3   OH233421   3.717   6.264  12.798 -0.4360  0.2250 -0.4135
 3977TIP3    H133422   3.678   6.263  12.710 -1.4485 -3.0580 -0.0138
 3977TIP3    H233423   3.684   6.184  12.839 -1.1052  2.3695  3.4857
 3978TIP3   OH233424   4.160   3.176  16.161  0.0987  0.8286  0.2471
 3978TIP3    H133425   4.228   3.122  16.200 -0.7201 -0.3772  0.0511
 3978TIP3    H233426   4.206   3.232  16.099  0.9448  0.2002  0.2994
 3979TIP3   OH233427   0.848   1.731   2.106 -0.5414 -0.4884 -0.1925
 3979TIP3    H133428   0.918   1.794   2.090  0.3267 -1.5936 -0.8319
 3979TIP3    H233429   0.815   1.752   2.193 -0.4324  0.9935 -0.5049
 3980TIP3   OH233430   5.326   2.678   3.569 -0.4304  0.5910  0.2552
 3980TIP3    H133431   5.246   2.730   3.577 -0.0823  0.9147  1.9998
 3980TIP3    H233432   5.358   2.695   3.480 -2.1505  0.6626 -0.3548
 3981TIP3   OH233433   0.044   0.575   1.379 -0.3334 -0.1484  0.3501
 3981TIP3    H133434   0.113   0.538   1.435 -0.9846  0.3992  1.5364
 3981TIP3    H233435  -0.018   0.503   1.368 -0.0033 -0.3819 -0.0169
 3982TIP3   OH233436   5.354   1.044   3.859  0.1556  0.3333 -0.0681
 3982TIP3    H133437   5.357   1.136   3.831 -1.3418  0.1287 -0.8968
 3982TIP3    H233438   5.375   1.048   3.953 -0.4596  1.5813  0.0341
 3983TIP3   OH233439   1.001   6.394   0.253 -0.2798  0.5160 -0.1626
 3983TIP3    H133440   0.985   6.484   0.283  0.0936  1.1663 -1.8530
 3983TIP3    H233441   1.054   6.354   0.322 -0.8224  1.4466  0.8082
 3984TIP3   OH233442   5.349   0.427  11.799  0.3679 -0.8808 -0.0991
 3984TIP3    H133443   5.434   0.383  11.802  0.8736  0.0760 -0.4052
 3984TIP3    H233444   5.302   0.382  11.729  0.2121 -2.1360  0.7981
 3985TIP3   OH233445   1.559   3.912  12.593  0.5970 -0.1600  0.5234
 3985TIP3    H133446   1.632   3.867  12.550  1.0536 -0.3707  1.4842
 3985TIP3    H233447   1.496   3.843  12.612  0.5966 -0.1405  0.5925
 3986TIP3   OH233448   1.316   5.043  13.267 -0.0976 -0.3250 -0.6013
 3986TIP3    H133449   1.291   5.111  13.204 -0.5905 -1.5828 -1.7845
 3986TIP3    H233450   1.366   5.090  13.334  0.5008  1.0340 -1.9672
 3987TIP3   OH233451   5.337   6.773   0.090 -0.3105 -0.2234  0.0285
 3987TIP3    H133452   5.271   6.714   0.053  0.0786 -2.6685  3.0156
 3987TIP3    H233453   5.419   6.724   0.084  0.1147  0.2060  2.0472
 3988TIP3   OH233454   6.018   2.633  11.463 -0.3259 -0.7120  0.0201
 3988TIP3    H133455   5.981   2.653  11.378  1.5602 -0.8091 -0.8457
 3988TIP3    H233456   6.052   2.717  11.495 -0.1853 -0.8540  0.2477
 3989TIP3   OH233457   5.529   4.203   6.049  0.3900 -0.4157 -0.0328
 3989TIP3    H133458   5.562   4.132   6.104  0.9872 -0.5701 -0.5812
 3989TIP3    H233459   5.435   4.203   6.063  0.3521 -1.5041 -0.2301
 3990TIP3   OH233460   4.796   3.638  16.858 -0.4998 -0.5953 -0.4317
 3990TIP3    H133461   4.786   3.691  16.936 -0.0934 -2.6792  1.0874
 3990TIP3    H233462   4.888   3.611  16.858 -0.2860  0.0437 -2.0835
 3991TIP3   OH233463   6.500   2.978   0.219 -0.4712  0.0716 -0.1139
 3991TIP3    H133464   6.593   2.985   0.240 -0.6489  1.8425  0.1991
 3991TIP3    H233465   6.456   3.029   0.287 -1.4012  1.9519 -2.0600
 3992TIP3   OH233466   4.677   6.342   1.719 -0.0587 -0.2724  0.2598
 3992TIP3    H133467   4.758   6.292   1.712  0.1287 -0.1303  1.2595
 3992TIP3    H233468   4.615   6.297   1.661  0.4532 -0.9569  0.2395
 3993TIP3   OH233469   6.690   1.926  14.443 -0.3012 -0.1413 -0.3220
 3993TIP3    H133470   6.670   2.018  14.461  0.0441 -0.5256  2.2172
 3993TIP3    H233471   6.618   1.897  14.387 -2.1720  0.8510  1.4862
 3994TIP3   OH233472   0.528   1.369  15.803 -0.3170  0.1144 -0.3436
 3994TIP3    H133473   0.526   1.312  15.879 -0.7040 -0.1177 -0.5265
 3994TIP3    H233474   0.439   1.403  15.796 -0.2511  0.2302 -0.6195
 3995TIP3   OH233475   3.455   6.213   5.043 -0.7810  0.0475  0.2932
 3995TIP3    H133476   3.512   6.144   5.077  2.5641  2.6745  0.2884
 3995TIP3    H233477   3.392   6.228   5.113 -0.8807 -2.2072  0.7411
 3996TIP3   OH233478   5.046   4.206   4.721  0.0202 -0.0671  0.1719
 3996TIP3    H133479   5.098   4.188   4.642  1.2264  0.4948  0.8219
 3996TIP3    H233480   5.108   4.247   4.781 -0.9715 -0.2037  1.3001
 3997TIP3   OH233481   3.812   1.437   4.779  0.1652  0.1318 -0.6158
 3997TIP3    H133482   3.765   1.377   4.721 -0.6410  1.3555 -1.2613
 3997TIP3    H233483   3.896   1.451   4.736  0.4718 -0.7665 -0.3105
 3998TIP3   OH233484   4.017   2.835   3.835  0.4628  0.1834 -0.1043
 3998TIP3    H133485   4.060   2.848   3.751  0.4474 -2.2921 -0.5389
 3998TIP3    H233486   3.925   2.821   3.813  0.2445  0.7252  0.4391
 3999TIP3   OH233487   4.148   1.262  16.802  0.1509  0.5341 -0.0341
 3999TIP3    H133488   4.221   1.318  16.776  1.4939 -1.9891 -1.8592
 3999TIP3    H233489   4.168   1.177  16.763 -1.7898 -1.2607  2.7405
 4000TIP3   OH233490   2.730   6.009   5.556 -0.6037  0.2984  0.2800
 4000TIP3    H133491   2.697   6.084   5.505 -0.4248  0.6717  0.7087
 4000TIP3    H233492   2.674   5.936   5.530 -0.5231  0.4949 -0.4360
 4001TIP3   OH233493   3.180   1.009   0.079  0.0470  0.4876 -0.5765
 4001TIP3    H133494   3.115   1.051   0.134 -0.2945  0.6661 -1.1104
 4001TIP3    H233495   3.240   0.967   0.140  0.6664  2.1484 -0.0226
 4002TIP3   OH233496   0.108   3.351  16.453 -0.2910  0.1722 -0.4340
 4002TIP3    H133497   0.148   3.276  16.407 -1.6997 -1.5182  1.0196
 4002TIP3    H233498   0.180   3.388  16.503  0.2323 -0.7877 -0.4483
 4003TIP3   OH233499   1.377   0.184   5.948  0.3905  0.3037  0.0513
 4003TIP3    H133500   1.451   0.133   5.980 -0.5634 -1.1854 -0.0628
 4003TIP3    H233501   1.319   0.193   6.024 -1.4438 -2.4485 -0.9428
 4004TIP3   OH233502   6.212   1.266   3.234 -0.1610  0.4642  0.1774
 4004TIP3    H133503   6.156   1.213   3.291 -0.8211  0.4290 -0.4858
 4004TIP3    H233504   6.293   1.215   3.226 -0.2092  0.2944  0.7848
 4005TIP3   OH233505   4.038   5.577   1.582  0.6047  0.0424  0.0038
 4005TIP3    H133506   3.991   5.659   1.571  2.2053  1.0407  0.4496
 4005TIP3    H233507   3.985   5.526   1.643 -0.4226  0.7074 -0.3231
 4006TIP3   OH233508   5.355   3.016  11.361  0.5862 -0.4473 -0.5328
 4006TIP3    H133509   5.341   3.031  11.454  3.3959 -2.3635  0.2514
 4006TIP3    H233510   5.351   3.104  11.322 -0.8802  0.3466  1.3043
 4007TIP3   OH233511   0.603   4.637   1.646  0.5746  0.2077  0.0331
 4007TIP3    H133512   0.559   4.553   1.633 -0.4513  0.8410 -0.6418
 4007TIP3    H233513   0.694   4.614   1.664  0.6164 -0.9975 -1.5899
 4008TIP3   OH233514   0.928   2.087   5.929  0.0679 -0.7715  0.4883
 4008TIP3    H133515   0.882   2.030   5.991 -0.2156 -0.4044  0.6255
 4008TIP3    H233516   0.870   2.091   5.853  0.2322 -0.9135  0.3564
 4009TIP3   OH233517   2.629   6.474   4.566  0.1640  0.3621  0.0625
 4009TIP3    H133518   2.685   6.437   4.634 -1.2372  0.5884  1.3542
 4009TIP3    H233519   2.591   6.552   4.607 -2.7762 -0.9774 -0.0421
 4010TIP3   OH233520   6.540   1.771   5.988  0.1116  0.2417 -0.3754
 4010TIP3    H133521   6.570   1.849   5.942  0.8210  0.1834 -0.0222
 4010TIP3    H233522   6.551   1.793   6.081 -2.2684  0.7463 -0.1849
 4011TIP3   OH233523   2.571   3.123  12.002 -0.3586  0.3103 -0.2229
 4011TIP3    H133524   2.649   3.070  12.013  0.2783  1.2798 -0.0385
 4011TIP3    H233525   2.523   3.114  12.084 -1.1788 -1.4522 -0.8685
 4012TIP3   OH233526   1.924   0.635  16.045 -0.1997  0.2187 -0.0431
 4012TIP3    H133527   1.916   0.640  16.141 -0.5679  1.5922 -0.1328
 4012TIP3    H233528   1.857   0.696  16.013  0.1155 -0.0318 -1.1694
 4013TIP3   OH233529   1.528   1.485   2.083 -0.3534  0.2400  0.7531
 4013TIP3    H133530   1.432   1.477   2.086 -0.3234 -0.4944 -0.0789
 4013TIP3    H233531   1.559   1.395   2.073  0.3865  0.5572  0.1622
 4014TIP3   OH233532   6.121   5.680   2.693  0.1046 -0.7120 -0.5014
 4014TIP3    H133533   6.195   5.632   2.656 -0.7230 -2.6264  0.2854
 4014TIP3    H233534   6.159   5.763   2.723  1.6287 -1.0331 -1.4771
 4015TIP3   OH233535   3.410   5.937   3.859 -0.0790  0.3774 -0.0594
 4015TIP3    H133536   3.489   5.906   3.815  0.2473  0.0018  0.7933
 4015TIP3    H233537   3.365   5.858   3.888 -1.7403  0.4742 -2.1690
 4016TIP3   OH233538   1.106   0.111  15.133 -0.6414  0.8061  0.1802
 4016TIP3    H133539   1.103   0.019  15.106 -0.8161  0.7990  0.2218
 4016TIP3    H233540   1.174   0.115  15.200 -2.2794  0.2510  1.9117
 4017TIP3   OH233541   0.089   6.025   3.161 -0.0074 -0.0277 -0.1813
 4017TIP3    H133542   0.124   6.114   3.158  2.8989 -1.0895  0.2428
 4017TIP3    H233543   0.034   6.019   3.083  1.4150  1.5125 -1.3500
 4018TIP3   OH233544   2.442   4.024   4.302  0.6985  0.5938 -0.0344
 4018TIP3    H133545   2.384   3.961   4.259  1.9647 -0.9035  0.4045
 4018TIP3    H233546   2.414   4.024   4.394 -0.5699  2.1602 -0.3866
 4019TIP3   OH233547   2.280   3.100  13.777 -0.2760  0.2556  0.1104
 4019TIP3    H133548   2.277   3.075  13.869 -3.1206  0.3887  0.0825
 4019TIP3    H233549   2.189   3.118  13.754  0.8144  3.9925 -1.6890
 4020TIP3   OH233550   2.477   0.268  12.186  0.1859 -0.7889 -0.3683
 4020TIP3    H133551   2.536   0.206  12.145  3.6180  1.2985  1.1576
 4020TIP3    H233552   2.511   0.278  12.275 -2.2852  0.7227  0.4540
 4021TIP3   OH233553   4.116   1.155   0.818  0.1598 -1.0421  0.1377
 4021TIP3    H133554   4.036   1.157   0.764 -1.2843  0.5981  2.2541
 4021TIP3    H233555   4.099   1.087   0.883  1.3875 -2.1398 -0.6593
 4022TIP3   OH233556   0.803   2.595   4.926  0.1984 -0.0668 -0.0629
 4022TIP3    H133557   0.889   2.560   4.950 -0.1772 -0.3096  0.9648
 4022TIP3    H233558   0.761   2.524   4.875  0.6524  0.1045 -0.6770
 4023TIP3   OH233559   2.980   3.863  14.811  0.0325  0.1286 -0.5432
 4023TIP3    H133560   3.024   3.787  14.771  1.3153  0.4558  0.2126
 4023TIP3    H233561   2.912   3.824  14.866  0.7123 -0.5000 -0.1216
 4024TIP3   OH233562   3.188   2.330  13.695 -0.1823 -0.0580  0.1528
 4024TIP3    H133563   3.227   2.281  13.623  0.0265 -0.1690  0.3380
 4024TIP3    H233564   3.240   2.410  13.700 -0.4154  0.1043 -0.0410
 4025TIP3   OH233565   0.377   6.400   1.309 -0.8149 -0.3493 -0.4888
 4025TIP3    H133566   0.360   6.490   1.279 -1.8294 -0.1061  0.8019
 4025TIP3    H233567   0.351   6.345   1.235 -0.3849  0.3975 -1.2068
 4026TIP3   OH233568   5.015   5.887  17.286 -0.0982  0.0054  0.2880
 4026TIP3    H133569   5.007   5.798  17.319  1.0534 -0.2077 -0.0148
 4026TIP3    H233570   5.009   5.879  17.191  2.5230 -0.0499  0.0917
 4027TIP3   OH233571   2.736   3.171  11.060  0.7159  0.2198  0.2831
 4027TIP3    H133572   2.689   3.229  11.001  0.3691  1.5600  1.8284
 4027TIP3    H233573   2.707   3.198  11.148 -0.3351 -3.0461  1.0058
 4028TIP3   OH233574   1.170   4.125  12.998 -0.0748 -0.0576  0.1317
 4028TIP3    H133575   1.082   4.093  13.017  0.0673  0.4142  1.5803
 4028TIP3    H233576   1.228   4.055  13.028  0.2312  1.4553  3.2093
 4029TIP3   OH233577   2.868   1.347  10.939  0.6638  0.3877 -0.0967
 4029TIP3    H133578   2.872   1.410  10.867  0.1481  2.4935  1.6689
 4029TIP3    H233579   2.796   1.288  10.915  0.0740  1.4570 -0.9895
 4030TIP3   OH233580   5.082   5.678  11.368  0.2907 -0.1529 -0.0930
 4030TIP3    H133581   4.991   5.708  11.378  0.2095 -0.7955  1.2319
 4030TIP3    H233582   5.076   5.605  11.307  0.2467  1.2977 -1.8789
 4031TIP3   OH233583   6.474   3.071  14.213  0.6122  0.1211  1.2898
 4031TIP3    H133584   6.399   3.112  14.255 -2.0191 -0.3683 -2.6385
 4031TIP3    H233585   6.460   2.977  14.226 -1.6123 -0.1858 -2.6332
 4032TIP3   OH233586   2.879   1.569   6.397  0.0720  0.5115  0.7227
 4032TIP3    H133587   2.916   1.630   6.461  0.8753 -0.2598  1.0130
 4032TIP3    H233588   2.790   1.551   6.429 -0.3913  2.0040  0.2870
 4033TIP3   OH233589   0.919   0.169   6.052  0.2818 -0.3577 -0.6849
 4033TIP3    H133590   0.893   0.082   6.081 -0.1443  0.2205  0.7116
 4033TIP3    H233591   0.994   0.191   6.108 -1.0283  1.0797  0.5623
 4034TIP3   OH233592   1.484   4.156  13.077 -0.0408  0.0056 -0.3573
 4034TIP3    H133593   1.553   4.108  13.123 -1.4590 -1.3584  0.4104
 4034TIP3    H233594   1.489   4.124  12.987  1.1620  0.8774 -0.6079
 4035TIP3   OH233595   0.116   5.088   5.257 -0.1305 -0.6987  0.0127
 4035TIP3    H133596   0.074   5.002   5.265  1.1666 -1.4810 -1.4034
 4035TIP3    H233597   0.051   5.143   5.213 -0.6369 -1.1992  0.1352
 4036TIP3   OH233598   0.693   1.292   0.468  0.0072 -0.0985 -0.1826
 4036TIP3    H133599   0.634   1.353   0.514 -1.0613 -2.1834  1.2946
 4036TIP3    H233600   0.772   1.343   0.452 -1.9287  2.5794 -1.6404
 4037TIP3   OH233601   4.984   4.540  16.109 -0.0219 -0.3528  0.4411
 4037TIP3    H133602   4.986   4.493  16.025  3.8268 -1.6087  1.1539
 4037TIP3    H233603   4.940   4.480  16.169  0.5462 -1.0181  0.1954
 4038TIP3   OH233604   5.944   0.738   2.139  0.5399  0.2431 -0.5614
 4038TIP3    H133605   5.892   0.727   2.219  1.1459 -2.3476 -0.4839
 4038TIP3    H233606   5.880   0.738   2.068  0.2104 -0.3820 -0.2703
 4039TIP3   OH233607   1.207   2.482  16.604  0.0874  0.4660  0.6690
 4039TIP3    H133608   1.248   2.511  16.522 -0.8832 -1.2759 -0.4580
 4039TIP3    H233609   1.278   2.444  16.655 -0.0502 -2.3911 -1.2032
 4040TIP3   OH233610   4.976   4.558   1.880 -0.9784  0.1881 -0.4689
 4040TIP3    H133611   5.004   4.576   1.969  1.0095 -3.1353 -0.3428
 4040TIP3    H233612   5.027   4.618   1.826  1.1346 -0.8242  0.3376
 4041TIP3   OH233613   1.532   0.048   6.136 -0.6545 -0.2672  0.3333
 4041TIP3    H133614   1.606   0.109   6.142 -0.8421  0.0249 -0.2592
 4041TIP3    H233615   1.489   0.054   6.221 -0.6612  0.4236  0.2901
 4042TIP3   OH233616   2.667   2.194  11.474  0.6641 -0.6965 -0.0249
 4042TIP3    H133617   2.755   2.211  11.507  0.5450 -1.3279  0.6230
 4042TIP3    H233618   2.610   2.213  11.549  0.4788 -3.4767  0.5825
 4043TIP3   OH233619   2.608   6.557   2.163 -0.2872 -0.5980  0.6477
 4043TIP3    H133620   2.680   6.619   2.151  0.2222 -1.3524 -0.3559
 4043TIP3    H233621   2.622   6.519   2.250  2.0420 -2.6060 -0.5380
 4044TIP3   OH233622   2.712   0.074  13.420  0.2748 -0.5149 -0.6297
 4044TIP3    H133623   2.777   0.134  13.457 -1.7673  0.9235  0.7602
 4044TIP3    H233624   2.724   0.081  13.326  0.4776  1.7115 -0.4804
 4045TIP3   OH233625   4.163   2.242  16.277  0.7109 -0.3509 -0.2322
 4045TIP3    H133626   4.205   2.323  16.247 -0.5542  0.0976 -0.8529
 4045TIP3    H233627   4.236   2.186  16.305  1.5549  1.2672  0.9039
 4046TIP3   OH233628   3.852   1.950   1.187  0.0531 -0.2490 -0.5579
 4046TIP3    H133629   3.943   1.929   1.208 -0.0554  1.7018  2.2027
 4046TIP3    H233630   3.839   2.039   1.220 -3.2222 -1.0065  0.4339
 4047TIP3   OH233631   5.693   0.410  13.393  0.5512  0.2487 -0.3129
 4047TIP3    H133632   5.704   0.474  13.323 -0.5302  2.0846  1.1445
 4047TIP3    H233633   5.745   0.443  13.466 -0.5930 -0.1367  0.7094
 4048TIP3   OH233634   2.271   5.993   3.672  0.5274  0.3105  0.3170
 4048TIP3    H133635   2.191   6.044   3.665 -0.0501 -0.8562 -1.9369
 4048TIP3    H233636   2.258   5.919   3.613  2.6534 -0.7140  1.0773
 4049TIP3   OH233637   2.268   1.826   5.565  0.3651  0.2223  1.0051
 4049TIP3    H133638   2.236   1.742   5.532  0.3134  0.1743  1.1736
 4049TIP3    H233639   2.247   1.824   5.659 -2.1082  1.5597  0.5221
 4050TIP3   OH233640   3.170   5.883  14.647  0.2553 -0.2440 -0.2388
 4050TIP3    H133641   3.206   5.798  14.620 -0.7106  0.1077 -2.8172
 4050TIP3    H233642   3.076   5.867  14.655 -0.1320  0.8634 -2.1226
 4051TIP3   OH233643   1.772   0.999  16.963 -0.4049 -0.6221  0.5387
 4051TIP3    H133644   1.761   0.923  17.021 -2.5634  1.2302  2.6583
 4051TIP3    H233645   1.683   1.028  16.944  0.3454  0.4160 -1.6075
 4052TIP3   OH233646   4.084   0.484   1.467  0.6589  0.0538 -0.4741
 4052TIP3    H133647   4.068   0.390   1.458  0.6714 -0.2464  2.3660
 4052TIP3    H233648   4.167   0.490   1.513  1.7227  1.5072 -2.5138
 4053TIP3   OH233649   5.614   3.420   5.611 -0.2115 -0.2206 -0.3953
 4053TIP3    H133650   5.572   3.502   5.584 -0.5970 -0.1647  0.3630
 4053TIP3    H233651   5.574   3.353   5.556  0.3464  0.1402 -1.2571
 4054TIP3   OH233652   3.238   1.329  13.411  0.1769 -0.7896  0.4285
 4054TIP3    H133653   3.171   1.396  13.402  1.8603  0.7073 -1.6665
 4054TIP3    H233654   3.277   1.345  13.497  1.4776  1.8509 -0.5957
 4055TIP3   OH233655   3.758   0.509  12.050  0.1060  0.2061 -0.2251
 4055TIP3    H133656   3.805   0.426  12.061 -1.1306 -0.2876  1.7222
 4055TIP3    H233657   3.789   0.563  12.123 -4.0037 -0.9872  2.5820
 4056TIP3   OH233658   1.036   2.350   6.271  0.1009 -0.4391 -0.9198
 4056TIP3    H133659   1.069   2.315   6.188 -1.3235  1.2621 -2.2319
 4056TIP3    H233660   0.993   2.275   6.313 -0.7215 -0.8857 -2.5378
 4057TIP3   OH233661   0.024   6.082  17.109 -0.2332  0.1770  0.2035
 4057TIP3    H133662   0.040   6.127  17.192 -0.0697 -1.9962  1.3859
 4057TIP3    H233663   0.095   6.111  17.052 -0.9907  2.5749  0.4219
 4058TIP3   OH233664   3.420   0.163  17.248  0.0731 -0.5851 -0.1929
 4058TIP3    H133665   3.397   0.253  17.272 -0.6677 -0.5113 -1.1508
 4058TIP3    H233666   3.351   0.110  17.288 -0.0517 -0.6301 -0.4630
 4059TIP3   OH233667   5.216   5.433   4.887  0.1846 -0.0002 -0.0224
 4059TIP3    H133668   5.190   5.437   4.979  1.9952 -0.8843  0.5438
 4059TIP3    H233669   5.138   5.403   4.841 -1.0470  1.4237  1.0738
 4060TIP3   OH233670   4.862   1.468   2.019 -0.0391 -0.1859 -0.1894
 4060TIP3    H133671   4.947   1.429   2.001 -0.4190 -0.3365 -1.6842
 4060TIP3    H233672   4.821   1.408   2.082  1.3590  0.4413  1.3635
 4061TIP3   OH233673   4.511   1.876  12.291 -0.5547  0.0813 -0.4592
 4061TIP3    H133674   4.523   1.789  12.329  1.7285  0.1682 -0.8632
 4061TIP3    H233675   4.472   1.860  12.205 -0.2620 -0.5328 -0.4773
 4062TIP3   OH233676   3.567   4.746   5.843  0.0987  0.1353 -0.0452
 4062TIP3    H133677   3.498   4.730   5.908  0.5724 -3.1549 -0.2720
 4062TIP3    H233678   3.547   4.686   5.772  2.9575 -0.6057 -0.2889
 4063TIP3   OH233679   3.908   0.142   2.809  0.0453  0.5731  0.5974
 4063TIP3    H133680   3.820   0.179   2.815  0.0604  1.0497 -1.6048
 4063TIP3    H233681   3.962   0.215   2.781  1.3712  0.5408  2.9367
 4064TIP3   OH233682   2.026   0.103  16.745  0.6225  0.2747 -0.0252
 4064TIP3    H133683   1.966   0.043  16.790 -0.1829  1.4375  0.4775
 4064TIP3    H233684   2.101   0.112  16.804  1.4114 -1.3499 -0.7515
 4065TIP3   OH233685   5.813   6.377   2.518 -0.3129  0.4617  0.0452
 4065TIP3    H133686   5.769   6.311   2.572 -0.6363  0.6960  0.0674
 4065TIP3    H233687   5.794   6.351   2.428 -0.7420  0.7266  0.0573
 4066TIP3   OH233688   3.380   4.672  15.688  0.7145  0.2828  0.2757
 4066TIP3    H133689   3.464   4.635  15.713  0.1016 -1.3472 -0.0094
 4066TIP3    H233690   3.324   4.657  15.764  0.3155  0.1496 -0.0419
 4067TIP3   OH233691   3.876   4.179  10.876 -0.4421  0.3458  0.0887
 4067TIP3    H133692   3.849   4.089  10.889 -0.3330  0.3677  0.4587
 4067TIP3    H233693   3.965   4.173  10.842 -0.2442  0.3325  0.6148
 4068TIP3   OH233694   5.700   1.668  14.083  0.2981  0.6746 -0.1410
 4068TIP3    H133695   5.610   1.636  14.089  0.9784 -1.4381 -0.4746
 4068TIP3    H233696   5.705   1.741  14.144 -1.2217 -0.2168  1.0685
 4069TIP3   OH233697   4.765   6.709  11.741 -0.5941 -0.2310  0.4602
 4069TIP3    H133698   4.838   6.713  11.803 -0.1123 -0.3208 -0.1001
 4069TIP3    H233699   4.707   6.641  11.775  0.7172 -1.7542 -0.3284
 4070TIP3   OH233700   0.526   1.303  12.579  0.4986 -0.0761  0.1010
 4070TIP3    H133701   0.458   1.269  12.637  0.4652 -0.0257  0.0900
 4070TIP3    H233702   0.505   1.265  12.494  0.8222 -0.5280  0.2189
 4071TIP3   OH233703   4.704   0.553  14.602  0.1305  0.3773  0.2457
 4071TIP3    H133704   4.791   0.592  14.607  0.8510 -0.8076 -2.1705
 4071TIP3    H233705   4.717   0.470  14.555 -2.6094  1.2808 -2.2808
 4072TIP3   OH233706   0.618   6.166  15.791 -0.0253 -0.3404  0.1879
 4072TIP3    H133707   0.683   6.095  15.793 -1.6871 -1.8858  0.8273
 4072TIP3    H233708   0.589   6.169  15.700 -2.1546 -2.5803  0.7460
 4073TIP3   OH233709   5.435   4.170   0.210 -0.7088 -0.3566  0.7566
 4073TIP3    H133710   5.400   4.221   0.136 -0.6151  0.5491  1.3275
 4073TIP3    H233711   5.358   4.126   0.246 -0.6008 -1.5773 -0.4670
 4074TIP3   OH233712   4.490   5.233   5.443  0.0561  0.8676 -0.0424
 4074TIP3    H133713   4.472   5.315   5.489  0.9385  1.9235 -1.5507
 4074TIP3    H233714   4.562   5.254   5.383  2.0907 -1.6762  1.4126
 4075TIP3   OH233715   6.186   0.090   5.146 -0.0684 -0.4200  0.4858
 4075TIP3    H133716   6.097   0.100   5.181  0.0454 -0.1993  0.7138
 4075TIP3    H233717   6.233   0.043   5.215  0.5422  1.2814  1.2460
 4076TIP3   OH233718   0.143   2.699   4.254 -0.3597 -0.9294  0.2363
 4076TIP3    H133719   0.050   2.699   4.235 -0.4713 -1.9092  0.7433
 4076TIP3    H233720   0.152   2.756   4.331 -0.2831  0.6666 -0.9320
 4077TIP3   OH233721   2.764   5.154   1.076 -0.2169  0.5839  0.6654
 4077TIP3    H133722   2.677   5.124   1.051  0.7142  0.8216 -3.1105
 4077TIP3    H233723   2.820   5.076   1.068  0.1104  0.6285  2.2501
 4078TIP3   OH233724   2.557   5.548   1.947 -0.0614  0.1397 -0.9577
 4078TIP3    H133725   2.594   5.635   1.935  1.5313 -0.6827 -2.3254
 4078TIP3    H233726   2.604   5.494   1.883 -1.7734 -1.4917 -0.8625
 4079TIP3   OH233727   1.292   4.565   4.188 -0.0429 -0.1056 -0.1509
 4079TIP3    H133728   1.287   4.526   4.100  1.2511  0.0717 -0.3146
 4079TIP3    H233729   1.224   4.519   4.238 -0.1876 -0.8422 -1.0023
 4080TIP3   OH233730   3.940   2.733  15.032  0.5216  0.2140 -0.5281
 4080TIP3    H133731   3.924   2.816  14.988 -1.5065  0.7607  1.2250
 4080TIP3    H233732   4.014   2.750  15.090 -0.1693  0.9043  0.1463
 4081TIP3   OH233733   3.398   0.992  12.326 -0.0098 -0.1177  0.2608
 4081TIP3    H133734   3.316   0.948  12.301  0.5149 -0.2207 -1.3201
 4081TIP3    H233735   3.421   0.954  12.411 -1.4478 -0.2933  0.5867
 4082TIP3   OH233736   2.996   0.195  14.982  0.2625 -0.7409  0.3509
 4082TIP3    H133737   2.939   0.189  14.905 -0.4942  0.7290  0.7882
 4082TIP3    H233738   3.065   0.131  14.965  0.7502  0.3869 -2.1049
 4083TIP3   OH233739   3.003   3.777  12.229  0.2474  0.7427  0.2210
 4083TIP3    H133740   3.050   3.770  12.146 -0.8155  1.4510 -0.4400
 4083TIP3    H233741   3.010   3.870  12.252  1.2660  0.3984  1.3558
 4084TIP3   OH233742   2.391   1.072   4.832  0.3004  0.2088  0.2882
 4084TIP3    H133743   2.470   1.042   4.787  1.0551 -1.3434  2.5771
 4084TIP3    H233744   2.320   1.025   4.789  0.7425  0.7281 -1.0158
 4085TIP3   OH233745   1.467   6.309   5.808 -1.0470  0.0664 -0.1755
 4085TIP3    H133746   1.533   6.351   5.863 -1.2306 -1.5006  1.2949
 4085TIP3    H233747   1.516   6.272   5.735 -0.6487  1.1984 -0.4811
 4086TIP3   OH233748   1.501   5.583  15.575 -0.2008  0.1330  0.2468
 4086TIP3    H133749   1.523   5.639  15.649 -0.1928 -0.9754  1.1063
 4086TIP3    H233750   1.423   5.535  15.604  0.6995 -1.4154  0.1414
 4087TIP3   OH233751   3.592   4.733  16.804  0.6562 -0.2805 -0.2192
 4087TIP3    H133752   3.546   4.738  16.720 -3.0217  2.3920  1.7974
 4087TIP3    H233753   3.657   4.802  16.799 -0.1084  0.4265 -0.5866
 4088TIP3   OH233754   5.366   3.032  12.908  0.2304 -0.2811  0.1953
 4088TIP3    H133755   5.392   2.961  12.849  1.3292  0.9791 -0.8569
 4088TIP3    H233756   5.387   3.112  12.860 -1.9577  0.7835  0.9413
 4089TIP3   OH233757   3.264   5.615  15.683 -0.2355 -0.3616  1.1509
 4089TIP3    H133758   3.245   5.615  15.589 -1.4576  0.4230  1.3900
 4089TIP3    H233759   3.354   5.646  15.690 -0.8196  1.5406  0.3566
 4090TIP3   OH233760   1.854   4.196   1.073  0.0093  0.1594 -0.2245
 4090TIP3    H133761   1.890   4.116   1.035  1.6416  1.4190 -1.3513
 4090TIP3    H233762   1.808   4.238   1.001  2.4342  2.1549 -0.6439
 4091TIP3   OH233763   5.266   4.258   3.472 -0.3644  0.7426 -0.2410
 4091TIP3    H133764   5.228   4.182   3.427 -1.9071  1.1539  0.3230
 4091TIP3    H233765   5.254   4.331   3.410 -0.6111  0.9006 -0.0077
 4092TIP3   OH233766   5.984   0.042   0.903 -0.0221  0.1125 -0.2279
 4092TIP3    H133767   6.003  -0.042   0.945 -0.9881  0.6013  1.2254
 4092TIP3    H233768   6.065   0.092   0.910  0.0289 -0.0632  0.4589
 4093TIP3   OH233769   4.392   0.377  15.084  0.2947  0.3144  0.5204
 4093TIP3    H133770   4.393   0.466  15.120 -0.5497  0.0618  1.1830
 4093TIP3    H233771   4.330   0.330  15.139  0.2600 -0.5230 -0.2271
 4094TIP3   OH233772   4.113   2.285  13.838  0.4828  0.0598 -0.1193
 4094TIP3    H133773   4.075   2.216  13.784 -1.0653  1.3148 -0.6722
 4094TIP3    H233774   4.044   2.352  13.844  0.8221  0.2302  2.8948
 4095TIP3   OH233775   2.531   5.691  14.093 -0.3847 -0.0622  0.3253
 4095TIP3    H133776   2.534   5.729  14.005  1.1313  0.2582  0.5092
 4095TIP3    H233777   2.465   5.743  14.139  1.1026  1.8811  0.3337
 4096TIP3   OH233778   2.440   0.120   1.818 -0.6087  0.3953 -1.0673
 4096TIP3    H133779   2.441   0.032   1.782 -0.6007  0.4026 -1.0845
 4096TIP3    H233780   2.485   0.174   1.753 -0.2550  0.3375 -0.8697
 4097TIP3   OH233781   3.713   0.988  13.952  0.2318  0.0179 -0.5465
 4097TIP3    H133782   3.673   1.002  14.037  1.3996  0.8085 -0.1111
 4097TIP3    H233783   3.750   0.900  13.956  1.5906  0.6125  0.3130
 4098TIP3   OH233784   1.995   5.156  15.083  0.3258 -0.2045  0.6297
 4098TIP3    H133785   2.032   5.244  15.072 -3.0925  1.0764 -1.4482
 4098TIP3    H233786   2.053   5.099  15.032  0.5099  1.4424 -1.0419
 4099TIP3   OH233787   4.897   0.407   3.871  0.2749  0.1182 -0.0393
 4099TIP3    H133788   4.803   0.409   3.887 -0.1121 -0.2768 -2.1626
 4099TIP3    H233789   4.913   0.483   3.815  0.8449 -1.1075 -1.5600
 4100TIP3   OH233790   1.827   2.578   0.149  0.2940  0.7592 -0.4338
 4100TIP3    H133791   1.846   2.581   0.242  0.6904  2.1535 -0.5526
 4100TIP3    H233792   1.749   2.523   0.142  1.0655 -0.4697  0.5731
 4101TIP3   OH233793   5.584   1.569   5.325  0.3417  0.1270  0.0364
 4101TIP3    H133794   5.568   1.634   5.257  1.9806 -0.3896 -0.8780
 4101TIP3    H233795   5.659   1.603   5.374  0.0595 -0.1904  0.7044
 4102TIP3   OH233796   2.530   4.879   1.576  0.2926 -0.1226 -0.2186
 4102TIP3    H133797   2.442   4.911   1.598  0.9708  0.0797  2.3248
 4102TIP3    H233798   2.561   4.940   1.509 -0.4510  1.5022  0.8571
 4103TIP3   OH233799   2.489   4.612   1.556  0.1750  0.3121 -0.5149
 4103TIP3    H133800   2.519   4.701   1.572 -1.9569  0.9945 -0.0804
 4103TIP3    H233801   2.509   4.596   1.464  0.5563  1.2551 -0.6001
 4104TIP3   OH233802   2.798   5.621   4.069  0.1194 -0.2986 -0.3232
 4104TIP3    H133803   2.736   5.565   4.022  0.0396 -0.2518 -0.2729
 4104TIP3    H233804   2.755   5.706   4.075 -0.2969 -0.5785  0.7229
 4105TIP3   OH233805   4.420   3.931  12.223  0.0105 -0.1727  0.3888
 4105TIP3    H133806   4.450   3.872  12.292 -1.5007 -1.5293 -0.0769
 4105TIP3    H233807   4.444   3.886  12.142  0.3177  0.6423  0.0296
 4106TIP3   OH233808   0.520   4.796  12.825 -0.2949  0.2070 -0.1617
 4106TIP3    H133809   0.491   4.712  12.862  1.0491  0.5864  1.8397
 4106TIP3    H233810   0.601   4.775  12.778 -0.1302  0.3385  0.0656
 4107TIP3   OH233811   4.079   0.784   0.218 -0.2278 -0.2329 -0.1557
 4107TIP3    H133812   4.153   0.845   0.218  0.1940 -0.7483 -1.2404
 4107TIP3    H233813   4.005   0.837   0.250  0.6765  0.1742  1.3435
 4108TIP3   OH233814   1.868   2.958   0.024 -0.1040 -0.4043  0.7440
 4108TIP3    H133815   1.818   2.972   0.104  0.9131  1.7014  1.0425
 4108TIP3    H233816   1.937   3.024   0.026 -0.0890 -0.2671 -1.9020
 4109TIP3   OH233817   5.577   1.067  14.328  0.4868 -0.0038 -0.3314
 4109TIP3    H133818   5.578   0.974  14.353  0.3270  0.2391  0.5780
 4109TIP3    H233819   5.669   1.087  14.309  0.5264 -0.3431 -0.5040
 4110TIP3   OH233820   4.278   0.692   6.226  0.2436  0.2327  0.4047
 4110TIP3    H133821   4.322   0.683   6.310  0.6517 -0.0663  0.1573
 4110TIP3    H233822   4.279   0.787   6.209  1.2742  0.1823  0.1419
 4111TIP3   OH233823   6.331   2.858   6.807  0.3395  0.5035  0.0782
 4111TIP3    H133824   6.419   2.823   6.820  0.6667  1.0026 -0.7514
 4111TIP3    H233825   6.332   2.893   6.718 -0.4853  1.1403  0.3091
 4112TIP3   OH233826   1.146   3.909  15.308  0.2571 -0.4857  0.1063
 4112TIP3    H133827   1.075   3.852  15.336  0.1445 -1.2774 -1.6665
 4112TIP3    H233828   1.104   3.994  15.292 -0.5267 -1.1968 -1.8585
 4113TIP3   OH233829   2.931   4.314  11.403  0.5728  0.0962 -0.3115
 4113TIP3    H133830   2.972   4.345  11.322 -1.1316 -1.6657 -1.9165
 4113TIP3    H233831   2.935   4.218  11.396 -1.2764 -0.0854  0.8006
 4114TIP3   OH233832   3.693   5.752   2.418  0.0870  0.0301  0.1565
 4114TIP3    H133833   3.727   5.696   2.348  0.3462  1.0037 -0.5105
 4114TIP3    H233834   3.603   5.721   2.432  1.0613 -2.2071  1.5587
 4115TIP3   OH233835   5.476   0.789   5.354  0.3627  0.0782 -0.0789
 4115TIP3    H133836   5.563   0.795   5.393  0.7080 -0.9244 -0.6861
 4115TIP3    H233837   5.417   0.787   5.429  0.8379  1.0525  0.3305
 4116TIP3   OH233838   5.275   3.563  16.943  1.0736 -0.0495  0.4629
 4116TIP3    H133839   5.261   3.487  17.000  0.8277 -0.2465  0.1398
 4116TIP3    H233840   5.201   3.561  16.882  1.8628 -0.3979 -0.4890
 4117TIP3   OH233841   1.079   4.933  14.894  0.8627 -0.1018  0.0665
 4117TIP3    H133842   1.053   4.951  14.804  0.4870 -2.8504 -0.4197
 4117TIP3    H233843   0.996   4.927  14.942  1.0675  1.5152  0.6507
 4118TIP3   OH233844   5.340   1.787   2.554 -0.1839  0.4602  0.1050
 4118TIP3    H133845   5.406   1.728   2.589 -0.4548 -0.3439 -0.7378
 4118TIP3    H233846   5.323   1.849   2.625  0.3945 -0.2264  0.8410
 4119TIP3   OH233847   3.736   0.882   3.000 -0.0463 -0.1029 -0.0244
 4119TIP3    H133848   3.711   0.873   3.092 -1.4593  0.8148 -0.3023
 4119TIP3    H233849   3.708   0.801   2.959 -1.0504  0.2298  0.0015
 4120TIP3   OH233850   1.695   2.110   2.655  0.3130  0.5123  0.2658
 4120TIP3    H133851   1.662   2.181   2.710 -0.4782 -0.7132  1.4110
 4120TIP3    H233852   1.736   2.049   2.716  0.0741 -0.5174 -0.5780
 4121TIP3   OH233853   4.819   0.014  12.065 -0.1464  0.1200 -0.3599
 4121TIP3    H133854   4.847   0.105  12.052  3.6483 -0.9502 -0.0021
 4121TIP3    H233855   4.891  -0.028  12.111 -1.2446 -3.4572 -1.7140
 4122TIP3   OH233856   0.070   2.754  11.596 -0.8155  0.8033 -0.4105
 4122TIP3    H133857   0.014   2.741  11.519 -1.4411  1.0572 -0.0023
 4122TIP3    H233858   0.012   2.793  11.661 -0.8666 -1.4323  0.9495
 4123TIP3   OH233859   5.712   0.941  17.287 -0.8419  0.1920 -0.0584
 4123TIP3    H133860   5.747   0.908  17.204 -0.1320  1.2816 -0.1982
 4123TIP3    H233861   5.647   0.875  17.314  1.2019 -1.7954  0.1403
 4124TIP3   OH233862   6.769   2.502  15.496  0.1184  0.5157  0.6172
 4124TIP3    H133863   6.685   2.457  15.501  0.0743  0.5734  0.3894
 4124TIP3    H233864   6.747   2.595  15.502  0.2460  0.4880  1.5064
 4125TIP3   OH233865   5.786   5.920  14.605 -0.0564  0.5493  0.8246
 4125TIP3    H133866   5.864   5.974  14.612  0.5615 -0.3506  0.9359
 4125TIP3    H233867   5.723   5.962  14.664  0.7655  0.5392  1.7228
 4126TIP3   OH233868   5.457   1.351  15.780 -0.5210 -0.2226 -0.1795
 4126TIP3    H133869   5.519   1.369  15.709  0.2546 -2.0260  0.0221
 4126TIP3    H233870   5.490   1.402  15.854  1.2099 -1.7706  0.1585
 4127TIP3   OH233871   4.856   5.305   0.074  0.6890  0.3826  0.4484
 4127TIP3    H133872   4.820   5.217   0.067 -0.2693  0.7780  0.3846
 4127TIP3    H233873   4.951   5.292   0.068  0.6726 -0.8407  2.2779
 4128TIP3   OH233874   0.145   3.961  12.866  0.1598  0.2268  0.1470
 4128TIP3    H133875   0.193   4.005  12.795  0.4488 -2.0102 -1.1202
 4128TIP3    H233876   0.062   3.936  12.826 -0.7352  1.2038  1.3822
 4129TIP3   OH233877   5.168   4.997   2.329 -0.2895  0.1961 -0.2000
 4129TIP3    H133878   5.097   4.935   2.312 -1.3669  1.1450  0.7575
 4129TIP3    H233879   5.159   5.018   2.422  2.4821 -1.1814  0.4465
 4130TIP3   OH233880   2.923   1.366   6.216  0.3776 -0.0873  0.5412
 4130TIP3    H133881   3.013   1.389   6.193 -0.4454  1.3201 -1.4385
 4130TIP3    H233882   2.899   1.427   6.286  0.8844 -0.3438  0.9425
 4131TIP3   OH233883   2.705   3.735  14.812  0.2814 -0.8510  0.1475
 4131TIP3    H133884   2.660   3.728  14.728 -0.6997 -2.9750  0.8247
 4131TIP3    H233885   2.741   3.648  14.827  1.3775 -0.1962  1.4338
 4132TIP3   OH233886   4.285   5.276   1.589  0.7075  0.0963 -0.4723
 4132TIP3    H133887   4.372   5.242   1.606  0.4560 -0.0549  0.5358
 4132TIP3    H233888   4.229   5.236   1.656  0.0198  0.8154 -0.6025
 4133TIP3   OH233889   0.064   0.263  12.248  0.1352  0.1041  0.1302
 4133TIP3    H133890   0.140   0.311  12.214  0.2959  0.3182  0.7756
 4133TIP3    H233891  -0.006   0.281  12.185  0.3803  0.6279 -0.0030
 4134TIP3   OH233892   5.209   5.637  16.974 -0.0003 -0.4297  0.3601
 4134TIP3    H133893   5.215   5.542  16.960  0.5197 -0.5590  1.4102
 4134TIP3    H233894   5.241   5.650  17.063 -3.6842  0.2962  1.6801
 4135TIP3   OH233895   1.252   1.482  11.650  0.2782  0.7427 -0.9698
 4135TIP3    H133896   1.316   1.411  11.651 -0.9923 -0.4650  3.0465
 4135TIP3    H233897   1.173   1.443  11.613 -0.3300  0.1283  0.9584
 4136TIP3   OH233898   0.245   5.004   3.063 -0.3876 -0.3736  0.3912
 4136TIP3    H133899   0.159   5.035   3.089  0.0134  0.4136  0.8114
 4136TIP3    H233900   0.241   4.909   3.075 -0.4972 -0.1263  2.5457
 4137TIP3   OH233901   3.027   2.165  15.738  0.0393 -0.5111  0.3740
 4137TIP3    H133902   3.114   2.148  15.774 -0.4676 -0.5791  1.5919
 4137TIP3    H233903   3.036   2.249  15.694  0.6097 -0.3048  0.8718
 4138TIP3   OH233904   6.208   5.687   2.428 -0.4631 -0.0579 -0.0175
 4138TIP3    H133905   6.227   5.746   2.355 -2.8598  1.0720  0.2481
 4138TIP3    H233906   6.285   5.630   2.433  1.7699  2.8284 -0.4584
 4139TIP3   OH233907   6.411   6.341  13.421  0.2108  0.6233  0.1970
 4139TIP3    H133908   6.436   6.276  13.487 -1.7155  1.0411  1.3628
 4139TIP3    H233909   6.350   6.399  13.466 -0.0097  1.7762 -1.5535
 4140TIP3   OH233910   0.495   5.781  11.851 -0.5235  0.0970 -0.0779
 4140TIP3    H133911   0.494   5.697  11.898  0.6138  0.4739  0.6420
 4140TIP3    H233912   0.494   5.757  11.759  1.3186 -0.7617  0.1100
 4141TIP3   OH233913   5.462   1.137   2.827  0.3783  0.2668  0.1345
 4141TIP3    H133914   5.548   1.146   2.787  0.6238  0.7177  0.7622
 4141TIP3    H233915   5.421   1.064   2.780  0.8932  0.3999 -0.5253
 4142TIP3   OH233916   2.980   3.355  15.201  0.0560 -0.2836  0.3903
 4142TIP3    H133917   2.986   3.293  15.274  0.9005 -1.7556 -0.9009
 4142TIP3    H233918   3.061   3.406  15.207  0.0385 -0.2815  0.6078
 4143TIP3   OH233919   4.845   2.721  11.191  0.3220 -0.2026 -0.0388
 4143TIP3    H133920   4.881   2.809  11.179  0.3325 -0.2260 -0.1886
 4143TIP3    H233921   4.798   2.725  11.274  1.0562 -0.3019  0.3863
 4144TIP3   OH233922   1.847   5.032  15.287  0.3240 -0.1821  0.3118
 4144TIP3    H133923   1.917   5.056  15.226 -0.6845 -0.1857 -0.8735
 4144TIP3    H233924   1.843   5.105  15.349  0.3906  0.5239 -0.5025
 4145TIP3   OH233925   1.109   1.240  13.070 -0.0933  0.7675  0.3789
 4145TIP3    H133926   1.094   1.205  12.983 -2.3278  0.2478  0.9253
 4145TIP3    H233927   1.183   1.300  13.060  0.8222 -0.6235 -1.4878
 4146TIP3   OH233928   2.089   2.740  10.927 -0.3280 -0.2688 -0.3081
 4146TIP3    H133929   2.011   2.724  10.875  0.5811  1.1620 -2.1495
 4146TIP3    H233930   2.157   2.687  10.885 -0.6285 -2.8498  2.2839
 4147TIP3   OH233931   2.727   5.927  13.638 -0.0806  0.5126  0.0067
 4147TIP3    H133932   2.814   5.910  13.674 -0.3196  0.2008  0.4377
 4147TIP3    H233933   2.708   6.018  13.663 -0.4513  0.1420  1.0948
 4148TIP3   OH233934   2.378   6.533  12.243  1.1460  0.1367 -0.3469
 4148TIP3    H133935   2.366   6.627  12.231  0.2637 -0.1269 -1.5961
 4148TIP3    H233936   2.344   6.516  12.331 -1.5437  0.4871 -1.2932
 4149TIP3   OH233937   6.431   6.399   2.012  0.2940  0.2044  0.2296
 4149TIP3    H133938   6.363   6.398   2.079 -0.6257 -1.1636 -0.6885
 4149TIP3    H233939   6.493   6.332   2.040  0.9191  0.9725  0.7051
 4150TIP3   OH233940   2.400   3.641  14.175 -0.6950  0.1696 -0.2182
 4150TIP3    H133941   2.483   3.667  14.136 -1.2765  0.1716 -1.4558
 4150TIP3    H233942   2.333   3.682  14.120 -1.5168  1.3347  1.5764
 4151TIP3   OH233943   4.968   5.499  12.949 -0.2684  0.0697  0.3505
 4151TIP3    H133944   4.923   5.429  12.996 -0.4218 -0.1628 -0.1370
 4151TIP3    H233945   4.959   5.476  12.856  2.4038 -0.9459  0.2952
 4152TIP3   OH233946   4.467   4.403   5.380 -0.5846 -0.6805 -0.5259
 4152TIP3    H133947   4.416   4.463   5.326 -2.0486 -1.6211 -0.2130
 4152TIP3    H233948   4.549   4.449   5.395 -1.5433  1.0926 -0.5741
 4153TIP3   OH233949   1.096   3.023  15.438  0.0917  0.6037  0.5311
 4153TIP3    H133950   1.155   3.073  15.494  0.2157  0.0183  0.9348
 4153TIP3    H233951   1.048   2.966  15.498  1.3174 -1.1298 -0.0620
 4154TIP3   OH233952   3.544   4.261  13.928  0.3416 -0.1675  0.0242
 4154TIP3    H133953   3.577   4.174  13.948 -0.1558 -0.7114 -1.4255
 4154TIP3    H233954   3.619   4.319  13.942  2.1040 -1.4362 -3.5397
 4155TIP3   OH233955   4.444   3.551  17.053  0.2072 -0.1614 -0.2179
 4155TIP3    H133956   4.485   3.550  17.140  0.6229  0.4087 -0.4032
 4155TIP3    H233957   4.413   3.462  17.040  2.8282 -1.0442 -0.7605
 4156TIP3   OH233958   1.532   0.757   5.935  0.4930  0.0865  0.3232
 4156TIP3    H133959   1.597   0.706   5.888  0.6228 -1.3151  2.0038
 4156TIP3    H233960   1.473   0.789   5.866  1.1535 -1.2236 -0.8811
 4157TIP3   OH233961   6.683   0.290   0.343 -0.3285  0.1517  0.1956
 4157TIP3    H133962   6.658   0.373   0.304  1.1649 -0.1811 -1.5226
 4157TIP3    H233963   6.748   0.253   0.283 -1.6504 -2.6899  0.4111
 4158TIP3   OH233964   6.719   0.012  14.711  0.3739  0.2147 -0.0375
 4158TIP3    H133965   6.744   0.101  14.684  2.0053  0.0823  1.0112
 4158TIP3    H233966   6.700   0.021  14.805 -0.0954 -0.4205 -0.0739
 4159TIP3   OH233967   3.299   0.002  13.904  0.0594  0.2781 -0.0760
 4159TIP3    H133968   3.304  -0.048  13.823 -0.0980  0.6752 -0.3319
 4159TIP3    H233969   3.389   0.004  13.937 -0.1220 -1.1176  0.5164
 4160TIP3   OH233970   6.232   5.500   6.434  0.0367 -1.0537  0.3100
 4160TIP3    H133971   6.277   5.415   6.426  3.1672  0.3975  1.7395
 4160TIP3    H233972   6.293   5.555   6.482 -2.5630  1.6284  0.6762
 4161TIP3   OH233973   5.433   1.457  10.951  0.2323 -0.7801  0.4104
 4161TIP3    H133974   5.509   1.476  11.006 -0.4225  1.7617  0.5389
 4161TIP3    H233975   5.465   1.469  10.862 -0.0024  0.3277  0.4668
 4162TIP3   OH233976   4.957   5.862   2.501  0.5110 -0.1682 -0.5882
 4162TIP3    H133977   4.918   5.886   2.585  0.8806 -1.2020 -0.1092
 4162TIP3    H233978   4.916   5.779   2.479  1.1936 -0.4196 -0.9118
 4163TIP3   OH233979   2.964   4.997   1.844 -0.6859  0.3437  0.2154
 4163TIP3    H133980   2.951   4.904   1.862  1.4362 -0.3955 -1.8348
 4163TIP3    H233981   2.975   5.002   1.749  1.0358  2.4296  0.4894
 4164TIP3   OH233982   3.467   1.291   4.167  0.3576  0.2081  0.3365
 4164TIP3    H133983   3.468   1.387   4.172  1.5065  0.3290 -1.6756
 4164TIP3    H233984   3.399   1.271   4.103  0.9720 -0.2635 -0.1742
 4165TIP3   OH233985   1.960   1.535  13.736 -0.4407 -0.2805  0.0059
 4165TIP3    H133986   1.895   1.558  13.670 -0.3444 -0.5109 -0.1695
 4165TIP3    H233987   1.965   1.612  13.792 -1.7276 -0.6981  0.7174
 4166TIP3   OH233988   5.719   3.498   3.120  0.3776  0.3370 -0.7294
 4166TIP3    H133989   5.788   3.444   3.082  2.6003  1.9541  0.9118
 4166TIP3    H233990   5.713   3.469   3.211 -2.0960 -0.7195 -1.1795
 4167TIP3   OH233991   0.192   6.034   4.521  0.8613 -0.1265  0.1524
 4167TIP3    H133992   0.203   5.961   4.581  0.7447 -1.6565 -1.6189
 4167TIP3    H233993   0.158   5.994   4.441 -1.6835  2.2014 -0.0227
 4168TIP3   OH233994   2.220   0.390  12.227 -0.2782 -0.6085 -0.3138
 4168TIP3    H133995   2.303   0.346  12.209  1.0399  1.1955  1.2399
 4168TIP3    H233996   2.234   0.437  12.309 -1.6088  2.7115 -1.8779
 4169TIP3   OH233997   0.500   2.258  13.576 -0.2662  0.1726 -0.2242
 4169TIP3    H133998   0.457   2.200  13.513  0.2542  0.8694 -1.2361
 4169TIP3    H233999   0.455   2.342  13.566  0.1901  0.4374 -0.0632
 4170TIP3   OH234000   0.870   1.553  16.641  0.2480 -0.0450  0.3658
 4170TIP3    H134001   0.897   1.629  16.693  0.6571 -0.5066  0.8349
 4170TIP3    H234002   0.946   1.535  16.585 -0.4275  0.8475 -0.8685
 4171TIP3   OH234003   2.919   0.355  15.181 -0.3302  0.0334 -0.1914
 4171TIP3    H134004   2.966   0.339  15.263 -1.9371  0.8968  0.9281
 4171TIP3    H234005   2.956   0.292  15.120  2.4731  0.8663  0.5580
 4172TIP3   OH234006   0.792   0.712  11.491 -0.1933  0.0933  0.1418
 4172TIP3    H134007   0.758   0.640  11.544 -0.5646  0.7333  0.7934
 4172TIP3    H234008   0.884   0.691  11.478 -0.6737 -1.3302 -1.0842
 4173TIP3   OH234009   6.375   5.963   1.975 -0.5565  0.4596 -0.1566
 4173TIP3    H134010   6.403   5.899   1.909 -1.7223  0.5851 -0.7946
 4173TIP3    H234011   6.447   6.025   1.981  1.0759 -1.4890  1.2537
 4174TIP3   OH234012   1.164   4.327  15.409 -0.2212  0.0010  0.2165
 4174TIP3    H134013   1.075   4.337  15.441  0.0163 -0.6315  1.0822
 4174TIP3    H234014   1.182   4.410  15.363 -1.7263 -0.4176 -1.1713
 4175TIP3   OH234015   4.094   4.914   5.776 -0.2722 -0.4066  0.1734
 4175TIP3    H134016   4.034   4.850   5.812 -2.6732  2.0472  0.6690
 4175TIP3    H234017   4.119   4.968   5.851 -0.9168  1.2887 -0.8166
 4176TIP3   OH234018   4.838   3.200  13.149  0.1766 -0.4409 -0.3336
 4176TIP3    H134019   4.750   3.219  13.115  0.1779 -0.2380 -0.2240
 4176TIP3    H234020   4.859   3.113  13.114  0.9090  0.5152 -2.3248
 4177TIP3   OH234021   4.286   4.562  10.502  0.2174 -0.0528 -0.0783
 4177TIP3    H134022   4.376   4.533  10.516  0.6033  0.1513 -2.0969
 4177TIP3    H234023   4.286   4.654  10.528  0.0988 -0.5667  1.8252
 4178TIP3   OH234024   2.134   3.948  15.752 -0.0952 -0.0928 -0.6557
 4178TIP3    H134025   2.139   3.876  15.690 -0.9314 -0.6293 -0.1116
 4178TIP3    H234026   2.045   3.945  15.786  0.9496 -1.1717  2.1713
 4179TIP3   OH234027   6.318   1.332  16.571 -0.4202 -0.3528  0.0322
 4179TIP3    H134028   6.243   1.391  16.570 -0.0562  0.1088 -0.7066
 4179TIP3    H234029   6.287   1.254  16.617 -0.8732  0.4605  1.1132
 4180TIP3   OH234030   0.171   1.875   3.588  0.0347 -0.0251  0.7322
 4180TIP3    H134031   0.144   1.806   3.648  1.6781 -0.8569  0.5587
 4180TIP3    H234032   0.140   1.846   3.502 -0.3378  0.0471  0.8437
 4181TIP3   OH234033   2.842   6.057   3.725  1.0426  0.2328  0.0561
 4181TIP3    H134034   2.752   6.032   3.746  0.9573  1.3329  1.0159
 4181TIP3    H234035   2.896   5.986   3.758  0.5586 -0.2453 -0.1817
 4182TIP3   OH234036   2.541   6.103   3.751  0.3311  0.2846 -0.3723
 4182TIP3    H134037   2.523   6.039   3.682 -1.9496 -1.4006  1.7041
 4182TIP3    H234038   2.454   6.129   3.782  1.3153  1.2030  1.6582
 4183TIP3   OH234039   0.171   6.261  15.004  0.1334  0.2862 -0.1536
 4183TIP3    H134040   0.239   6.194  15.000 -0.4624 -0.3118 -0.3167
 4183TIP3    H234041   0.150   6.269  15.097 -1.2609 -1.2482 -0.3165
 4184TIP3   OH234042   0.921   6.105   4.854  0.0660  0.3269 -0.1629
 4184TIP3    H134043   0.863   6.173   4.889 -0.4625  0.0611 -0.5187
 4184TIP3    H234044   0.981   6.152   4.796 -1.2168  0.3011 -1.5371
 4185TIP3   OH234045   4.784   2.066  11.303  0.4648 -0.0308 -0.2911
 4185TIP3    H134046   4.770   2.102  11.390  0.5893 -3.9200  1.4216
 4185TIP3    H234047   4.877   2.042  11.301  0.1035 -1.4472 -0.8725
 4186TIP3   OH234048   5.330   5.558   0.292 -0.4735 -0.4077 -0.6149
 4186TIP3    H134049   5.348   5.598   0.377  0.5787 -1.3548 -0.3956
 4186TIP3    H234050   5.268   5.488   0.311 -0.2477 -0.6118 -0.6371
 4187TIP3   OH234051   0.434   1.886  11.894  0.2468 -0.3397  0.0967
 4187TIP3    H134052   0.343   1.861  11.912  0.1857  0.2372  0.6240
 4187TIP3    H234053   0.482   1.855  11.971  0.6519 -1.4922 -0.6177
 4188TIP3   OH234054   0.457   0.325   2.111  0.5167  0.5553  0.1736
 4188TIP3    H134055   0.458   0.290   2.200 -0.6705  0.3290  0.1094
 4188TIP3    H234056   0.366   0.354   2.098  0.5109 -0.0379 -1.1974
 4189TIP3   OH234057   5.337   5.546  11.428 -0.4013 -0.0820  0.7372
 4189TIP3    H134058   5.255   5.593  11.415 -0.2746 -0.1908 -0.5356
 4189TIP3    H234059   5.394   5.609  11.471 -0.4151  0.7727 -0.4553
 4190TIP3   OH234060   5.167   2.481  16.001  0.3036 -0.4126  0.3847
 4190TIP3    H134061   5.222   2.548  16.041 -1.6495  0.5094  1.6195
 4190TIP3    H234062   5.209   2.462  15.918  2.7045 -0.0512  1.4677
 4191TIP3   OH234063   2.230   2.866  12.480  0.3323  0.0041  0.1623
 4191TIP3    H134064   2.200   2.775  12.482  1.5595 -0.3912  1.6186
 4191TIP3    H234065   2.233   2.893  12.572  1.2520  1.0780 -0.1624
 4192TIP3   OH234066   5.844   0.091   1.626 -0.5924 -0.6834  0.2025
 4192TIP3    H134067   5.872   0.063   1.713 -0.7329 -1.8421 -0.1160
 4192TIP3    H234068   5.921   0.078   1.571 -0.1610  1.1096  0.3754
 4193TIP3   OH234069   6.180   2.026   3.109  0.8943 -0.2603  0.6661
 4193TIP3    H134070   6.142   2.091   3.050 -1.8538 -3.4095 -1.1988
 4193TIP3    H234071   6.254   1.990   3.060  1.2637  0.1331  0.9316
 4194TIP3   OH234072   1.284   3.290   1.368 -0.3490  0.3779  0.2283
 4194TIP3    H134073   1.212   3.228   1.381  1.6918 -2.0456  0.3383
 4194TIP3    H234074   1.259   3.366   1.420 -2.1588 -1.0005  1.4632
 4195TIP3   OH234075   3.517   4.025   2.888  0.1656  0.0777  0.1104
 4195TIP3    H134076   3.567   4.101   2.918  0.1137  1.4609 -3.0347
 4195TIP3    H234077   3.581   3.973   2.838  0.0460 -1.6485  1.7060
 4196TIP3   OH234078   2.817   2.610  13.093 -0.3728 -0.2915  0.1408
 4196TIP3    H134079   2.786   2.556  13.021 -1.0561 -1.1387  1.0642
 4196TIP3    H234080   2.894   2.564  13.127  1.0705  1.0546 -1.2068
 4197TIP3   OH234081   6.060   3.916   5.403 -0.3735  0.1014 -0.6696
 4197TIP3    H134082   6.029   3.828   5.423  1.0541 -0.3913 -0.5737
 4197TIP3    H234083   5.998   3.974   5.447 -1.7728 -0.8342 -1.3693
 4198TIP3   OH234084   6.371   6.668  13.641 -0.3337 -0.3146 -0.0122
 4198TIP3    H134085   6.322   6.698  13.717  0.8195  2.3051 -0.2290
 4198TIP3    H234086   6.439   6.611  13.677  0.6548  1.4706  1.0662
 4199TIP3   OH234087   3.897   2.919   2.397 -0.4717 -0.6902  0.3010
 4199TIP3    H134088   3.969   2.951   2.452 -2.2445  2.7016  0.7796
 4199TIP3    H234089   3.940   2.894   2.315  1.1470  2.7930 -0.0191
 4200TIP3   OH234090   0.264   1.142   5.304 -0.0617  0.5240 -0.0874
 4200TIP3    H134091   0.261   1.208   5.373 -0.9348 -0.2377  0.6257
 4200TIP3    H234092   0.253   1.059   5.351  0.7562 -0.1030 -0.9957
 4201TIP3   OH234093   2.746   3.287  13.374  0.0717 -0.3932 -0.7221
 4201TIP3    H134094   2.756   3.272  13.281  2.1390  2.4667 -1.0214
 4201TIP3    H234095   2.807   3.227  13.416  1.9480  0.9679 -1.4433
 4202TIP3   OH234096   5.576   2.024  13.847  0.2429 -0.4592  0.2212
 4202TIP3    H134097   5.649   2.062  13.896 -1.1256  0.7950  1.3530
 4202TIP3    H234098   5.571   2.077  13.767  1.0589 -1.0660 -0.2418
 4203TIP3   OH234099   0.991   4.356   5.145  0.1214  0.0874  0.5096
 4203TIP3    H134100   1.053   4.314   5.205 -0.3438 -1.9617 -0.4089
 4203TIP3    H234101   1.001   4.308   5.063 -1.3348  0.9769 -0.1937
 4204TIP3   OH234102   3.657   3.018  11.671 -0.3228  0.3965 -0.2343
 4204TIP3    H134103   3.686   2.969  11.748 -1.1410  1.2362  0.6317
 4204TIP3    H234104   3.666   3.110  11.697 -0.8805  0.6831 -1.0393
 4205TIP3   OH234105   5.189   2.326   0.241 -0.0967  0.0895  0.3817
 4205TIP3    H134106   5.172   2.399   0.300  2.0557 -0.1403  1.3304
 4205TIP3    H234107   5.282   2.306   0.253 -0.2242 -1.6331 -1.1977
 4206TIP3   OH234108   1.711   6.765   2.926 -0.5226  0.3690  0.0440
 4206TIP3    H134109   1.799   6.741   2.955  0.4058  2.1822 -1.1739
 4206TIP3    H234110   1.671   6.682   2.897  0.8790 -0.4108  0.3159
 4207TIP3   OH234111   2.624   6.792   6.329  0.3447  0.1866 -0.0883
 4207TIP3    H134112   2.717   6.785   6.350  0.9256 -1.2555 -2.8553
 4207TIP3    H234113   2.580   6.781   6.413  2.6106 -1.4125  0.9610
 4208TIP3   OH234114   2.582   3.077  12.310 -0.0010  0.1556  0.4005
 4208TIP3    H134115   2.634   3.148  12.348  1.1684 -1.2049  1.4058
 4208TIP3    H234116   2.526   3.048  12.383 -0.7952  0.3346 -0.1331
 4209TIP3   OH234117   5.935   4.514   0.933 -0.2129 -0.6398 -0.5094
 4209TIP3    H134118   5.987   4.592   0.951 -1.9475 -0.1016  2.4704
 4209TIP3    H234119   5.860   4.546   0.884  0.2493 -0.8417 -1.3749
 4210TIP3   OH234120   0.210   6.617   0.412 -0.2673  0.4859 -0.4653
 4210TIP3    H134121   0.280   6.681   0.421  0.3381 -0.4553  1.9239
 4210TIP3    H234122   0.131   6.663   0.440  0.2285  0.1195  1.6272
 4211TIP3   OH234123   2.975   6.590  15.623  0.0397 -0.8821 -0.2698
 4211TIP3    H134124   3.054   6.628  15.583 -0.2972  1.0809  0.8699
 4211TIP3    H234125   3.008   6.543  15.700  0.0403  0.6664  0.7017
 4212TIP3   OH234126   6.448   6.042   1.038  0.4458  0.3514  1.1048
 4212TIP3    H134127   6.452   6.129   1.077 -1.7335  0.6252  0.7702
 4212TIP3    H234128   6.452   5.982   1.112  2.3705  0.6989  1.3129
 4213TIP3   OH234129   0.228   1.149   1.741 -0.1853  0.5504  0.2605
 4213TIP3    H134130   0.324   1.146   1.748  0.0078  1.9728 -1.4209
 4213TIP3    H234131   0.199   1.187   1.824  0.5773 -1.4592  1.4724
 4214TIP3   OH234132   5.924   3.888  14.320 -0.2777 -0.5391 -0.3660
 4214TIP3    H134133   5.934   3.836  14.240  0.2263 -2.2105  0.7735
 4214TIP3    H234134   5.831   3.884  14.341 -0.0765 -1.8238  0.2817
 4215TIP3   OH234135   4.683   4.735   1.649 -0.2666  0.6218 -0.7527
 4215TIP3    H134136   4.713   4.814   1.694 -0.1154 -0.7173  1.5707
 4215TIP3    H234137   4.749   4.720   1.581  1.2541  0.9384  0.6134
 4216TIP3   OH234138   5.153   0.718  13.215 -0.7076 -0.6407  0.7796
 4216TIP3    H134139   5.128   0.794  13.162 -1.7490 -0.6509  1.2567
 4216TIP3    H234140   5.188   0.655  13.152  1.7680  0.8808  0.5599
 4217TIP3   OH234141   0.394   1.083  16.684 -0.4711 -0.3418 -0.0260
 4217TIP3    H134142   0.407   0.996  16.647 -1.5377 -0.7763  0.5862
 4217TIP3    H234143   0.397   1.070  16.779 -0.5473  0.2973  0.0668
 4218TIP3   OH234144   2.764   4.541  14.273 -0.2286  1.0517  0.3607
 4218TIP3    H134145   2.791   4.552  14.364 -1.2418  1.5825  0.6100
 4218TIP3    H234146   2.758   4.446  14.262  2.2804  0.8881  0.1076
 4219TIP3   OH234147   6.435   3.511   1.127  0.3804 -0.3503  0.0901
 4219TIP3    H134148   6.415   3.437   1.070 -0.9769  1.2212 -1.5344
 4219TIP3    H234149   6.509   3.554   1.084 -0.2930  0.5219 -0.2141
 4220TIP3   OH234150   4.651   0.720   1.082  0.3856  0.0490  0.1523
 4220TIP3    H134151   4.564   0.735   1.045  0.3165 -1.7960 -0.4454
 4220TIP3    H234152   4.709   0.718   1.007  0.4349 -2.3445  0.2259
 4221TIP3   OH234153   0.621   1.893   5.419  0.2144  0.0973 -0.0309
 4221TIP3    H134154   0.634   1.861   5.329  1.3874 -0.9319  0.4942
 4221TIP3    H234155   0.600   1.815   5.469 -1.0613  0.7652  0.4876
 4222TIP3   OH234156   6.273   3.024  16.315 -0.0237 -0.4526 -0.3339
 4222TIP3    H134157   6.220   3.082  16.369  0.3938  0.0285 -0.4444
 4222TIP3    H234158   6.363   3.053  16.329  0.1365 -0.7096 -0.8283
 4223TIP3   OH234159   6.419   3.997  16.611  0.0370 -0.5222 -0.4984
 4223TIP3    H134160   6.423   3.960  16.522  1.3672 -0.0187 -0.6635
 4223TIP3    H234161   6.333   4.037  16.616  0.6208  1.0228 -2.2195
 4224TIP3   OH234162   6.690   6.178  12.201  0.1989  0.1397  0.6059
 4224TIP3    H134163   6.676   6.250  12.263 -2.1441  0.2802 -0.0557
 4224TIP3    H234164   6.749   6.215  12.135 -2.4382  2.1199 -0.7484
 4225TIP3   OH234165   3.769   6.154   4.096  0.0839  0.0102  0.3741
 4225TIP3    H134166   3.803   6.121   4.013 -0.6099 -0.9832  0.4827
 4225TIP3    H234167   3.839   6.135   4.159 -1.0835 -3.0798  0.8228
 4226TIP3   OH234168   0.559   2.166  17.221  0.4384  0.1235 -0.1556
 4226TIP3    H134169   0.518   2.082  17.199  2.0221 -1.0964  1.4056
 4226TIP3    H234170   0.494   2.232  17.195 -1.0946 -1.6102 -0.8287
 4227TIP3   OH234171   4.483   6.549  12.161  0.4023 -0.2407 -0.0913
 4227TIP3    H134172   4.445   6.462  12.151  0.4366 -0.1644 -0.9985
 4227TIP3    H234173   4.409   6.606  12.183  0.5161 -0.6407  1.3077
 4228TIP3   OH234174   5.820   1.247  13.517 -0.1824 -0.1399  0.2984
 4228TIP3    H134175   5.860   1.205  13.593  0.3535 -0.2263 -0.0323
 4228TIP3    H234176   5.873   1.325  13.502  1.3900 -1.5292 -1.6490
 4229TIP3   OH234177   5.885   1.837   4.473 -0.0158  0.5857 -0.3403
 4229TIP3    H134178   5.916   1.774   4.538 -0.1689 -0.1963 -1.0078
 4229TIP3    H234179   5.885   1.921   4.518  2.1370  0.4509 -0.0520
 4230TIP3   OH234180   5.432   3.815   6.201 -0.5768 -0.1518  0.0276
 4230TIP3    H134181   5.415   3.737   6.254  1.7981 -0.9209 -0.3054
 4230TIP3    H234182   5.357   3.873   6.219 -2.0477 -2.2325  0.7506
 4231TIP3   OH234183   0.358   5.303   4.311 -0.0607 -0.2086  0.2733
 4231TIP3    H134184   0.305   5.286   4.233 -0.2051 -0.1321  0.3549
 4231TIP3    H234185   0.358   5.398   4.320 -1.2900 -0.2828  1.2260
 4232TIP3   OH234186   3.680   2.843  16.845  0.0840 -0.5642  0.0376
 4232TIP3    H134187   3.644   2.924  16.811 -1.1542 -2.1028 -2.4274
 4232TIP3    H234188   3.774   2.858  16.849 -0.1562  1.0367 -0.1858
 4233TIP3   OH234189   2.133   0.838  16.297  0.2463  0.2210  0.5491
 4233TIP3    H134190   2.225   0.859  16.285  0.9611 -1.6542  2.4591
 4233TIP3    H234191   2.089   0.879  16.222  2.4728  1.9727  0.1555
 4234TIP3   OH234192   4.707   2.382   5.309 -0.2015  0.8657 -0.1589
 4234TIP3    H134193   4.745   2.331   5.380  0.7786  2.3938  0.4411
 4234TIP3    H234194   4.782   2.412   5.258 -0.7834  1.4792 -0.6624
 4235TIP3   OH234195   4.631   1.191   4.536  0.4290 -0.1923 -0.6299
 4235TIP3    H134196   4.647   1.112   4.588 -0.8973 -1.1697 -1.6788
 4235TIP3    H234197   4.656   1.167   4.447 -0.7579  0.3106 -1.1094
 4236TIP3   OH234198   6.383   2.721   1.452  0.4794  0.2297  0.0476
 4236TIP3    H134199   6.396   2.626   1.454 -0.8042  0.0582  2.8148
 4236TIP3    H234200   6.469   2.757   1.475  1.1255 -0.2148 -1.5920
 4237TIP3   OH234201   0.412   0.209  17.104 -0.6224  0.7382  0.7764
 4237TIP3    H134202   0.369   0.127  17.082 -0.9378  0.8556  0.9469
 4237TIP3    H234203   0.505   0.187  17.109 -0.6684  0.4699  0.4699
 4238TIP3   OH234204   4.609   4.109  15.635 -0.4960 -1.1479 -0.0853
 4238TIP3    H134205   4.692   4.094  15.680 -0.7874 -3.0718 -0.1175
 4238TIP3    H234206   4.545   4.120  15.705 -0.1913  0.5025 -0.0614
 4239TIP3   OH234207   0.542   3.608  10.391  0.8233 -0.3824 -0.5109
 4239TIP3    H134208   0.624   3.558  10.394  0.0043 -1.6554  2.8999
 4239TIP3    H234209   0.479   3.549  10.349  1.3450  0.1904 -2.1446
 4240TIP3   OH234210   1.796   1.597   2.481  0.7200 -0.4480 -0.2871
 4240TIP3    H134211   1.768   1.615   2.391  0.0831  0.1938  0.0241
 4240TIP3    H234212   1.868   1.658   2.496  1.5903 -1.3544 -0.7350
 4241TIP3   OH234213   1.590   2.760   3.843  0.0256 -0.1145 -0.1444
 4241TIP3    H134214   1.572   2.669   3.822  0.9355  0.0376 -1.7261
 4241TIP3    H234215   1.602   2.762   3.937 -1.7436 -1.3167  0.1347
 4242TIP3   OH234216   5.061   2.003   1.832  0.3652  0.2084 -0.5553
 4242TIP3    H134217   4.978   1.958   1.816  0.6414 -0.4974 -0.0097
 4242TIP3    H234218   5.046   2.052   1.913  0.0873  1.0669 -1.1093
 4243TIP3   OH234219   6.294   3.390  15.380 -0.1029  0.3227 -0.4286
 4243TIP3    H134220   6.301   3.438  15.463  0.7831 -0.0934 -0.2520
 4243TIP3    H234221   6.329   3.450  15.315  0.9201 -0.0458 -0.2219
 4244TIP3   OH234222   1.658   1.000   4.421 -0.7924  0.3947 -0.5539
 4244TIP3    H134223   1.586   1.044   4.377 -0.9192  0.8827  0.1273
 4244TIP3    H234224   1.616   0.943   4.485 -0.5933  0.1499 -0.6405
 4245TIP3   OH234225   3.927   2.855  12.307  0.0203  0.2420  0.4158
 4245TIP3    H134226   3.875   2.777  12.288  1.2554  0.1298 -2.8705
 4245TIP3    H234227   3.865   2.928  12.299  0.1559  0.0773 -3.0591
 4246TIP3   OH234228   4.892   3.411   4.362 -0.7417 -0.2910 -0.6928
 4246TIP3    H134229   4.903   3.325   4.323 -2.7694 -0.4447 -1.0022
 4246TIP3    H234230   4.823   3.453   4.310  0.4264  1.6477 -0.7472
 4247TIP3   OH234231   0.263   4.989   4.922 -0.1708  0.2539 -0.2002
 4247TIP3    H134232   0.282   5.073   4.881 -0.3880 -0.4313 -1.7521
 4247TIP3    H234233   0.180   4.961   4.883 -0.5756 -0.2542  0.9923
 4248TIP3   OH234234   2.646   1.570   6.561 -0.0455  1.0138  0.7114
 4248TIP3    H134235   2.593   1.522   6.625 -1.3519  2.2222  0.5515
 4248TIP3    H234236   2.673   1.650   6.607 -1.2651  2.0492 -0.3389
 4249TIP3   OH234237   1.000   2.364  12.760  0.2220  0.0609 -0.3021
 4249TIP3    H134238   0.942   2.288  12.760 -0.1054  0.2916  0.9580
 4249TIP3    H234239   0.989   2.402  12.847  1.6684  0.5648 -0.3214
 4250TIP3   OH234240   2.206   6.720  10.641 -0.0889 -0.4201  0.1639
 4250TIP3    H134241   2.220   6.650  10.578 -1.9279 -0.3471 -0.3667
 4250TIP3    H234242   2.285   6.774  10.635  0.3760 -1.2184 -1.0258
 4251TIP3   OH234243   0.532   5.802   0.276 -0.2016  0.5327  0.5320
 4251TIP3    H134244   0.565   5.794   0.365 -0.5992 -1.5454  0.5129
 4251TIP3    H234245   0.579   5.735   0.227 -0.3430  1.3359 -0.7144
 4252TIP3   OH234246   4.219   4.170   0.715  0.0946  0.3602 -0.4421
 4252TIP3    H134247   4.158   4.170   0.641  0.4980  0.2208 -0.7780
 4252TIP3    H234248   4.167   4.139   0.789  0.1207 -1.1589 -1.0358
 4253TIP3   OH234249   6.065   2.905   2.688  0.2756  0.0132 -0.5402
 4253TIP3    H134250   6.143   2.861   2.654  0.2040  0.2444 -1.0127
 4253TIP3    H234251   5.993   2.867   2.637  0.0698 -0.2404 -0.0665
 4254TIP3   OH234252   4.082   1.580   3.861 -0.2571 -0.6196  0.1246
 4254TIP3    H134253   4.064   1.566   3.954 -1.8674 -1.6369 -0.3074
 4254TIP3    H234254   4.064   1.495   3.820  3.2585 -1.0281 -0.7560
 4255TIP3   OH234255   5.152   4.253  11.760 -0.1680  0.0703  0.0863
 4255TIP3    H134256   5.104   4.223  11.683 -0.1848 -0.6134  0.3676
 4255TIP3    H234257   5.214   4.183  11.779  0.7367  0.8078 -0.0820
 4256TIP3   OH234258   5.558   1.553  10.706  0.4858  0.0398  0.0086
 4256TIP3    H134259   5.525   1.640  10.682 -0.9774 -0.3618  0.5196
 4256TIP3    H234260   5.630   1.571  10.767  0.6511  0.9133 -0.4395
 4257TIP3   OH234261   6.424   6.366   4.621  0.3305 -0.7860 -0.2469
 4257TIP3    H134262   6.389   6.403   4.540 -1.1226 -0.1453  0.6611
 4257TIP3    H234263   6.478   6.293   4.592 -0.1716 -0.5672 -1.7911
 4258TIP3   OH234264   3.231   6.586  12.538  0.1842  0.2468 -0.1047
 4258TIP3    H134265   3.210   6.679  12.527 -1.7287  0.0333  1.3788
 4258TIP3    H234266   3.265   6.579  12.627  0.5479 -0.4463 -0.2921
 4259TIP3   OH234267   2.541   4.383   0.254  0.8646  0.0072  0.1169
 4259TIP3    H134268   2.506   4.365   0.341 -1.6854  0.6946 -0.7210
 4259TIP3    H234269   2.533   4.478   0.244 -3.1340 -0.5108 -2.5494
 4260TIP3   OH234270   3.434   6.599   4.516  0.1250 -0.3283 -0.3552
 4260TIP3    H134271   3.422   6.504   4.512 -2.0087 -0.1247  0.2336
 4260TIP3    H234272   3.510   6.616   4.461 -0.7264 -2.1533 -2.1587
 4261TIP3   OH234273   0.357   1.170   0.753 -0.2607  0.4710 -0.5236
 4261TIP3    H134274   0.268   1.179   0.786 -0.3042  1.0440 -0.7967
 4261TIP3    H234275   0.362   1.233   0.681  0.5605  0.8871 -0.1050
 4262TIP3   OH234276   2.914   6.250  14.232  0.8569  0.4933 -0.0617
 4262TIP3    H134277   2.885   6.226  14.320  1.5618 -0.0840  0.0205
 4262TIP3    H234278   2.965   6.174  14.202 -0.3734  0.1906 -1.4328
 4263TIP3   OH234279   2.118   5.077   3.400 -0.0382  0.6130 -0.4181
 4263TIP3    H134280   2.169   4.999   3.421 -1.3237  0.2178  1.3095
 4263TIP3    H234281   2.039   5.044   3.358 -0.5259  0.9848  0.1981
 4264TIP3   OH234282   5.507   0.485  14.887 -0.2670 -0.2973  0.7057
 4264TIP3    H134283   5.427   0.513  14.931 -1.0519 -0.3338 -0.6771
 4264TIP3    H234284   5.482   0.407  14.839  1.1084 -1.4960  1.8714
 4265TIP3   OH234285   3.136   6.010  16.375  0.6390  0.0071 -0.0746
 4265TIP3    H134286   3.092   6.035  16.294  0.2944  1.4137  0.5231
 4265TIP3    H234287   3.125   5.915  16.381 -0.8490  0.1243 -0.7914
 4266TIP3   OH234288   5.080   5.648  14.146  0.5330 -0.3445  0.2473
 4266TIP3    H134289   5.159   5.624  14.195  2.3182  0.3953 -2.1634
 4266TIP3    H234290   5.110   5.657  14.056 -2.5045 -0.8144 -0.8516
 4267TIP3   OH234291   3.120   6.235  15.229  0.1920  0.0126  0.0450
 4267TIP3    H134292   3.202   6.283  15.239  1.6432 -2.4903  0.4712
 4267TIP3    H234293   3.053   6.298  15.255  1.9130  2.2188 -0.6275
 4268TIP3   OH234294   0.718   2.567  15.707  0.2029 -0.7816 -0.2095
 4268TIP3    H134295   0.724   2.609  15.793  0.6961 -0.3969 -0.4342
 4268TIP3    H234296   0.807   2.570  15.673  0.0120 -0.9772 -0.7215
 4269TIP3   OH234297   4.753   4.049   5.327 -0.0725 -0.3732  0.0502
 4269TIP3    H134298   4.840   4.079   5.354  0.0973  1.2584 -2.1185
 4269TIP3    H234299   4.743   4.084   5.238 -3.1564 -0.0432  0.4775
 4270TIP3   OH234300   4.368   5.340  16.296  0.0179 -0.8366  0.0803
 4270TIP3    H134301   4.450   5.387  16.286 -0.3322 -0.1378  0.4023
 4270TIP3    H234302   4.320   5.357  16.215  0.7321 -2.3526 -0.6773
 4271TIP3   OH234303   4.604   5.512  12.531  0.6600 -0.4651  0.4962
 4271TIP3    H134304   4.642   5.578  12.590 -0.1624  0.4861 -0.0227
 4271TIP3    H234305   4.665   5.507  12.458 -0.3515  1.3118 -0.5017
 4272TIP3   OH234306   2.633   1.613  15.302  0.8176  0.4813 -0.2022
 4272TIP3    H134307   2.567   1.593  15.236  0.5646 -0.2585  0.2673
 4272TIP3    H234308   2.692   1.537  15.301  1.6825  1.1527 -0.6445
 4273TIP3   OH234309   3.386   0.964   5.178 -0.0615  0.5549  0.5562
 4273TIP3    H134310   3.301   0.977   5.135 -0.3976  0.6864  1.2514
 4273TIP3    H234311   3.370   0.892   5.239  1.3372 -2.0698 -2.0534
 4274TIP3   OH234312   0.695   2.789   1.066  0.4725 -0.0406 -0.1834
 4274TIP3    H134313   0.731   2.701   1.054  0.7409  0.1928 -1.1385
 4274TIP3    H234314   0.771   2.843   1.085  0.3780  0.0952 -0.1975
 4275TIP3   OH234315   3.653   2.651   2.743  0.5136 -0.5081 -0.1858
 4275TIP3    H134316   3.576   2.698   2.776 -0.5812 -2.0361 -0.4757
 4275TIP3    H234317   3.671   2.692   2.658 -0.6911 -0.8833 -0.6379
 4276TIP3   OH234318   2.224   2.138  10.811  0.1642 -0.1421 -0.3657
 4276TIP3    H134319   2.299   2.119  10.755  0.2050  1.6293 -0.9315
 4276TIP3    H234320   2.167   2.061  10.802  0.9735 -0.6186 -1.4963
 4277TIP3   OH234321   4.923   5.757   1.582  0.4426  0.1836  0.6090
 4277TIP3    H134322   4.967   5.830   1.624  0.2977  1.2889 -1.0976
 4277TIP3    H234323   4.832   5.785   1.573  0.0906 -0.7687  1.2046
 4278TIP3   OH234324   1.970   1.818   2.509 -0.3042 -0.0077  0.3445
 4278TIP3    H134325   2.048   1.852   2.465  0.6284 -0.7600  1.3731
 4278TIP3    H234326   1.978   1.849   2.599 -1.5686  0.5061  0.2836
 4279TIP3   OH234327   1.917   4.559  12.913 -0.5071  0.1706 -0.1438
 4279TIP3    H134328   1.855   4.495  12.878 -0.1138  0.2614 -1.0133
 4279TIP3    H234329   1.981   4.506  12.961 -0.8505  0.0177  0.1482
 4280TIP3   OH234330   2.308   1.206  12.349  0.1738  0.1647  0.3864
 4280TIP3    H134331   2.355   1.144  12.405 -0.8992  0.2920  1.4522
 4280TIP3    H234332   2.309   1.288  12.399  1.3746  0.9418 -0.9097
 4281TIP3   OH234333   3.067   5.226   2.626 -0.1784  0.2757  0.0829
 4281TIP3    H134334   3.062   5.169   2.549 -0.7882  1.6549 -0.9193
 4281TIP3    H234335   3.124   5.179   2.687 -1.1115 -1.6604 -0.4907
 4282TIP3   OH234336   3.095   4.061   4.886  0.5958 -0.2318  0.3105
 4282TIP3    H134337   3.155   4.042   4.814 -2.2497 -1.8290 -1.7314
 4282TIP3    H234338   3.094   4.156   4.893  1.0000 -0.0664 -1.6798
 4283TIP3   OH234339   6.756   5.346  14.192 -0.4976  0.6396 -0.4605
 4283TIP3    H134340   6.686   5.293  14.153 -0.4980  0.1900  0.1437
 4283TIP3    H234341   6.744   5.433  14.155 -1.2754  0.5237 -0.4915
 4284TIP3   OH234342   6.809   3.683   1.287  0.4788 -0.0074 -0.1237
 4284TIP3    H134343   6.735   3.645   1.336 -0.0700 -0.0370 -0.9653
 4284TIP3    H234344   6.863   3.607   1.264  0.6718 -0.0078  0.3147
 4285TIP3   OH234345   3.415   2.869   5.198  0.1385 -0.2496  0.1407
 4285TIP3    H134346   3.416   2.958   5.164  1.3222  0.2620  1.4607
 4285TIP3    H234347   3.347   2.825   5.148  2.9984 -0.0563 -4.1794
 4286TIP3   OH234348   5.958   2.635   2.923  0.3102 -0.1285 -0.3612
 4286TIP3    H134349   5.926   2.556   2.878  0.1643 -1.2609  1.6480
 4286TIP3    H234350   6.053   2.626   2.922  0.2737 -0.7015  0.4638
 4287TIP3   OH234351   3.721   4.828   3.193 -0.3985  0.5528  0.0716
 4287TIP3    H134352   3.664   4.780   3.253  1.8986 -0.9363  1.1302
 4287TIP3    H234353   3.806   4.785   3.201  0.3217  1.2801 -3.1803
 4288TIP3   OH234354   1.940   4.642   5.479 -0.1525 -0.7704 -1.0980
 4288TIP3    H134355   1.926   4.554   5.446 -2.2799 -1.3837  1.2294
 4288TIP3    H234356   2.010   4.633   5.544  1.1732 -0.3258 -2.4561
 4289TIP3   OH234357   2.218   0.765   4.416 -0.2190  0.3404 -0.0970
 4289TIP3    H134358   2.141   0.728   4.373 -0.8178  2.1695 -0.6547
 4289TIP3    H234359   2.286   0.762   4.349 -0.4781  0.9251 -0.3924
 4290TIP3   OH234360   5.027   1.462   0.836  0.2041  0.2164 -0.7607
 4290TIP3    H134361   5.105   1.454   0.891  0.1913 -0.6088 -0.8546
 4290TIP3    H234362   5.042   1.400   0.764 -0.4907  0.1343 -0.8358
 4291TIP3   OH234363   0.210   0.260  13.858 -0.2063 -0.8294 -0.5134
 4291TIP3    H134364   0.242   0.317  13.788  2.6852 -1.2374  0.4108
 4291TIP3    H234365   0.242   0.300  13.939  0.5211 -2.8441  0.2400
 4292TIP3   OH234366   5.108   6.816  17.227 -0.2093 -0.3265 -0.3959
 4292TIP3    H134367   5.052   6.862  17.290  0.3074 -0.3591  0.0924
 4292TIP3    H234368   5.048   6.786  17.159 -0.3998  2.1573 -1.3850
 4293TIP3   OH234369   1.906   2.615   1.935  0.3033  0.8852  0.0585
 4293TIP3    H134370   1.958   2.671   1.878  0.7649 -0.1185 -0.5171
 4293TIP3    H234371   1.970   2.570   1.990 -0.1297  1.7130  1.2562
 4294TIP3   OH234372   3.690   2.767   1.589 -0.2776  0.2693 -0.3401
 4294TIP3    H134373   3.717   2.677   1.569  1.2816  0.5785  0.3358
 4294TIP3    H234374   3.627   2.788   1.520  0.8274 -0.6564 -1.6698
 4295TIP3   OH234375   2.320   0.232  15.837 -0.2492 -0.5780 -0.4710
 4295TIP3    H134376   2.354   0.220  15.748 -1.2845 -1.2667 -0.7826
 4295TIP3    H234377   2.245   0.290  15.826  1.4501  1.8633  0.3548
 4296TIP3   OH234378   0.411   6.040  16.963 -0.2196 -0.4898  0.1078
 4296TIP3    H134379   0.344   6.097  16.926 -0.2436 -0.3136  0.4202
 4296TIP3    H234380   0.432   6.080  17.047 -0.1388 -0.8657  0.2687
 4297TIP3   OH234381   3.256   0.026  12.460 -0.0368  0.5480  0.6848
 4297TIP3    H134382   3.224   0.108  12.421 -1.0764  0.0220  0.4146
 4297TIP3    H234383   3.343   0.015  12.423 -1.0591 -0.0243 -1.6569
 4298TIP3   OH234384   3.563   2.348  17.082 -0.1863 -0.3508 -0.1800
 4298TIP3    H134385   3.649   2.388  17.099  0.0879 -0.0509 -2.1651
 4298TIP3    H234386   3.582   2.274  17.025 -0.9480 -2.0788  1.7312
 4299TIP3   OH234387   3.426   5.912  16.316  0.6097  0.0657  0.5915
 4299TIP3    H134388   3.440   5.971  16.390  0.4344  1.0880 -0.1791
 4299TIP3    H234389   3.500   5.851  16.319  0.2352 -0.3344  2.0106
 4300TIP3   OH234390   5.237   3.493   6.574  0.4264  0.0310  0.2724
 4300TIP3    H134391   5.223   3.399   6.579  0.3077  0.1200  1.6943
 4300TIP3    H234392   5.177   3.530   6.639  2.2949  0.9099  1.5218
 4301TIP3   OH234393   5.420   1.656  14.065 -0.0499 -0.1176 -0.2039
 4301TIP3    H134394   5.463   1.741  14.059 -0.2735  0.0706  0.7581
 4301TIP3    H234395   5.327   1.677  14.077 -0.1388 -0.5005 -0.2179
 4302TIP3   OH234396   1.679   5.245  17.255 -0.6459  0.5876 -0.0293
 4302TIP3    H134397   1.595   5.252  17.301  0.2760  1.6976  1.5562
 4302TIP3    H234398   1.698   5.334  17.226  0.1142  0.3937 -0.1302
 4303TIP3   OH234399   4.405   3.055  11.610 -0.3748 -0.2189 -0.4331
 4303TIP3    H134400   4.335   2.992  11.630 -0.3837 -0.8513 -2.3177
 4303TIP3    H234401   4.472   3.038  11.675 -1.3733 -0.5907  0.5143
 4304TIP3   OH234402   4.635   2.148   1.259 -0.0089 -0.5036  0.3585
 4304TIP3    H134403   4.649   2.127   1.352 -0.3358 -1.4147  0.2027
 4304TIP3    H234404   4.616   2.064   1.218 -0.2225 -0.0496 -0.4752
 4305TIP3   OH234405   6.009   4.668  16.954  0.5184  0.4599  0.3064
 4305TIP3    H134406   5.947   4.672  16.881  1.1825  3.9577 -0.1368
 4305TIP3    H234407   5.999   4.752  16.999  1.7911 -0.7151  2.8800
 4306TIP3   OH234408   5.718   2.329  14.818  0.3259 -0.5004  0.7950
 4306TIP3    H134409   5.743   2.311  14.908  2.6713 -0.7219  0.1361
 4306TIP3    H234410   5.763   2.411  14.796 -1.1073  0.1484  0.1570
 4307TIP3   OH234411   5.717   5.641  11.870 -0.1708  0.4137  0.8106
 4307TIP3    H134412   5.811   5.620  11.867 -0.1872  0.4373 -0.2577
 4307TIP3    H234413   5.677   5.580  11.807 -0.5373  2.0406 -0.5540
 4308TIP3   OH234414   5.075   4.405   6.034 -0.3407 -0.5368  0.8495
 4308TIP3    H134415   4.997   4.393   5.980 -0.2101 -0.7589  0.7094
 4308TIP3    H234416   5.101   4.316   6.058  1.5951 -0.6698 -1.5556
 4309TIP3   OH234417   3.869   0.728  14.976 -0.0599 -0.1016 -0.6224
 4309TIP3    H134418   3.937   0.678  14.931  0.0950  1.9271 -2.7580
 4309TIP3    H234419   3.810   0.756  14.906 -0.9896  1.3622  0.7133
 4310TIP3   OH234420   1.261   3.083   0.572  0.6956 -0.5477 -0.1026
 4310TIP3    H134421   1.223   3.071   0.485  0.7709 -0.9055 -0.0839
 4310TIP3    H234422   1.257   3.178   0.587  1.0086 -0.4522 -0.6405
 4311TIP3   OH234423   4.902   2.084  16.530  0.3399 -0.2046 -0.1890
 4311TIP3    H134424   4.844   2.123  16.465  1.3155  0.2729 -0.8065
 4311TIP3    H234425   4.882   2.130  16.611  0.7110  0.8327 -0.6746
 4312TIP3   OH234426   4.465   6.466  16.942  0.2874 -0.5611 -0.7070
 4312TIP3    H134427   4.473   6.372  16.925 -0.7393 -0.3022 -2.7168
 4312TIP3    H234428   4.410   6.472  17.020  4.1609 -1.7364  2.2611
 4313TIP3   OH234429   3.358   4.287   6.288  0.1123  0.3109 -0.1352
 4313TIP3    H134430   3.365   4.206   6.237 -0.7431  0.1934 -0.0688
 4313TIP3    H234431   3.371   4.356   6.223 -1.3794  0.1728 -0.6057
 4314TIP3   OH234432   2.454   2.621  12.528  0.0619  0.0208  0.5480
 4314TIP3    H134433   2.443   2.715  12.542  0.2000  0.2019 -0.5185
 4314TIP3    H234434   2.367   2.588  12.508  0.3124  0.2835 -1.0890
 4315TIP3   OH234435   2.788   4.848   5.764  0.2622 -0.0927  0.3486
 4315TIP3    H134436   2.722   4.917   5.757  0.7718  0.1729 -2.7854
 4315TIP3    H234437   2.751   4.786   5.826 -3.0775 -0.0624 -1.4762
 4316TIP3   OH234438   0.808   3.043  11.372  0.0602 -0.6682 -0.2026
 4316TIP3    H134439   0.719   3.076  11.374 -0.1068 -1.1422  0.2873
 4316TIP3    H234440   0.841   3.068  11.286  0.3133  1.7304  0.5322
 4317TIP3   OH234441   0.580   3.204  11.368  0.1234  0.1539  0.2973
 4317TIP3    H134442   0.533   3.186  11.449 -0.5934 -0.4375 -0.2495
 4317TIP3    H234443   0.556   3.294  11.346  0.5589  0.4195  0.9028
 4318TIP3   OH234444   2.801   2.197   1.455  0.3166  0.4310 -0.8861
 4318TIP3    H134445   2.839   2.177   1.369 -2.8625  0.6824 -2.4100
 4318TIP3    H234446   2.727   2.136   1.463  0.6597  0.3156  1.7582
 4319TIP3   OH234447   3.161   6.153  10.419 -0.1845 -0.2643  0.0068
 4319TIP3    H134448   3.223   6.203  10.367  0.4529  0.2902  1.2912
 4319TIP3    H234449   3.124   6.216  10.481 -1.7839 -0.6613 -0.5250
 4320TIP3   OH234450   3.258   4.302  14.655 -0.4210 -0.2459 -0.7511
 4320TIP3    H134451   3.313   4.344  14.721  1.1256  0.9641 -2.7545
 4320TIP3    H234452   3.176   4.352  14.656  0.3657  1.0720 -1.1461
 4321TIP3   OH234453   5.593   0.802   2.983  0.9490  0.7290  0.2966
 4321TIP3    H134454   5.648   0.834   3.055  0.8043 -0.8668  1.1395
 4321TIP3    H234455   5.554   0.722   3.016 -2.2682  2.0402 -0.1284
 4322TIP3   OH234456   1.194   0.660  13.269 -0.0630  0.5948  0.2361
 4322TIP3    H134457   1.203   0.583  13.326  2.2145 -1.2968 -2.5475
 4322TIP3    H234458   1.100   0.679  13.269 -0.5044 -1.3967  1.9479
 4323TIP3   OH234459   2.310   6.800  12.198 -0.2813 -0.2814  0.5623
 4323TIP3    H134460   2.371   6.816  12.127 -1.2063 -1.3015 -0.4935
 4323TIP3    H234461   2.237   6.859  12.181  0.0348  0.3396  1.3488
 4324TIP3   OH234462   5.714   6.428   3.744  0.0205  0.1524  0.0891
 4324TIP3    H134463   5.637   6.379   3.771 -1.6130  2.8451  0.5200
 4324TIP3    H234464   5.786   6.388   3.793 -1.6612 -0.1563  2.4118
 4325TIP3   OH234465   1.585   6.633   1.249  0.0304 -0.4163 -0.3321
 4325TIP3    H134466   1.526   6.693   1.203 -0.6516  0.1400  1.2311
 4325TIP3    H234467   1.644   6.691   1.298  0.6500 -1.0044 -0.3801
 4326TIP3   OH234468   2.785   5.047   0.062 -0.3405  0.1047 -0.4145
 4326TIP3    H134469   2.869   5.074   0.100 -0.5702  1.2286 -0.6991
 4326TIP3    H234470   2.740   5.002   0.134  0.6620 -0.8842 -0.3781
 4327TIP3   OH234471   0.162   0.725  11.413  0.1703 -0.5552 -0.4616
 4327TIP3    H134472   0.145   0.673  11.492  2.7815  0.7845  1.0448
 4327TIP3    H234473   0.085   0.780  11.404  0.1118 -0.2394  1.5844
 4328TIP3   OH234474   3.988   4.710   3.320 -0.5583  0.3519  0.2258
 4328TIP3    H134475   3.973   4.657   3.242 -2.4207  0.6693  0.3519
 4328TIP3    H234476   4.073   4.680   3.353 -0.6037 -1.0626 -0.8828
 4329TIP3   OH234477   3.397   6.548   6.350 -0.1363  0.1779 -0.2537
 4329TIP3    H134478   3.377   6.510   6.265  1.4478  2.8372 -1.8846
 4329TIP3    H234479   3.486   6.519   6.369  0.0159  0.7169 -0.1415
 4330TIP3   OH234480   1.487   2.642   2.652  0.0491  0.1440 -0.1194
 4330TIP3    H134481   1.404   2.646   2.700  0.1382  1.6018 -0.0810
 4330TIP3    H234482   1.536   2.718   2.682  1.2058 -0.4246 -0.5271
 4331TIP3   OH234483   4.133   4.973  12.805 -0.0569  0.0670  0.0478
 4331TIP3    H134484   4.105   4.885  12.778 -0.2110  0.6096 -1.6185
 4331TIP3    H234485   4.054   5.026  12.799  0.2125  0.4966  0.2881
 4332TIP3   OH234486   2.294   0.732   4.695 -0.5560 -0.2982 -0.0728
 4332TIP3    H134487   2.248   0.809   4.729 -1.0233 -0.5296 -0.1686
 4332TIP3    H234488   2.298   0.747   4.601 -2.1989 -1.1987 -0.3081
 4333TIP3   OH234489   4.910   1.371   6.214 -0.2391  0.3435  0.7101
 4333TIP3    H134490   4.851   1.376   6.289  1.0812 -1.7519  1.9543
 4333TIP3    H234491   4.988   1.326   6.248  1.0755  0.8754 -1.4912
 4334TIP3   OH234492   6.513   1.056   4.036 -0.2135  0.3552  0.0804
 4334TIP3    H134493   6.557   0.982   4.080 -1.5769  0.0690  0.9976
 4334TIP3    H234494   6.585   1.110   4.003  0.8235 -0.5677  0.7709
 4335TIP3   OH234495   3.345   4.646  17.208 -0.4066 -0.5647 -0.0595
 4335TIP3    H134496   3.331   4.649  17.303 -1.1805  0.3709 -0.1979
 4335TIP3    H234497   3.257   4.631  17.172 -0.3510  0.6798 -0.7154
 4336TIP3   OH234498   2.280   2.176   1.428 -0.2328 -0.3927  0.2371
 4336TIP3    H134499   2.288   2.271   1.437  0.2793 -0.4512  0.4352
 4336TIP3    H234500   2.236   2.148   1.508  0.0386 -0.3713  0.3971
 4337TIP3   OH234501   5.169   4.255   1.388  0.6739  1.0224 -0.5328
 4337TIP3    H134502   5.256   4.216   1.389  0.4906  0.6225 -0.4085
 4337TIP3    H234503   5.170   4.316   1.462 -0.6997 -2.3237  2.3779
 4338TIP3   OH234504   0.492   2.686   1.300 -0.0690  0.0055  0.1596
 4338TIP3    H134505   0.580   2.705   1.270  0.3535  0.3529  1.5843
 4338TIP3    H234506   0.442   2.671   1.220  1.0901  0.6110 -0.6874
 4339TIP3   OH234507   4.139   4.252  11.297 -0.3223 -0.1883 -0.4894
 4339TIP3    H134508   4.187   4.189  11.350  0.1652  0.3617 -0.2795
 4339TIP3    H234509   4.085   4.197  11.239 -2.9837 -0.8088  2.4356
 4340TIP3   OH234510   4.439   6.361   2.082  0.5451 -0.5383  0.4705
 4340TIP3    H134511   4.498   6.433   2.107 -0.2210  0.6352 -1.0581
 4340TIP3    H234512   4.354   6.387   2.118  0.0160 -0.1169 -1.0685
 4341TIP3   OH234513   2.266   2.507  15.466 -0.2264 -0.4488  0.1296
 4341TIP3    H134514   2.179   2.466  15.476  0.1485 -1.2441  0.1501
 4341TIP3    H234515   2.251   2.599  15.487 -1.2547 -0.4032 -0.7827
 4342TIP3   OH234516   1.293   0.141  10.966 -0.5216 -0.0402 -0.1495
 4342TIP3    H134517   1.329   0.054  10.948 -0.8231 -0.0781 -0.5802
 4342TIP3    H234518   1.199   0.131  10.953 -0.8267 -0.2023  2.0026
 4343TIP3   OH234519   1.535   3.047  16.025 -0.4867  0.1060  0.1395
 4343TIP3    H134520   1.467   2.981  16.018  0.0692 -0.3807 -0.8698
 4343TIP3    H234521   1.612   3.007  15.984  0.8150  0.1150  2.4732
 4344TIP3   OH234522   5.800   3.589   1.645  0.2728  0.5369  0.4070
 4344TIP3    H134523   5.735   3.535   1.601  0.6054  0.3485  0.1411
 4344TIP3    H234524   5.773   3.679   1.627  0.4875  0.4638 -0.3163
 4345TIP3   OH234525   6.442   1.243  14.722 -0.2939  0.0135 -0.4216
 4345TIP3    H134526   6.348   1.263  14.717 -0.6652 -1.8761 -1.3268
 4345TIP3    H234527   6.481   1.291  14.649 -0.3474  1.7568  0.6497
 4346TIP3   OH234528   2.681   1.717   4.350 -0.3667 -0.6490  0.3155
 4346TIP3    H134529   2.761   1.693   4.303 -0.7770 -0.1038 -0.6942
 4346TIP3    H234530   2.646   1.634   4.382 -0.4220 -1.1258 -0.9390
 4347TIP3   OH234531   4.731   0.849   3.636 -0.8622 -0.7445 -0.2614
 4347TIP3    H134532   4.808   0.903   3.619 -1.8590  0.7684 -0.0861
 4347TIP3    H234533   4.684   0.848   3.552 -1.9220  0.4468  0.2970
 4348TIP3   OH234534   3.121   0.994  11.339  0.2013  0.3939 -0.1937
 4348TIP3    H134535   3.207   1.035  11.348 -1.8831  5.0866 -0.1902
 4348TIP3    H234536   3.096   1.010  11.248 -0.3024 -1.7080 -0.4379
 4349TIP3   OH234537   3.548   3.677   4.448 -0.3936 -0.0670 -0.5693
 4349TIP3    H134538   3.611   3.742   4.417  0.1199  0.3295  1.2450
 4349TIP3    H234539   3.473   3.728   4.478 -1.0790 -0.4740 -1.5511
 4350TIP3   OH234540   2.158   1.271   1.670 -0.0847 -0.2431  0.1013
 4350TIP3    H134541   2.114   1.186   1.677 -0.4674  0.1053  2.1292
 4350TIP3    H234542   2.162   1.304   1.760 -0.2732  2.0602 -0.6976
 4351TIP3   OH234543   0.013   1.140   0.139  0.3892 -0.0784 -0.3610
 4351TIP3    H134544   0.068   1.065   0.116 -0.1628 -0.5397 -0.2057
 4351TIP3    H234545   0.019   1.146   0.234 -0.4215 -0.5980 -0.2733
 4352TIP3   OH234546   5.881   2.023   0.207 -0.3728 -0.3158  0.3407
 4352TIP3    H134547   5.910   2.000   0.296 -0.6316  0.4867  0.6322
 4352TIP3    H234548   5.962   2.025   0.156 -0.0279  0.8236  0.9175
 4353TIP3   OH234549   5.083   5.063  16.237  0.3589  0.3341 -0.9935
 4353TIP3    H134550   5.025   5.016  16.178  2.0144 -0.6067 -1.8874
 4353TIP3    H234551   5.081   5.012  16.318  0.2022  0.1111 -1.1356
 4354TIP3   OH234552   6.129   2.273  14.006  0.2167  0.3165  0.7185
 4354TIP3    H134553   6.077   2.262  13.927  1.3443  0.7955 -0.0948
 4354TIP3    H234554   6.066   2.304  14.072 -1.2178 -2.3966  0.6988
 4355TIP3   OH234555   1.586   0.378   3.465 -0.6595  0.9829 -0.0929
 4355TIP3    H134556   1.510   0.377   3.407 -0.6047 -0.1463 -0.1497
 4355TIP3    H234557   1.637   0.453   3.435 -2.3385  2.5001  0.7174
 4356TIP3   OH234558   2.606   2.895  15.780 -0.0694  0.7189  0.2461
 4356TIP3    H134559   2.654   2.815  15.800  1.1769  1.8415  1.8418
 4356TIP3    H234560   2.517   2.877  15.812  0.3216  0.1509  1.0524
 4357TIP3   OH234561   3.298   5.239   1.621  0.4892 -0.2322 -0.0311
 4357TIP3    H134562   3.343   5.216   1.540  0.9614 -0.7240  0.3729
 4357TIP3    H234563   3.206   5.246   1.596  0.6587 -0.1832 -0.6507
 4358TIP3   OH234564   5.431   0.965  14.813 -0.5529 -0.1283  0.4784
 4358TIP3    H134565   5.372   0.895  14.844 -1.9679  0.6215 -0.4629
 4358TIP3    H234566   5.464   0.932  14.730 -1.1290  0.2588  0.0914
 4359TIP3   OH234567   3.506   1.196  15.391  0.3930 -0.3098 -0.4888
 4359TIP3    H134568   3.509   1.238  15.305 -0.0302 -0.4847 -0.5886
 4359TIP3    H234569   3.495   1.103  15.372 -3.5557  0.0037 -0.2198
 4360TIP3   OH234570   4.441   6.536   1.671 -0.6381  0.0567  0.2165
 4360TIP3    H134571   4.454   6.443   1.690  0.9074  0.4227  0.9648
 4360TIP3    H234572   4.394   6.570   1.747 -1.2415 -0.1041 -0.0760
 4361TIP3   OH234573   1.577   2.719  10.285  0.1150  1.0391 -0.4913
 4361TIP3    H134574   1.624   2.749  10.207  1.1344  0.8940  0.0533
 4361TIP3    H234575   1.646   2.697  10.347 -0.6531 -0.3387 -0.1010
 4362TIP3   OH234576   2.760   2.086   0.187 -0.0901  0.9067  0.5467
 4362TIP3    H134577   2.850   2.057   0.182 -0.0935  0.3748  2.9571
 4362TIP3    H234578   2.729   2.085   0.097  2.0909  0.4293 -0.2171
 4363TIP3   OH234579   3.859   2.007   1.778 -0.1732  0.0760  0.0762
 4363TIP3    H134580   3.781   2.035   1.826 -0.4655 -0.7670  0.0909
 4363TIP3    H234581   3.932   2.029   1.836 -0.3893  0.9311  0.0315
 4364TIP3   OH234582   2.288   5.159  14.737  0.3204  0.8970  0.1449
 4364TIP3    H134583   2.234   5.176  14.814 -0.8819 -1.7574 -0.0575
 4364TIP3    H234584   2.345   5.087  14.763  0.0737  0.1365 -1.3879
 4365TIP3   OH234585   1.252   6.413  13.280  0.3908  0.0203  0.3310
 4365TIP3    H134586   1.264   6.429  13.186 -0.1822 -0.8405  0.1067
 4365TIP3    H234587   1.289   6.326  13.294 -1.9312 -0.9890  0.3894
 4366TIP3   OH234588   5.176   1.164   3.392  0.0257 -0.2787  0.5862
 4366TIP3    H134589   5.245   1.126   3.445  0.5383 -2.1925 -1.3881
 4366TIP3    H234590   5.182   1.119   3.308 -1.7214  1.6096 -0.6119
 4367TIP3   OH234591   5.521   4.779  12.769 -0.5542  0.3330  0.3226
 4367TIP3    H134592   5.565   4.843  12.826 -2.3444  0.2038  1.8542
 4367TIP3    H234593   5.550   4.694  12.801 -0.3668  0.2876  0.0414
 4368TIP3   OH234594   4.607   2.383   2.858  0.0148 -0.2883  0.3683
 4368TIP3    H134595   4.551   2.446   2.905 -1.2966 -0.0017 -1.5166
 4368TIP3    H234596   4.549   2.345   2.792  1.3643 -1.9717  0.1362
 4369TIP3   OH234597   5.147   4.581   3.563 -0.9087  0.0439 -0.2363
 4369TIP3    H134598   5.144   4.542   3.475  0.0674 -1.8588  0.5385
 4369TIP3    H234599   5.061   4.623   3.573 -1.5824 -0.9645 -1.5581
 4370TIP3   OH234600   4.881   0.109   5.113  0.4345  0.1504 -0.3895
 4370TIP3    H134601   4.825   0.179   5.145 -0.5250  0.0473 -1.7607
 4370TIP3    H234602   4.969   0.132   5.142 -0.2006  0.7360  1.1064
 4371TIP3   OH234603   5.393   2.612  11.971 -0.2463  0.0850  1.0257
 4371TIP3    H134604   5.457   2.545  11.947 -0.8830 -0.6225  1.2745
 4371TIP3    H234605   5.333   2.568  12.031 -2.4715 -0.0204 -1.1816
 4372TIP3   OH234606   4.506   4.919   3.680 -0.4712 -0.3085 -0.0894
 4372TIP3    H134607   4.581   4.911   3.739 -0.2345  1.4922 -0.1247
 4372TIP3    H234608   4.543   4.952   3.598 -1.5555  2.6590  0.5634
 4373TIP3   OH234609   3.178   2.218   2.370 -0.8056  0.3165  0.3657
 4373TIP3    H134610   3.165   2.124   2.376 -1.8838  0.4084 -0.3069
 4373TIP3    H234611   3.113   2.255   2.430  0.2468  0.6131  1.3483
 4374TIP3   OH234612   6.611   0.822   4.413 -0.1006 -0.4425 -0.3025
 4374TIP3    H134613   6.622   0.806   4.507 -1.0801 -1.0582 -0.2825
 4374TIP3    H234614   6.539   0.764   4.387  0.3539 -0.4936 -1.4973
 4375TIP3   OH234615   6.423   4.101   4.095 -0.5504  0.7377 -0.2577
 4375TIP3    H134616   6.405   4.082   4.187 -4.4721 -1.6549 -1.3732
 4375TIP3    H234617   6.424   4.196   4.090  0.9930  0.9223  2.4222
 4376TIP3   OH234618   5.146   5.313   2.363 -0.6154 -0.7495  0.4234
 4376TIP3    H134619   5.058   5.352   2.360 -0.7399 -0.8843  1.8582
 4376TIP3    H234620   5.157   5.271   2.278 -2.2939 -1.4891  0.5624
 4377TIP3   OH234621   0.295   5.492  12.289  0.2506  0.7787 -0.7065
 4377TIP3    H134622   0.298   5.538  12.205 -0.1234  0.0721 -1.1151
 4377TIP3    H234623   0.299   5.399  12.265  0.5420  0.5838  0.0817
 4378TIP3   OH234624   0.094   0.553  11.592 -0.4008 -0.1204 -0.3724
 4378TIP3    H134625   0.166   0.489  11.589 -0.0188  0.2739  0.3659
 4378TIP3    H234626   0.059   0.546  11.680  0.0800  1.1627 -0.0650
 4379TIP3   OH234627   1.741   1.957   6.127 -0.2256  0.1043 -0.1538
 4379TIP3    H134628   1.663   1.985   6.174  0.6485 -0.0674  1.4591
 4379TIP3    H234629   1.812   2.009   6.165  0.3600  0.7084 -2.0384
 4380TIP3   OH234630   4.511   6.354   5.121  0.9036  0.2346  0.6376
 4380TIP3    H134631   4.493   6.415   5.049 -0.9610  0.3767  1.1971
 4380TIP3    H234632   4.433   6.300   5.126  1.2807 -0.1952  2.1470
 4381TIP3   OH234633   6.626   5.480   4.515  0.3587 -0.1565  0.4985
 4381TIP3    H134634   6.708   5.435   4.535 -0.5440 -0.3728  4.0242
 4381TIP3    H234635   6.559   5.413   4.525 -0.3794  0.3643 -0.9151
 4382TIP3   OH234636   4.184   2.982  16.913 -0.0019 -0.5563 -0.4361
 4382TIP3    H134637   4.130   3.057  16.888  0.5211 -0.1320 -0.3088
 4382TIP3    H234638   4.238   2.964  16.836  0.7102 -0.0508 -0.0628
 4383TIP3   OH234639   3.833   4.678   3.785 -0.3612  0.2324 -0.4029
 4383TIP3    H134640   3.742   4.707   3.778 -0.4986 -0.6069 -2.6826
 4383TIP3    H234641   3.840   4.609   3.719  1.6393 -0.4640  0.5277
 4384TIP3   OH234642   3.850   2.528   5.276 -0.0381  0.6637 -0.0508
 4384TIP3    H134643   3.917   2.543   5.210  0.2921  1.7719  0.5165
 4384TIP3    H234644   3.896   2.538   5.359 -0.4134 -0.8930  0.3507
 4385TIP3   OH234645   5.889   4.986   3.015  0.2615  0.2665  0.3762
 4385TIP3    H134646   5.978   4.982   3.050  0.2656  1.4509  0.5276
 4385TIP3    H234647   5.888   5.066   2.962 -0.5333 -0.0738 -0.1402
 4386TIP3   OH234648   5.853   4.723  14.758 -0.4771 -0.2094  0.6328
 4386TIP3    H134649   5.868   4.779  14.834  1.5900 -1.7712  1.4363
 4386TIP3    H234650   5.876   4.778  14.683 -0.0939  0.5617  1.3035
 4387TIP3   OH234651   0.063   5.890   2.350  0.1124  0.5043 -0.2152
 4387TIP3    H134652  -0.024   5.927   2.331  0.1077  1.2445  1.1491
 4387TIP3    H234653   0.059   5.800   2.316 -1.4770  0.2649  0.5515
 4388TIP3   OH234654   4.782   3.754   4.432 -0.5433 -0.5140 -0.0832
 4388TIP3    H134655   4.811   3.673   4.389 -0.3004 -0.2695 -0.3795
 4388TIP3    H234656   4.777   3.819   4.362 -0.5273 -0.2168  0.1881
 4389TIP3   OH234657   6.778   6.559  13.133  0.4106 -0.1842  0.0706
 4389TIP3    H134658   6.682   6.566  13.138  0.3646 -0.2791 -0.6653
 4389TIP3    H234659   6.810   6.646  13.156  0.1289  0.0096 -0.2768
 4390TIP3   OH234660   1.913   6.627   6.012 -0.3913  0.2535  0.1720
 4390TIP3    H134661   1.952   6.562   5.953  0.5533  0.9345  0.0538
 4390TIP3    H234662   1.891   6.577   6.091 -0.4465 -0.3862 -0.2426
 4391TIP3   OH234663   5.442   2.267   0.280  0.3145 -0.4186  0.9476
 4391TIP3    H134664   5.532   2.298   0.279 -0.3321  1.5250  0.7554
 4391TIP3    H234665   5.447   2.177   0.248  1.9323  0.3970 -1.1909
 4392TIP3   OH234666   5.819   4.448  11.966  0.0660  0.2573  0.0073
 4392TIP3    H134667   5.906   4.487  11.971  0.2965 -0.2585  0.0296
 4392TIP3    H234668   5.811   4.418  11.876 -0.6186  1.5206 -0.3624
 4393TIP3   OH234669   4.948   1.288  16.112  0.5563  0.0595  0.3034
 4393TIP3    H134670   5.010   1.216  16.101  0.4523  0.2710 -2.0276
 4393TIP3    H234671   4.951   1.310  16.205  2.9406 -0.8550  0.4624
 4394TIP3   OH234672   3.294   1.695  14.628 -0.7628  0.3427 -0.3900
 4394TIP3    H134673   3.307   1.788  14.612  0.5014  0.8923  3.2656
 4394TIP3    H234674   3.378   1.655  14.603  0.9062  1.0885  3.5304
 4395TIP3   OH234675   5.342   3.358   6.218 -0.1537  0.1074  0.5071
 4395TIP3    H134676   5.343   3.447   6.252 -3.3189  0.1847  0.5173
 4395TIP3    H234677   5.342   3.369   6.123  1.9001  0.0310  0.4762
 4396TIP3   OH234678   2.710   1.903  15.984 -0.2804  0.3072 -0.1057
 4396TIP3    H134679   2.686   1.829  16.039 -1.3349  1.9752  1.7564
 4396TIP3    H234680   2.751   1.965  16.045  1.1098  1.0156 -1.7339
 4397TIP3   OH234681   3.630   2.787   1.047  0.7577 -0.1818  0.4096
 4397TIP3    H134682   3.578   2.770   1.125 -0.5578  3.3821  0.3928
 4397TIP3    H234683   3.706   2.729   1.056 -0.2163 -1.0892  3.4534
 4398TIP3   OH234684   0.867   0.235   5.231  0.9993  0.1367  0.1839
 4398TIP3    H134685   0.963   0.235   5.235  1.0110  0.4703 -0.0178
 4398TIP3    H234686   0.840   0.249   5.322  1.1202 -1.1212  0.4248
 4399TIP3   OH234687   1.589   4.498   6.318 -0.1532 -0.1807  0.0300
 4399TIP3    H134688   1.617   4.412   6.349  1.7972 -0.4747 -2.3862
 4399TIP3    H234689   1.548   4.538   6.394  1.7062 -2.0492  2.1095
 4400TIP3   OH234690   1.134   3.580   3.894 -0.0343 -0.5325  0.2035
 4400TIP3    H134691   1.230   3.580   3.903 -0.1822 -0.7962  1.9298
 4400TIP3    H234692   1.102   3.573   3.984 -1.6957  0.7201 -0.2682
 4401TIP3   OH234693   6.572   0.009   0.021 -0.2244 -0.0948 -0.6887
 4401TIP3    H134694   6.605  -0.036  -0.057  1.3873 -0.0792 -0.0300
 4401TIP3    H234695   6.582  -0.056   0.092 -1.4321 -0.0173 -0.4257
 4402TIP3   OH234696   1.117   2.088   5.518  0.2039 -0.3780 -0.3284
 4402TIP3    H134697   1.041   2.032   5.502  0.6665 -0.7645 -1.1386
 4402TIP3    H234698   1.098   2.168   5.468 -0.3637  0.1248  0.6707
 4403TIP3   OH234699   5.864   1.557   5.004  0.1059 -0.2737  0.1333
 4403TIP3    H134700   5.773   1.549   5.033  0.7531 -0.6531  2.1336
 4403TIP3    H234701   5.867   1.508   4.922 -1.7559  0.7450 -0.5854
 4404TIP3   OH234702   0.257   1.336   3.190 -0.3174 -0.4607  0.4094
 4404TIP3    H134703   0.328   1.274   3.175  0.9585  0.9089  0.7183
 4404TIP3    H234704   0.182   1.298   3.143  0.8861 -1.3646 -0.8236
 4405TIP3   OH234705   6.700   6.262  15.036 -0.1661 -0.1581  0.3281
 4405TIP3    H134706   6.762   6.334  15.026 -0.4705  0.2862  1.6140
 4405TIP3    H234707   6.749   6.184  15.009  0.1943  0.4973 -0.9740
 4406TIP3   OH234708   2.504   6.231  13.314 -0.2941 -0.2906  0.2321
 4406TIP3    H134709   2.425   6.255  13.362  0.9713  1.4584  1.5230
 4406TIP3    H234710   2.560   6.189  13.379 -0.1992 -1.6317 -0.7051
 4407TIP3   OH234711   6.807   2.290  12.388  0.2912  0.7411 -0.0960
 4407TIP3    H134712   6.902   2.280  12.379  0.5447  1.7603  1.4895
 4407TIP3    H234713   6.783   2.353  12.320  0.4024 -1.1881 -1.9936
 4408TIP3   OH234714   5.228   2.038  12.568  0.0566 -0.5030  0.4828
 4408TIP3    H134715   5.185   2.097  12.630  1.5552  1.2048 -0.0501
 4408TIP3    H234716   5.247   1.960  12.619 -3.1259 -1.1082  0.8807
 4409TIP3   OH234717   6.669   1.544  15.349  0.1957 -0.2302 -0.5236
 4409TIP3    H134718   6.622   1.530  15.267  1.7312 -0.3307 -1.4044
 4409TIP3    H234719   6.725   1.467  15.359  0.1147 -0.1598  0.5470
 4410TIP3   OH234720   4.927   4.173   1.647 -0.1365  0.2266 -0.8793
 4410TIP3    H134721   4.876   4.247   1.615  1.6083  0.9581 -2.0392
 4410TIP3    H234722   4.936   4.115   1.571  0.0274 -0.3098 -0.4547
 4411TIP3   OH234723   6.427   6.324  13.944 -0.2815 -0.1195 -0.0747
 4411TIP3    H134724   6.403   6.416  13.959 -1.3482 -0.2895 -0.7047
 4411TIP3    H234725   6.403   6.308  13.853 -0.1242 -1.0380  0.0446
 4412TIP3   OH234726   2.344   5.937  15.343  0.5867 -0.8340  0.7239
 4412TIP3    H134727   2.337   5.916  15.250 -0.1458  1.4727  0.2161
 4412TIP3    H234728   2.422   5.890  15.373  0.9518 -1.4250 -1.1062
 4413TIP3   OH234729   2.979   0.907   1.420  0.1999 -0.1648  0.1565
 4413TIP3    H134730   3.060   0.948   1.392 -0.3724  0.7903 -0.1340
 4413TIP3    H234731   2.933   0.976   1.468 -1.0186 -0.2919 -0.8122
 4414TIP3   OH234732   5.429   0.255  10.528  0.1335  0.1571  0.2333
 4414TIP3    H134733   5.498   0.226  10.469  0.3764 -0.1953  0.6828
 4414TIP3    H234734   5.466   0.330  10.574  0.7256 -0.8420  1.4367
 4415TIP3   OH234735   3.436   6.663   0.279 -0.6119 -0.1269  0.2854
 4415TIP3    H134736   3.378   6.729   0.318 -0.3381 -0.4017  1.1915
 4415TIP3    H234737   3.523   6.700   0.287 -0.7442  0.7465 -2.0393
 4416TIP3   OH234738   4.414   1.038   4.283  0.1116  0.4384  0.8074
 4416TIP3    H134739   4.395   1.089   4.204 -1.1363  0.7046  1.2608
 4416TIP3    H234740   4.509   1.035   4.288  0.1972  1.1014 -0.2656
 4417TIP3   OH234741   3.569   3.523  15.323 -0.1789 -0.2002  0.1340
 4417TIP3    H134742   3.624   3.558  15.393 -1.1927  1.6310  0.0380
 4417TIP3    H234743   3.529   3.445  15.361  1.7595 -1.0370  0.5064
 4418TIP3   OH234744   1.006   6.794  11.287 -0.3359 -0.5429  0.2808
 4418TIP3    H134745   0.989   6.713  11.337  1.1539 -1.8859 -1.3161
 4418TIP3    H234746   1.062   6.766  11.215  2.0151  2.2949  0.8913
 4419TIP3   OH234747   3.050   5.476  15.067 -0.2649 -0.1405 -0.2104
 4419TIP3    H134748   2.988   5.403  15.061 -0.6069  0.1958 -0.9212
 4419TIP3    H234749   3.104   5.468  14.989 -1.2025  1.1538 -1.0283
 4420TIP3   OH234750   3.746   5.057   1.343  0.1129  0.0711 -0.6141
 4420TIP3    H134751   3.750   4.966   1.373  0.6466 -0.4161 -2.1106
 4420TIP3    H234752   3.776   5.109   1.418 -1.3079 -0.8819  0.6538
 4421TIP3   OH234753   3.247   2.340   5.686 -0.2487 -0.1671  0.2109
 4421TIP3    H134754   3.196   2.270   5.726  1.3604 -1.6033 -0.1865
 4421TIP3    H234755   3.250   2.317   5.593  1.4255 -0.3202  0.2920
 4422TIP3   OH234756   2.469   2.827   1.203  0.6532  0.6786 -0.6130
 4422TIP3    H134757   2.436   2.868   1.283  3.1740  0.2239  0.7251
 4422TIP3    H234758   2.498   2.740   1.231  0.2539 -0.0195 -2.3253
 4423TIP3   OH234759   3.798   2.357   6.261  0.6786 -0.6299 -0.7181
 4423TIP3    H134760   3.766   2.272   6.292  1.6229 -0.2748  1.3323
 4423TIP3    H234761   3.850   2.336   6.183 -0.1353 -1.7851 -0.9594
 4424TIP3   OH234762   2.038   1.927   4.697 -0.0170  0.2158 -0.3507
 4424TIP3    H134763   2.045   1.950   4.604 -0.7854 -1.5825 -0.8853
 4424TIP3    H234764   1.958   1.875   4.703  0.7333 -0.8326  1.0615
 4425TIP3   OH234765   0.934   4.194  13.170  0.3042  0.2625  0.2449
 4425TIP3    H134766   0.932   4.281  13.210  0.6917 -0.0002  0.8448
 4425TIP3    H234767   0.848   4.157  13.190 -0.3805  1.0264 -1.2010
 4426TIP3   OH234768   3.028   2.368   1.290 -0.2609 -0.0951  0.7329
 4426TIP3    H134769   3.051   2.281   1.324  2.0458  0.7668  1.4873
 4426TIP3    H234770   3.046   2.362   1.196 -2.9734 -1.3103  0.2431
 4427TIP3   OH234771   2.721   5.912  17.080  0.1422  0.2845 -0.4548
 4427TIP3    H134772   2.751   5.829  17.042 -3.6680 -1.4551  0.1638
 4427TIP3    H234773   2.696   5.965  17.005  3.0321  1.1169 -0.8843
 4428TIP3   OH234774   2.127   3.800  15.479 -0.3247 -0.0003 -0.7100
 4428TIP3    H134775   2.163   3.809  15.391  2.0495 -3.4181 -0.1887
 4428TIP3    H234776   2.042   3.759  15.466  0.0988 -0.6760 -1.4393
 4429TIP3   OH234777   6.581   1.812  14.003 -0.0077  0.5838  0.3754
 4429TIP3    H134778   6.671   1.778  13.998 -0.9088 -1.9553  0.7480
 4429TIP3    H234779   6.579   1.885  13.941  2.4487  0.9783  0.7203
 4430TIP3   OH234780   3.506   1.103   3.173 -0.1386  0.9745 -0.3319
 4430TIP3    H134781   3.518   1.175   3.111 -1.6112 -0.8586 -2.8353
 4430TIP3    H234782   3.411   1.093   3.179  0.0508 -0.7633 -0.0274
 4431TIP3   OH234783   6.329   3.372   3.656 -0.1824  0.3016  0.0838
 4431TIP3    H134784   6.312   3.278   3.657  1.2362  0.0259 -0.1896
 4431TIP3    H234785   6.348   3.392   3.564  0.3869  0.6888  0.2816
 4432TIP3   OH234786   1.299   5.453  11.228  0.3453  0.3899 -0.3379
 4432TIP3    H134787   1.354   5.399  11.171  1.5740 -0.0929  1.2612
 4432TIP3    H234788   1.356   5.474  11.302 -0.7259  2.3243 -0.0446
 4433TIP3   OH234789   2.660   5.926   3.994  0.0682 -0.0990  0.7265
 4433TIP3    H134790   2.625   5.959   4.077  0.2070  2.0092 -0.0296
 4433TIP3    H234791   2.647   5.998   3.932  3.0835 -0.3451 -0.2737
 4434TIP3   OH234792   1.514   6.178   4.615 -0.8829 -0.1589  0.2482
 4434TIP3    H134793   1.574   6.232   4.667 -1.1765 -0.8545  1.3325
 4434TIP3    H234794   1.427   6.205   4.645 -1.1158  0.5047 -0.9755
 4435TIP3   OH234795   6.385   4.421  12.371  0.1893  0.0905 -0.5905
 4435TIP3    H134796   6.292   4.405  12.389 -0.0772  1.9072 -0.2965
 4435TIP3    H234797   6.428   4.409  12.455  0.2853 -1.1188 -0.8032
 4436TIP3   OH234798   4.598   6.804   4.415 -0.3487 -0.5385  0.2281
 4436TIP3    H134799   4.568   6.797   4.506  1.2640  0.8440  0.8824
 4436TIP3    H234800   4.630   6.894   4.407  0.2136 -0.8719 -1.5053
 4437TIP3   OH234801   3.353   5.867  10.925 -0.1705 -0.4423 -0.5791
 4437TIP3    H134802   3.332   5.775  10.940  0.0962 -0.5965 -1.1529
 4437TIP3    H234803   3.322   5.912  11.004  0.2779 -1.1077 -0.0240
 4438TIP3   OH234804   1.297   6.380   6.009  0.6566  0.0346 -0.1932
 4438TIP3    H134805   1.345   6.376   5.926  2.1884  0.1804  0.6739
 4438TIP3    H234806   1.259   6.293   6.019  1.6801 -0.4386 -0.3495
 4439TIP3   OH234807   4.316   5.650   1.601 -0.3045  0.1011  0.4793
 4439TIP3    H134808   4.234   5.604   1.621  0.4255 -0.4708  2.3274
 4439TIP3    H234809   4.384   5.588   1.628  0.7037  1.5871  1.3837
 4440TIP3   OH234810   0.923   3.626   2.504  0.1946  0.4295 -0.8463
 4440TIP3    H134811   0.851   3.689   2.493  0.6020  1.0082 -0.2488
 4440TIP3    H234812   0.990   3.655   2.442  0.0321  0.0758 -1.1832
 4441TIP3   OH234813   2.228   4.680  11.346  0.0795 -0.1393 -0.7202
 4441TIP3    H134814   2.248   4.770  11.319 -1.7791  1.1525  1.8627
 4441TIP3    H234815   2.223   4.631  11.265  0.5219  2.2452 -2.2504
 4442TIP3   OH234816   1.392   0.036  15.635 -0.2437 -0.0183  0.4724
 4442TIP3    H134817   1.356   0.125  15.637 -3.0417 -1.1035  1.4687
 4442TIP3    H234818   1.333  -0.012  15.577  1.5453 -1.1347 -0.4757
 4443TIP3   OH234819   1.847   2.364  10.996 -0.6854 -0.3368  0.1495
 4443TIP3    H134820   1.899   2.402  10.926  2.0729  1.1349  2.8820
 4443TIP3    H234821   1.773   2.425  11.006 -0.0137  0.5447 -0.1462
 4444TIP3   OH234822   1.535   5.752  16.588  0.5716  0.1702 -0.0774
 4444TIP3    H134823   1.461   5.769  16.646 -0.2182  1.3876 -1.4116
 4444TIP3    H234824   1.611   5.789  16.635 -0.1228  1.5274  0.0100
 4445TIP3   OH234825   0.483   3.325  14.234 -0.1361  0.6377 -0.2609
 4445TIP3    H134826   0.510   3.312  14.325  1.0407 -1.0110 -0.8166
 4445TIP3    H234827   0.465   3.419  14.228  0.8782  0.9711  1.3866
 4446TIP3   OH234828   4.591   3.960  16.226 -0.2728  0.4357 -0.3486
 4446TIP3    H134829   4.592   3.867  16.247  0.1081  0.5409  0.1022
 4446TIP3    H234830   4.549   3.964  16.140 -0.5729 -0.1210 -0.2291
 4447TIP3   OH234831   0.892   6.125   6.298 -0.5177 -0.0604  0.2575
 4447TIP3    H134832   0.847   6.106   6.216 -0.2617 -0.6191  0.2432
 4447TIP3    H234833   0.821   6.135   6.362 -0.7840  1.8848 -0.3311
 4448TIP3   OH234834   5.048   5.892   5.771  0.2950  0.6904  0.6223
 4448TIP3    H134835   5.045   5.839   5.851  0.9846  2.5468  1.9070
 4448TIP3    H234836   5.140   5.894   5.746  0.2704  1.2305  0.5594
 4449TIP3   OH234837   6.780   4.480   4.392 -0.0110 -0.2418 -0.0369
 4449TIP3    H134838   6.749   4.391   4.410 -0.7960  0.1599  0.6675
 4449TIP3    H234839   6.803   4.480   4.299  3.7016 -2.2713  0.7703
 4450TIP3   OH234840   6.621   2.132   1.736 -0.0789  0.6631 -0.2112
 4450TIP3    H134841   6.576   2.215   1.719  2.1753  1.9976  0.1500
 4450TIP3    H234842   6.620   2.124   1.831  1.3213  1.2273 -0.1364
 4451TIP3   OH234843   3.970   4.281  12.492 -0.4287  0.0010 -0.3764
 4451TIP3    H134844   3.974   4.224  12.568 -2.3056 -0.0292 -0.2862
 4451TIP3    H234845   4.057   4.272  12.451  0.3369 -0.5366  1.3265
 4452TIP3   OH234846   4.054   4.984   0.470  0.4198  0.6280  0.3619
 4452TIP3    H134847   3.985   4.922   0.447  0.0793 -0.7114  4.6011
 4452TIP3    H234848   4.008   5.058   0.509  1.2532  0.5955  1.4189
 4453TIP3   OH234849   0.862   6.437   4.300 -0.8493 -0.1900  0.2614
 4453TIP3    H134850   0.801   6.395   4.360  0.2581 -2.3730 -0.1133
 4453TIP3    H234851   0.820   6.434   4.215 -1.0896  0.1477  0.3661
 4454TIP3   OH234852   2.248   3.806  15.241  0.1459  0.5329 -0.4686
 4454TIP3    H134853   2.168   3.832  15.196 -1.1544  0.8434  2.0030
 4454TIP3    H234854   2.287   3.740  15.183 -1.6006  0.7599 -1.9388
 4455TIP3   OH234855   6.638   2.134  11.049 -0.5410 -0.0025  0.0064
 4455TIP3    H134856   6.592   2.211  11.080  1.0382  0.3445  1.5819
 4455TIP3    H234857   6.680   2.162  10.967 -0.2940  0.6875  0.3726
 4456TIP3   OH234858   5.827   0.434  17.275 -0.1321 -0.1368 -0.3673
 4456TIP3    H134859   5.875   0.516  17.268 -0.5002  0.0716 -0.4485
 4456TIP3    H234860   5.893   0.370  17.301  0.3773 -0.0374 -1.3931
 4457TIP3   OH234861   5.529   3.880   2.865  0.0886 -0.3499  0.6662
 4457TIP3    H134862   5.481   3.961   2.879  3.7293  1.8068  1.2730
 4457TIP3    H234863   5.495   3.846   2.781  0.4764  3.2895 -1.0456
 4458TIP3   OH234864   6.390   1.965   2.927 -0.2086  0.1928  0.2202
 4458TIP3    H134865   6.471   1.997   2.966 -0.1060  0.0119  0.1532
 4458TIP3    H234866   6.392   1.870   2.942 -0.9121  0.3160  1.1753
 4459TIP3   OH234867   5.403   0.103   5.981  0.2439  0.0852 -0.2815
 4459TIP3    H134868   5.474   0.074   5.924  0.4519 -0.1346  0.0870
 4459TIP3    H234869   5.424   0.195   5.999 -0.6128  0.5714 -1.7457
 4460TIP3   OH234870   5.689   3.521   5.302 -0.1215 -0.1836 -0.2425
 4460TIP3    H134871   5.594   3.525   5.312 -0.0003  0.7827  0.6890
 4460TIP3    H234872   5.703   3.465   5.226 -1.4778  0.6740 -1.1541
 4461TIP3   OH234873   6.765   2.067   0.803  0.3247  0.3548 -0.0026
 4461TIP3    H134874   6.684   2.116   0.815 -0.0220 -0.1022 -0.4676
 4461TIP3    H234875   6.750   2.013   0.726  1.8654  1.8952 -1.4512
 4462TIP3   OH234876   5.369   3.280   3.332 -0.7546  0.7261  0.0029
 4462TIP3    H134877   5.432   3.351   3.338  0.9146 -0.6583 -0.5187
 4462TIP3    H234878   5.342   3.279   3.240  2.8681 -2.2429 -1.1837
 4463TIP3   OH234879   5.350   5.085   1.690  0.1242  0.7533  0.3505
 4463TIP3    H134880   5.329   5.176   1.669 -1.6466  0.1419 -0.6132
 4463TIP3    H234881   5.266   5.039   1.681  1.3785 -1.3140 -1.0391
 4464TIP3   OH234882   2.125   2.466  16.276 -0.1207  0.0720  0.3306
 4464TIP3    H134883   2.162   2.433  16.195  2.7859  0.5321  1.3871
 4464TIP3    H234884   2.125   2.390  16.335 -0.3128  0.2184  0.5200
 4465TIP3   OH234885   5.750   5.593   2.557  0.3889 -0.5714 -0.0342
 4465TIP3    H134886   5.817   5.580   2.490  1.6602 -3.8882  1.7909
 4465TIP3    H234887   5.671   5.555   2.519  0.8262 -1.4274 -0.0900
 4466TIP3   OH234888   4.256   3.317  15.355  0.5514 -0.3316  0.7318
 4466TIP3    H134889   4.310   3.307  15.433 -0.2786  0.6284  1.4539
 4466TIP3    H234890   4.236   3.411  15.352  3.4167  0.2576 -2.5663
 4467TIP3   OH234891   2.612   5.081   3.120 -0.1288 -0.3235 -0.3936
 4467TIP3    H134892   2.647   5.162   3.084 -1.3014  0.2543 -0.2632
 4467TIP3    H234893   2.679   5.049   3.180 -0.2735  1.3260  0.6763
 4468TIP3   OH234894   0.436   4.330   0.201 -0.4279  0.3902 -0.3517
 4468TIP3    H134895   0.395   4.333   0.287  0.8147 -0.8125  0.3049
 4468TIP3    H234896   0.522   4.370   0.214 -0.2557  0.2493 -1.0359
 4469TIP3   OH234897   3.967   6.451   3.203 -0.1330  0.2650  0.1716
 4469TIP3    H134898   3.930   6.460   3.290  1.2891 -1.5887  1.0112
 4469TIP3    H234899   3.894   6.422   3.148 -0.4843 -1.0211  1.2917
 4470TIP3   OH234900   4.832   3.227   3.668 -0.0468  0.5703  0.3343
 4470TIP3    H134901   4.881   3.146   3.681 -0.2276  0.4210  0.0770
 4470TIP3    H234902   4.815   3.259   3.757 -1.2485 -0.4419  0.4810
 4471TIP3   OH234903   4.661   3.402   2.095 -0.7394 -0.2487  0.7794
 4471TIP3    H134904   4.667   3.411   2.000  0.4461 -0.9060  0.7875
 4471TIP3    H234905   4.578   3.445   2.118 -1.1558 -0.3102 -0.5718
 4472TIP3   OH234906   1.196   2.695   5.303 -0.1724 -0.1831 -0.0991
 4472TIP3    H134907   1.169   2.604   5.306  0.1557 -0.2803 -0.0436
 4472TIP3    H234908   1.115   2.745   5.307 -0.3381 -0.4700  0.0623
 4473TIP3   OH234909   3.088   6.068  14.074  0.4309  0.3939 -0.1736
 4473TIP3    H134910   3.027   6.024  14.016  0.3677 -0.6584  0.6641
 4473TIP3    H234911   3.069   6.032  14.161  1.7934  0.5208  0.1961
 4474TIP3   OH234912   2.218   0.342   2.765 -0.3330 -0.2313  0.1231
 4474TIP3    H134913   2.126   0.336   2.740 -0.3851 -0.9145  0.4780
 4474TIP3    H234914   2.216   0.369   2.857 -0.1987 -1.5100  0.5040
 4475TIP3   OH234915   1.582   6.443   6.454 -0.7401 -0.6191  0.1159
 4475TIP3    H134916   1.643   6.417   6.523 -1.4450 -2.0654  0.2212
 4475TIP3    H234917   1.620   6.522   6.416  0.8239 -1.0989  0.6575
 4476TIP3   OH234918   2.124   3.429  16.930 -0.2225 -0.2824 -0.3937
 4476TIP3    H134919   2.084   3.514  16.948 -1.2379 -0.1050 -3.2335
 4476TIP3    H234920   2.056   3.366  16.955  0.3815 -0.2636  1.3388
 4477TIP3   OH234921   0.447   3.579  11.654 -0.2136  0.3790 -0.4281
 4477TIP3    H134922   0.414   3.533  11.577  1.6520 -0.4694 -0.7321
 4477TIP3    H234923   0.451   3.671  11.628  0.2887  0.1095 -1.2981
 4478TIP3   OH234924   2.596   4.699   5.198  0.8452  0.1786 -0.1311
 4478TIP3    H134925   2.511   4.717   5.238  0.1064 -0.9899 -1.1593
 4478TIP3    H234926   2.658   4.749   5.251 -0.4456  0.8628  0.7660
 4479TIP3   OH234927   2.513   5.521  12.344 -0.3853  0.5889  0.3249
 4479TIP3    H134928   2.458   5.516  12.422 -0.2500 -0.6357  0.3622
 4479TIP3    H234929   2.594   5.563  12.373 -0.1822 -0.2164  0.9488
 4480TIP3   OH234930   2.926   5.844  13.864  0.0282  0.0196  0.0686
 4480TIP3    H134931   2.976   5.898  13.803  0.1873  0.3484  0.4958
 4480TIP3    H234932   2.966   5.757  13.857  0.4139  0.1928  0.1258
 4481TIP3   OH234933   4.839   5.402   5.984  0.1590 -0.4301 -0.4313
 4481TIP3    H134934   4.824   5.312   6.010  0.0364 -0.1783  0.3696
 4481TIP3    H234935   4.766   5.451   6.022 -0.0884 -0.0791 -1.3414
 4482TIP3   OH234936   0.173   1.116   5.039  0.0850 -0.2343 -0.0312
 4482TIP3    H134937   0.107   1.182   5.058  1.8447  2.2309 -2.0737
 4482TIP3    H234938   0.207   1.090   5.125  0.2424  2.5081  0.7840
 4483TIP3   OH234939   2.875   6.161   2.974  0.2457 -0.5311 -0.2820
 4483TIP3    H134940   2.827   6.202   3.046 -2.0205  0.2016 -2.1680
 4483TIP3    H234941   2.934   6.099   3.017  0.1504  1.0932  2.3064
 4484TIP3   OH234942   5.821   5.885  15.295 -0.8272  0.3562 -0.0495
 4484TIP3    H134943   5.817   5.808  15.351  1.2619  0.5800  0.4321
 4484TIP3    H234944   5.777   5.858  15.214 -2.0967 -0.5903  0.9312
 4485TIP3   OH234945   2.373   5.182  16.107  0.0631 -0.1272 -0.1938
 4485TIP3    H134946   2.431   5.120  16.062 -1.8145 -0.5029 -2.1282
 4485TIP3    H234947   2.406   5.183  16.197  0.9067 -3.0351 -0.4087
 4486TIP3   OH234948   0.103   2.522  17.222  0.0840 -0.1515  0.5354
 4486TIP3    H134949   0.087   2.515  17.128  1.4703 -0.0912  0.2896
 4486TIP3    H234950   0.086   2.614  17.242  0.2369 -0.0640  0.2634
 4487TIP3   OH234951   5.433   6.272   3.098 -0.1182  0.0301 -0.3286
 4487TIP3    H134952   5.477   6.274   3.013  0.1711 -1.3848 -0.2274
 4487TIP3    H234953   5.502   6.295   3.161 -0.3948  1.3297 -0.4958
 4488TIP3   OH234954   5.074   6.416   0.959  0.0672  0.2835 -0.0110
 4488TIP3    H134955   5.053   6.420   0.866 -0.3946 -0.2100  0.0653
 4488TIP3    H234956   5.005   6.361   0.996 -0.6085  1.6894  0.8701
 4489TIP3   OH234957   1.569   6.654  14.006  0.4795  0.5496  0.6232
 4489TIP3    H134958   1.544   6.561  14.009 -0.1823  0.7582  2.2047
 4489TIP3    H234959   1.609   6.665  13.920 -2.9586 -0.3210 -1.2041
 4490TIP3   OH234960   5.900   5.486  13.440 -0.3195  0.3959  0.0824
 4490TIP3    H134961   5.944   5.429  13.502 -0.6861  0.4184  0.3635
 4490TIP3    H234962   5.971   5.533  13.396  0.0408 -1.0340 -0.8898
 4491TIP3   OH234963   4.308   6.787  14.908 -0.1777  0.1105  0.8277
 4491TIP3    H134964   4.290   6.710  14.853 -0.2008  0.0971  0.8539
 4491TIP3    H234965   4.330   6.750  14.994 -0.8766  0.1571  1.0308
 4492TIP3   OH234966   0.725   3.070  16.116  0.0398 -0.7730 -0.1843
 4492TIP3    H134967   0.785   3.141  16.092  0.5648 -1.1716 -0.0545
 4492TIP3    H234968   0.696   3.092  16.204 -0.7221 -0.0999 -0.5921
 4493TIP3   OH234969   6.057   4.124   1.839 -0.0787  0.3226 -0.0148
 4493TIP3    H134970   5.989   4.167   1.890  1.0415  1.8961  0.1791
 4493TIP3    H234971   6.113   4.082   1.905 -1.6082 -2.1952 -0.2303
 4494TIP3   OH234972   5.519   6.326   5.799 -0.3244 -0.1539  0.3940
 4494TIP3    H134973   5.592   6.371   5.758 -1.0875 -0.3391 -1.1986
 4494TIP3    H234974   5.536   6.333   5.893  1.6313 -0.0425  0.0506
 4495TIP3   OH234975   2.179   6.475  14.199 -0.0393  0.0044  0.2705
 4495TIP3    H134976   2.096   6.500  14.159 -0.7034  1.6668  2.5687
 4495TIP3    H234977   2.245   6.498  14.134 -1.2589 -0.0091 -1.0097
 4496TIP3   OH234978   5.381   6.292   3.424 -0.6014 -0.0530  0.3173
 4496TIP3    H134979   5.354   6.271   3.334 -2.4049 -0.4139  0.9286
 4496TIP3    H234980   5.468   6.332   3.414 -0.0860 -1.5624 -1.4351
 4497TIP3   OH234981   4.021   2.393  13.471  0.4849 -0.1700  0.2507
 4497TIP3    H134982   4.011   2.453  13.397 -0.5395  0.8097  1.1597
 4497TIP3    H234983   4.097   2.427  13.519 -0.4849  0.8177  1.1231
 4498TIP3   OH234984   1.018   3.011   2.662 -0.2664  0.6754  0.3735
 4498TIP3    H134985   1.072   3.060   2.725  1.1689  0.8885 -0.9992
 4498TIP3    H234986   0.999   3.074   2.593 -0.3525 -0.0604 -0.2758
 4499TIP3   OH234987   4.717   2.231  12.335 -0.0430  0.2083  0.1556
 4499TIP3    H134988   4.666   2.152  12.317  0.3650  0.1237 -0.6732
 4499TIP3    H234989   4.652   2.298  12.358 -0.5154  0.0547 -0.7207
 4500TIP3   OH234990   2.491   1.482  16.373 -0.2777 -0.3592 -0.2859
 4500TIP3    H134991   2.504   1.393  16.406  1.5904 -0.4388 -1.1868
 4500TIP3    H234992   2.572   1.529  16.397 -1.2307  1.1066  0.1720
 4501TIP3   OH234993   6.717   3.451   1.905  0.4543 -0.0923  0.3472
 4501TIP3    H134994   6.801   3.497   1.897 -0.8617  2.5301  0.9380
 4501TIP3    H234995   6.715   3.422   1.996 -0.2049  1.8116  0.9696
 4502TIP3   OH234996   1.613   3.724  10.375 -0.3171 -0.0435  0.2109
 4502TIP3    H134997   1.552   3.767  10.436  0.3119  2.3933 -0.8066
 4502TIP3    H234998   1.572   3.734  10.289  0.8467  0.3606 -0.3016
 4503TIP3   OH234999   3.694   2.967   1.759 -0.2583  0.1313  0.4360
 4503TIP3    H135000   3.698   2.885   1.710  0.0491 -0.1236  0.8856
 4503TIP3    H235001   3.655   3.030   1.698  0.1879 -0.1658 -0.1544
 4504TIP3   OH235002   6.485   4.783  11.794  0.0736 -0.0420  0.3547
 4504TIP3    H135003   6.543   4.842  11.746  0.2346 -0.6399 -0.2038
 4504TIP3    H235004   6.437   4.839  11.855  0.6786  0.5651  0.2716
 4505TIP3   OH235005   6.742   0.170  16.009  0.4757 -0.0127 -0.2103
 4505TIP3    H135006   6.732   0.116  16.088  0.0908  2.1195  1.2343
 4505TIP3    H235007   6.778   0.110  15.944  0.6312 -1.8669  1.5283
 4506TIP3   OH235008   3.570   3.752   3.816 -0.5662  0.2679 -1.2223
 4506TIP3    H135009   3.519   3.673   3.839  0.9420  0.0746  1.7127
 4506TIP3    H235010   3.658   3.719   3.799  0.3586  1.4087  1.1870
 4507TIP3   OH235011   0.188   1.738   2.933  0.3790  0.0433 -0.3925
 4507TIP3    H135012   0.170   1.705   3.021 -0.1348 -0.3411 -0.6405
 4507TIP3    H235013   0.259   1.682   2.900  1.5868  1.1172  0.3217
 4508TIP3   OH235014   4.819   0.520   5.829  0.2441  0.6203 -0.7242
 4508TIP3    H135015   4.910   0.546   5.819  0.1833  0.3265 -2.1656
 4508TIP3    H235016   4.817   0.428   5.803  0.0694 -0.2676  2.2506
 4509TIP3   OH235017   5.302   0.287  16.034 -0.4638 -0.1487 -0.5942
 4509TIP3    H135018   5.373   0.288  15.970  1.3957 -0.3319  1.4339
 4509TIP3    H235019   5.222   0.287  15.981  0.9438  3.8035 -2.9485
 4510TIP3   OH235020   0.085   1.853   4.548  0.3083  0.1666 -0.4525
 4510TIP3    H135021   0.082   1.847   4.452  0.7017  0.4487 -0.4849
 4510TIP3    H235022  -0.007   1.850   4.575  0.2498 -1.0138 -0.7702
 4511TIP3   OH235023   6.623   6.579  10.762  0.1108 -0.4076  0.0283
 4511TIP3    H135024   6.648   6.489  10.744 -1.0309 -0.7082 -0.1094
 4511TIP3    H235025   6.667   6.631  10.695 -1.4120 -1.1593 -1.6113
 4512TIP3   OH235026   0.432   6.391   3.515  0.4019 -0.0052  0.0057
 4512TIP3    H135027   0.369   6.439   3.462 -0.3809 -3.6591 -2.6101
 4512TIP3    H235028   0.410   6.412   3.605 -1.0104  3.0213 -0.9866
 4513TIP3   OH235029   6.435   1.378   4.331 -0.1311  0.9283 -0.3009
 4513TIP3    H135030   6.500   1.433   4.375 -1.1802  2.6120 -0.8122
 4513TIP3    H235031   6.467   1.289   4.342  1.8326  1.6805  0.1677
 4514TIP3   OH235032   3.004   0.842   5.505 -0.2336 -0.7194 -0.0241
 4514TIP3    H135033   3.077   0.889   5.545 -1.0679 -0.3153  1.0309
 4514TIP3    H235034   2.945   0.911   5.473  0.1005 -1.0393 -1.3752
 4515TIP3   OH235035   1.124   3.874  10.990 -0.4498  0.0812 -0.0073
 4515TIP3    H135036   1.161   3.961  10.995  0.9025 -0.4678 -0.2540
 4515TIP3    H235037   1.197   3.815  11.011 -1.6540 -0.9349  1.4404
 4516TIP3   OH235038   1.298   5.412   3.425 -0.2656 -0.3000 -0.4896
 4516TIP3    H135039   1.342   5.454   3.352  0.9980  3.4659  2.3172
 4516TIP3    H235040   1.229   5.473   3.450 -1.0033 -1.7711  1.2039
 4517TIP3   OH235041   0.428   5.174   4.795 -0.1076 -0.0974 -0.4250
 4517TIP3    H135042   0.485   5.250   4.812 -0.9054  0.6661 -1.1553
 4517TIP3    H235043   0.489   5.102   4.779  0.6751 -0.0522  2.1364
 4518TIP3   OH235044   6.327   6.191  11.230 -0.1385  0.1070  0.5249
 4518TIP3    H135045   6.330   6.270  11.175  0.5190 -0.3918 -0.1792
 4518TIP3    H235046   6.369   6.124  11.176  0.1327 -0.4967  1.4872
 4519TIP3   OH235047   1.738   3.088   4.526 -0.2272 -0.1520  0.2074
 4519TIP3    H135048   1.666   3.026   4.514 -1.5194  1.2603  0.4752
 4519TIP3    H235049   1.814   3.033   4.544 -1.0704 -1.7034 -0.8285
 4520TIP3   OH235050   0.865   2.834  16.627  0.6657 -0.1536  0.1692
 4520TIP3    H135051   0.953   2.825  16.591  0.4967 -1.2938  0.0253
 4520TIP3    H235052   0.816   2.759  16.592 -0.5718  0.8758 -0.3489
 4521TIP3   OH235053   4.850   4.713  11.659 -0.0403 -0.0235 -0.1173
 4521TIP3    H135054   4.897   4.698  11.742 -0.3734 -1.7202 -0.2225
 4521TIP3    H235055   4.908   4.675  11.592  1.2951  3.3235 -0.9494
 4522TIP3   OH235056   2.761   3.967  14.443  0.8651  0.1233 -0.4732
 4522TIP3    H135057   2.710   4.015  14.508 -2.2707  1.3909 -3.7029
 4522TIP3    H235058   2.852   3.993  14.460 -0.0387  1.7491  2.2440
 4523TIP3   OH235059   4.654   2.766   0.643  0.4897  0.4287  0.4431
 4523TIP3    H135060   4.633   2.823   0.569  0.1327  0.6144  0.6842
 4523TIP3    H235061   4.625   2.816   0.720 -1.7123 -0.9310  0.5378
 4524TIP3   OH235062   2.875   0.960   0.335 -0.0451 -0.1733 -0.4004
 4524TIP3    H135063   2.961   1.001   0.330  0.8722 -2.0833 -0.6796
 4524TIP3    H235064   2.848   0.949   0.244 -0.5595  0.3888 -0.3138
 4525TIP3   OH235065   1.761   1.754  15.532  0.0278  0.0188 -0.6409
 4525TIP3    H135066   1.730   1.822  15.591  0.2395 -0.1476 -0.3377
 4525TIP3    H235067   1.736   1.671  15.574  1.8164 -0.1386  0.1235
 4526TIP3   OH235068   4.450   1.560  14.838 -0.4994  0.1354 -0.6610
 4526TIP3    H135069   4.480   1.617  14.908  0.4709 -0.2743 -0.7333
 4526TIP3    H235070   4.485   1.600  14.758 -0.7754  0.0638 -0.8168
 4527TIP3   OH235071   0.745   5.456  11.393 -0.2648  0.7429  0.4646
 4527TIP3    H135072   0.756   5.550  11.384 -2.5995  0.9893 -0.3412
 4527TIP3    H235073   0.827   5.418  11.363  0.3265  2.4833 -0.1355
 4528TIP3   OH235074   5.630   2.052  13.149  0.5407  0.0035  0.2738
 4528TIP3    H135075   5.690   2.035  13.076 -0.9927 -1.4452 -0.6920
 4528TIP3    H235076   5.558   1.990  13.135 -1.0585  1.5387  1.5280
 4529TIP3   OH235077   1.537   4.562  12.479  0.1327  0.1963 -0.2524
 4529TIP3    H135078   1.565   4.519  12.398 -1.0698  1.1856 -1.2095
 4529TIP3    H235079   1.517   4.652  12.453 -2.4601 -0.0634  0.6777
 4530TIP3   OH235080   5.760   0.264   2.485  0.1883  0.0928 -0.3431
 4530TIP3    H135081   5.783   0.182   2.529 -3.1326 -0.2973  0.7879
 4530TIP3    H235082   5.790   0.252   2.395  1.2841 -1.6575  0.2174
 4531TIP3   OH235083   5.427   2.736   6.214 -0.8470 -0.0302  0.0218
 4531TIP3    H135084   5.437   2.696   6.300 -1.2504 -2.8768 -1.1886
 4531TIP3    H235085   5.352   2.691   6.175 -0.3280  0.8060 -2.0308
 4532TIP3   OH235086   3.541   4.581   4.567  0.0037 -0.3404 -0.6323
 4532TIP3    H135087   3.537   4.610   4.658  0.3026  0.8596 -0.9952
 4532TIP3    H235088   3.588   4.650   4.521 -3.6191  1.0456 -2.4735
 4533TIP3   OH235089   0.650   1.854   2.837 -0.0379 -0.5204 -0.1539
 4533TIP3    H135090   0.597   1.814   2.906  0.3586 -0.3721  0.2347
 4533TIP3    H235091   0.605   1.937   2.817 -0.7435 -1.0547 -0.8144
 4534TIP3   OH235092   1.843   3.198   1.819 -0.3156  0.4862 -0.2796
 4534TIP3    H135093   1.846   3.223   1.912 -0.2528  0.3751 -0.2507
 4534TIP3    H235094   1.781   3.125   1.817  0.0763  0.1491 -0.2433
 4535TIP3   OH235095   1.218   3.989  12.042  0.0620 -0.1856  0.2531
 4535TIP3    H135096   1.158   3.965  12.112 -0.2294  1.4592  0.6035
 4535TIP3    H235097   1.172   4.059  11.994 -0.0475 -1.7598 -2.0234
 4536TIP3   OH235098   2.846   4.576   3.937  0.7302 -0.2799 -0.0878
 4536TIP3    H135099   2.883   4.659   3.968  0.4172 -0.0561 -0.3131
 4536TIP3    H235100   2.872   4.512   4.003  0.6880  0.0603  0.2580
 4537TIP3   OH235101   1.161   4.504   5.807 -0.0992  0.4993  0.0321
 4537TIP3    H135102   1.165   4.588   5.853 -1.1305  1.6629 -1.9043
 4537TIP3    H235103   1.169   4.438   5.876  3.6390  2.1388  1.3225
 4538TIP3   OH235104   1.880   6.530   4.941 -0.0807 -0.0764  0.4056
 4538TIP3    H135105   1.910   6.606   4.892 -0.4487 -0.1453  0.0671
 4538TIP3    H235106   1.799   6.503   4.897 -0.9257  0.4232  1.6083
 4539TIP3   OH235107   4.937   0.327   3.484 -0.5116 -0.2792  0.2101
 4539TIP3    H135108   5.012   0.270   3.495 -0.1404  0.0937 -0.3847
 4539TIP3    H235109   4.964   0.391   3.418 -1.8907 -1.0678 -1.1590
 4540TIP3   OH235110   0.583   5.200   3.199  0.2343  0.0921 -0.1013
 4540TIP3    H135111   0.590   5.156   3.114  0.1084  0.3436 -0.2446
 4540TIP3    H235112   0.632   5.144   3.259 -1.3521 -1.1440  0.0753
 4541TIP3   OH235113   1.753   1.996   4.555 -0.1478  0.3458 -0.6116
 4541TIP3    H135114   1.840   1.970   4.526 -0.1395 -1.7433  1.1911
 4541TIP3    H235115   1.693   1.955   4.493 -0.0801 -3.1486  1.5269
 4542TIP3   OH235116   1.979   0.935  11.456  0.0771 -0.0683 -0.2506
 4542TIP3    H135117   2.020   0.861  11.412 -2.0403 -0.6093 -1.3701
 4542TIP3    H235118   1.893   0.943  11.416 -0.9457  1.0346  2.0247
 4543TIP3   OH235119   3.939   3.236   3.995 -0.4381 -0.0501 -0.1327
 4543TIP3    H135120   4.015   3.292   3.979 -1.7240  1.5727 -0.5163
 4543TIP3    H235121   3.975   3.147   3.988  1.6602  0.6758  0.7346
 4544TIP3   OH235122   4.695   4.598   2.464  0.7104 -0.5546 -0.4281
 4544TIP3    H135123   4.784   4.566   2.473  0.8996  0.1201  0.0826
 4544TIP3    H235124   4.697   4.655   2.387  1.3588  1.6729  1.1929
 4545TIP3   OH235125   1.709   4.607   2.498 -0.2304 -0.1385 -0.6181
 4545TIP3    H135126   1.780   4.544   2.490 -0.6203 -0.7970  0.9456
 4545TIP3    H235127   1.746   4.690   2.468  0.7563 -0.7840 -1.1742
 4546TIP3   OH235128   2.554   2.081   1.544 -0.7515 -0.5939  0.0440
 4546TIP3    H135129   2.478   2.109   1.595 -1.3134  0.1596 -1.1731
 4546TIP3    H235130   2.522   2.009   1.490 -0.8354  0.2670 -1.0779
 4547TIP3   OH235131   3.412   6.318   4.581 -0.5752  0.1316 -0.3002
 4547TIP3    H135132   3.317   6.319   4.595 -0.4145 -0.4157  0.8659
 4547TIP3    H235133   3.437   6.227   4.598 -0.1128 -0.1868 -2.4900
 4548TIP3   OH235134   1.910   3.611  15.501 -0.2905 -0.0023  0.1892
 4548TIP3    H135135   1.903   3.516  15.494 -2.0246  0.1923 -0.8984
 4548TIP3    H235136   1.827   3.644  15.468  0.8435  1.9599 -0.7738
 4549TIP3   OH235137   0.976   3.930   1.769  0.3717 -0.4740  0.3818
 4549TIP3    H135138   0.932   3.880   1.838 -2.4694  0.2497 -0.8427
 4549TIP3    H235139   0.969   4.021   1.797 -0.8289 -0.1702 -0.8031
 4550TIP3   OH235140   2.700   1.910  11.584 -0.1588 -0.2648 -0.0752
 4550TIP3    H135141   2.607   1.888  11.588 -0.8282  1.5817 -3.5692
 4550TIP3    H235142   2.702   2.005  11.572  2.0814 -0.5542 -2.4195
 4551TIP3   OH235143   3.795   0.353  12.892  0.3609  0.1909  0.0680
 4551TIP3    H135144   3.813   0.303  12.972 -1.0377  1.0622  0.9598
 4551TIP3    H235145   3.801   0.445  12.919 -2.1127  0.5069 -0.3217
 4552TIP3   OH235146   3.929   5.516  13.693 -0.0976 -0.7417 -0.1540
 4552TIP3    H135147   3.833   5.521  13.690 -0.0583 -0.5844 -1.9260
 4552TIP3    H235148   3.958   5.575  13.623  1.2593 -1.3700 -0.1370
 4553TIP3   OH235149   5.860   6.331  17.062 -0.2788 -0.1258 -0.2456
 4553TIP3    H135150   5.876   6.237  17.070 -1.4929 -0.3067  0.1816
 4553TIP3    H235151   5.881   6.366  17.148 -1.0719 -0.2094 -0.0087
 4554TIP3   OH235152   3.326   6.760  14.622 -0.3680 -0.1035  0.2287
 4554TIP3    H135153   3.416   6.779  14.597  0.7793 -2.6134  2.1440
 4554TIP3    H235154   3.315   6.802  14.707 -0.2924 -1.4615  0.9365
 4555TIP3   OH235155   2.263   5.842   4.332 -0.5163  0.0554  0.0050
 4555TIP3    H135156   2.329   5.829   4.264 -1.0716  1.5980 -0.8602
 4555TIP3    H235157   2.300   5.908   4.390 -1.5191  1.3480 -0.8072
 4556TIP3   OH235158   6.100   5.753   1.345  0.3619 -0.0354 -0.1304
 4556TIP3    H135159   6.096   5.843   1.312  2.0170 -0.1670 -0.7412
 4556TIP3    H235160   6.071   5.699   1.272 -0.9513  0.0211  0.3460
 4557TIP3   OH235161   0.588   5.846  10.445 -0.0686  0.0233  0.1708
 4557TIP3    H135162   0.523   5.893  10.393 -2.6008 -0.9772  2.3226
 4557TIP3    H235163   0.669   5.895  10.432 -1.3859  1.6862 -2.0641
 4558TIP3   OH235164   6.238   3.561   4.843 -0.0578 -0.2588  0.0230
 4558TIP3    H135165   6.196   3.496   4.788 -0.3974 -1.1083  1.2587
 4558TIP3    H235166   6.330   3.561   4.816 -0.1117 -1.0724 -0.1512
 4559TIP3   OH235167   3.499   4.727   5.463 -0.5619 -0.1311  0.1287
 4559TIP3    H135168   3.463   4.656   5.517  1.4632 -0.8402  0.5874
 4559TIP3    H235169   3.461   4.712   5.377  1.3014 -2.9635 -0.2817
 4560TIP3   OH235170   3.450   5.014  13.534  0.1229  0.6345  0.4192
 4560TIP3    H135171   3.387   4.943  13.523  1.0386 -0.1136 -0.0101
 4560TIP3    H235172   3.511   4.982  13.601  0.1779  1.2701  0.6816
 4561TIP3   OH235173   0.724   4.933   2.403 -0.5446 -0.1894  0.8723
 4561TIP3    H135174   0.779   5.004   2.371 -0.6058 -0.2620  0.6000
 4561TIP3    H235175   0.636   4.972   2.408 -0.6751 -0.4001  0.2033
 4562TIP3   OH235176   3.812   6.178  16.915  0.0553  0.1296  0.1189
 4562TIP3    H135177   3.804   6.273  16.904  0.2810 -0.0499 -1.7222
 4562TIP3    H235178   3.880   6.152  16.852  1.5307 -0.9762  2.0949
 4563TIP3   OH235179   4.131   5.293  15.513  0.2866  0.4327  0.3243
 4563TIP3    H135180   4.225   5.285  15.497  0.4326  2.2174  0.0920
 4563TIP3    H235181   4.112   5.229  15.581  1.5595 -0.3287 -0.0219
 4564TIP3   OH235182   2.298   2.755  13.342 -0.5205 -0.2216 -0.1047
 4564TIP3    H135183   2.290   2.811  13.419  3.1041 -1.1355  1.0445
 4564TIP3    H235184   2.259   2.671  13.368 -2.1489  0.4418 -0.3815
 4565TIP3   OH235185   4.354   5.711   3.124 -0.6485  0.3968  0.2843
 4565TIP3    H135186   4.384   5.712   3.215 -0.2304 -0.1005  0.1537
 4565TIP3    H235187   4.367   5.800   3.093  1.1764  0.0689  0.0726
 4566TIP3   OH235188   1.108   5.502   2.346  0.2519 -0.0643 -0.1251
 4566TIP3    H135189   1.076   5.562   2.414  0.3694 -0.5613  0.3790
 4566TIP3    H235190   1.030   5.484   2.293  0.6507  2.0786 -1.4840
 4567TIP3   OH235191   4.893   2.639  13.578  0.5846 -0.5002 -0.7358
 4567TIP3    H135192   4.949   2.584  13.632 -0.8088  0.9263  2.2676
 4567TIP3    H235193   4.928   2.727  13.588 -0.1862 -0.0917 -1.5154
 4568TIP3   OH235194   0.999   1.866   3.206 -0.5338 -0.1914  0.2670
 4568TIP3    H135195   1.005   1.785   3.155  1.6551 -0.5631  1.0788
 4568TIP3    H235196   1.013   1.838   3.297  2.3148  1.3477  0.3419
 4569TIP3   OH235197   1.337   1.438   4.891  0.1086 -0.2785 -0.0051
 4569TIP3    H135198   1.423   1.473   4.913  0.4273  0.6561 -2.5787
 4569TIP3    H235199   1.278   1.513   4.901 -0.4665 -0.9469  1.8794
 4570TIP3   OH235200   6.177   2.091  15.531 -0.0254 -0.4772 -0.0121
 4570TIP3    H135201   6.085   2.105  15.509 -0.7466 -0.9341  2.5698
 4570TIP3    H235202   6.186   1.996  15.536  0.2612 -0.3976  1.0328
 4571TIP3   OH235203   3.987   6.527   2.591 -0.3099 -0.2470 -0.6398
 4571TIP3    H135204   3.973   6.581   2.669 -1.5928  0.1980 -1.1642
 4571TIP3    H235205   3.902   6.486   2.574  0.3333 -1.4776 -0.9673
 4572TIP3   OH235206   1.219   5.210   4.262  0.5724  0.9827  0.2579
 4572TIP3    H135207   1.159   5.261   4.316  0.2842  2.5974 -1.5690
 4572TIP3    H235208   1.171   5.194   4.181  2.2832  1.5685 -0.8895
 4573TIP3   OH235209   3.538   6.460  16.472 -0.4757 -0.1786 -0.4510
 4573TIP3    H135210   3.535   6.377  16.426  3.6853 -1.5668  1.5970
 4573TIP3    H235211   3.517   6.438  16.563  2.8723  0.5471  0.5626
 4574TIP3   OH235212   4.185   5.033   4.117  0.0929 -0.0018 -0.4672
 4574TIP3    H135213   4.234   5.109   4.085  0.0346  0.0447 -0.4465
 4574TIP3    H235214   4.166   4.983   4.038  2.2209 -1.2396 -0.2261
 4575TIP3   OH235215   5.227   0.860   4.811  0.3292 -0.1663  0.0347
 4575TIP3    H135216   5.257   0.770   4.807  0.2943 -0.1463 -0.8102
 4575TIP3    H235217   5.176   0.872   4.730 -0.8366  0.1842  0.8138
 4576TIP3   OH235218   6.334   0.812   5.774 -0.6178 -0.3535  0.6781
 4576TIP3    H135219   6.388   0.866   5.715  0.0704 -0.5870  1.0861
 4576TIP3    H235220   6.376   0.821   5.860 -0.6346 -1.3545  0.7997
 4577TIP3   OH235221   1.638   6.238  15.225  0.0524  0.3022 -0.1459
 4577TIP3    H135222   1.689   6.257  15.146  1.8820 -1.4836  0.5853
 4577TIP3    H235223   1.679   6.291  15.293  2.3793 -2.7589  0.9221
 4578TIP3   OH235224   0.079   0.403   5.091 -0.6599  0.6437  0.0138
 4578TIP3    H135225   0.117   0.429   5.175  1.3754 -0.8649 -0.3941
 4578TIP3    H235226  -0.013   0.389   5.110 -0.6607  2.4016  1.5098
 4579TIP3   OH235227   0.205   0.945  17.166  0.0799 -0.0608 -0.1519
 4579TIP3    H135228   0.197   0.859  17.127  0.8538 -0.3247  0.2591
 4579TIP3    H235229   0.118   0.985  17.154  0.0103 -0.5098 -1.2199
 4580TIP3   OH235230   5.294   5.700   1.341 -0.2348  0.5664 -0.4035
 4580TIP3    H135231   5.271   5.639   1.270  0.3167  0.1208 -0.2058
 4580TIP3    H235232   5.264   5.655   1.421 -0.4946  0.8888 -0.3202
 4581TIP3   OH235233   5.659   0.384   0.405  0.5765  0.3122 -0.1868
 4581TIP3    H135234   5.659   0.442   0.481  0.3699 -0.6342  0.5410
 4581TIP3    H235235   5.703   0.434   0.337 -0.9423  1.9209 -0.0209
 4582TIP3   OH235236   2.433   0.146  12.648 -0.0385 -0.2066 -0.9165
 4582TIP3    H135237   2.376   0.112  12.580  0.1525 -1.6514 -0.3768
 4582TIP3    H235238   2.418   0.088  12.723  0.5866  0.6729 -0.0947
 4583TIP3   OH235239   3.290   5.722   2.780  0.3181  0.5965  0.3622
 4583TIP3    H135240   3.271   5.628   2.781  1.4094  0.3633  0.2778
 4583TIP3    H235241   3.276   5.751   2.870 -1.8584  0.7463  0.0005
 4584TIP3   OH235242   5.094   1.610   2.899 -0.1894 -0.3313 -0.4011
 4584TIP3    H135243   5.145   1.573   2.827  0.3780 -0.2140 -0.0642
 4584TIP3    H235244   5.007   1.624   2.862  0.8442  2.4741 -1.9279
 4585TIP3   OH235245   0.001   4.892   6.116  0.1336 -0.0921  0.0479
 4585TIP3    H135246   0.038   4.945   6.046  0.5468 -0.7430 -0.2329
 4585TIP3    H235247   0.075   4.839   6.148  0.0264  0.4170  1.1775
 4586TIP3   OH235248   6.128   0.418   6.755 -0.1842  0.0088 -0.0899
 4586TIP3    H135249   6.152   0.421   6.848  0.9830 -1.0101 -0.3370
 4586TIP3    H235250   6.209   0.442   6.710 -0.5344 -0.2643 -0.8609
 4587TIP3   OH235251   0.726   1.353   2.300  0.4629  0.1738 -0.3303
 4587TIP3    H135252   0.724   1.425   2.238 -0.7551  0.4069 -0.0220
 4587TIP3    H235253   0.718   1.274   2.246  0.3518  0.3329 -0.5450
 4588TIP3   OH235254   0.170   5.981  11.759 -0.0462 -0.0419  0.2689
 4588TIP3    H135255   0.215   5.997  11.842  0.1549 -1.6483  0.4915
 4588TIP3    H235256   0.111   5.908  11.778 -0.7578  0.2702 -0.7339
 4589TIP3   OH235257   1.585   6.341  14.289  0.0270  0.2394  0.4189
 4589TIP3    H135258   1.572   6.379  14.376 -0.8212  1.7798 -0.3537
 4589TIP3    H235259   1.499   6.342  14.249  0.4868 -0.0618 -0.5948
 4590TIP3   OH235260   0.950   4.286  16.324  0.0152 -0.0878  0.0770
 4590TIP3    H135261   0.908   4.289  16.410  1.5480 -0.6497  0.8789
 4590TIP3    H235262   0.903   4.218  16.276  0.8998 -1.7170  1.4605
 4591TIP3   OH235263   0.146   6.627   0.826  0.2048 -0.4045  0.4550
 4591TIP3    H135264   0.062   6.582   0.821 -0.0959  0.2890 -0.7977
 4591TIP3    H235265   0.186   6.613   0.740  1.4768 -0.9362  1.1204
 4592TIP3   OH235266   4.464   5.188   5.058 -0.4560 -0.2915  0.3648
 4592TIP3    H135267   4.422   5.222   4.979  0.9533  0.5339 -0.0431
 4592TIP3    H235268   4.420   5.104   5.074 -0.5356 -0.6305 -1.4953
 4593TIP3   OH235269   5.492   5.840  12.381 -0.8992  0.3697 -0.4541
 4593TIP3    H135270   5.549   5.917  12.387  0.4646 -0.4988 -1.8255
 4593TIP3    H235271   5.551   5.766  12.389 -2.1539 -0.5490  0.4364
 4594TIP3   OH235272   0.188   3.107  15.038  0.0088  0.4810  0.0675
 4594TIP3    H135273   0.253   3.115  15.108  1.1340 -0.0003 -0.8985
 4594TIP3    H235274   0.193   3.190  14.990 -0.8335  0.8513  0.6086
 4595TIP3   OH235275   4.311   6.411   0.347 -0.1187 -0.1615  0.0499
 4595TIP3    H135276   4.306   6.435   0.254  0.1613  2.4376  0.6580
 4595TIP3    H235277   4.402   6.428   0.371 -0.2517 -0.6004  0.8616
 4596TIP3   OH235278   2.565   0.860  15.345  0.0675  0.4839 -0.4121
 4596TIP3    H135279   2.619   0.843  15.422  0.6322  0.0077 -0.9145
 4596TIP3    H235280   2.497   0.792  15.348 -0.7453  1.3153  0.4299
 4597TIP3   OH235281   5.176   2.174  13.202 -0.4503 -0.7085  0.1227
 4597TIP3    H135282   5.151   2.207  13.288 -0.6530 -1.8892  0.5236
 4597TIP3    H235283   5.107   2.112  13.178  0.4252 -1.5998 -0.1621
 4598TIP3   OH235284   4.239   0.537  11.837  0.1850 -0.3326 -0.6956
 4598TIP3    H135285   4.147   0.515  11.827  0.5476 -1.6446 -1.2405
 4598TIP3    H235286   4.267   0.490  11.916  0.3749  0.1144 -0.4932
 4599TIP3   OH235287   3.154   1.407  13.131  0.6753 -0.5248 -0.2493
 4599TIP3    H135288   3.211   1.346  13.178  1.3480  0.5717  0.4080
 4599TIP3    H235289   3.208   1.486  13.121 -0.7575  0.5739  0.4898
 4600TIP3   OH235290   5.604   5.383  15.567 -0.0015 -0.0703  0.5567
 4600TIP3    H135291   5.540   5.312  15.570  0.4072 -0.4742  0.0508
 4600TIP3    H235292   5.682   5.346  15.608 -0.2895  0.6387  1.7555
 4601TIP3   OH235293   1.336   2.351  15.266  0.6708  0.3339  0.3925
 4601TIP3    H135294   1.398   2.414  15.230 -1.8128  2.8684  0.4345
 4601TIP3    H235295   1.298   2.307  15.189  0.8290  0.4061  0.2741
 4602TIP3   OH235296   5.286   6.820   3.361 -0.1364  0.2740  0.0644
 4602TIP3    H135297   5.291   6.807   3.266  1.0756  1.4312 -0.0419
 4602TIP3    H235298   5.195   6.799   3.383  0.1888 -2.4501 -0.9688
 4603TIP3   OH235299   2.460   1.966  12.562  0.4142  0.7514 -0.0293
 4603TIP3    H135300   2.390   1.908  12.593 -0.3772  1.2452 -0.8629
 4603TIP3    H235301   2.451   2.045  12.616  1.8694 -0.1055  1.5165
 4604TIP3   OH235302   3.636   1.514  13.723  0.3980  0.1823  0.4093
 4604TIP3    H135303   3.643   1.600  13.765  1.3126  0.1076  0.4135
 4604TIP3    H235304   3.713   1.466  13.753  1.2479  0.2397 -1.6114
 4605TIP3   OH235305   5.056   1.720   6.220  0.6554 -0.2778  0.1575
 4605TIP3    H135306   4.985   1.662   6.193  0.6739  0.2102 -0.9743
 4605TIP3    H235307   5.026   1.808   6.197  0.8324  0.1219  1.4231
 4606TIP3   OH235308   6.120   2.875  12.272  0.2143  0.2535 -0.0737
 4606TIP3    H135309   6.181   2.920  12.214 -0.5394  0.0386 -1.0410
 4606TIP3    H235310   6.121   2.926  12.353 -0.4817  1.8940 -1.0922
 4607TIP3   OH235311   2.519   5.101   2.154 -0.1572  0.2486  0.0447
 4607TIP3    H135312   2.434   5.076   2.190 -0.5355  1.3973 -0.0192
 4607TIP3    H235313   2.563   5.018   2.135 -0.4331 -0.3558  2.0002
 4608TIP3   OH235314   6.362   2.209  12.906  0.1931 -0.0704  0.0343
 4608TIP3    H135315   6.391   2.122  12.877 -0.3859 -0.8645  1.7546
 4608TIP3    H235316   6.279   2.193  12.950 -0.7407  1.6027 -1.0720
 4609TIP3   OH235317   2.506   4.914   4.909 -0.1284 -0.3552  0.0456
 4609TIP3    H135318   2.531   4.989   4.856  0.1582 -0.8454 -0.5188
 4609TIP3    H235319   2.565   4.916   4.984 -0.0119 -0.1132 -0.0540
 4610TIP3   OH235320   1.554   1.952   2.209 -0.2146 -0.0680  0.1845
 4610TIP3    H135321   1.541   1.999   2.291 -2.3345 -1.8272  0.8985
 4610TIP3    H235322   1.491   1.991   2.148  0.6393  0.5326 -0.3358
 4611TIP3   OH235323   6.542   4.295  13.571  0.5744 -0.0799  0.6083
 4611TIP3    H135324   6.601   4.328  13.503  0.6938 -1.2230  0.1558
 4611TIP3    H235325   6.573   4.206  13.589 -0.9080 -0.6212  0.4936
 4612TIP3   OH235326   6.755   6.123  11.615 -0.1296 -0.1823  0.6496
 4612TIP3    H135327   6.729   6.206  11.657 -2.5079  0.3954 -1.8148
 4612TIP3    H235328   6.838   6.100  11.656 -1.1234  1.6361  3.8589
 4613TIP3   OH235329   4.622   2.699  15.217 -0.1062 -0.2238  0.7304
 4613TIP3    H135330   4.666   2.782  15.200  1.5165 -1.2232 -0.0207
 4613TIP3    H235331   4.640   2.645  15.140  1.4020 -2.3208  2.4977
 4614TIP3   OH235332   5.879   3.575   4.880  0.2367  0.6629  0.2272
 4614TIP3    H135333   5.790   3.605   4.862  0.4096  1.1011  0.0736
 4614TIP3    H235334   5.894   3.505   4.816 -0.7676 -0.9295  1.7096
 4615TIP3   OH235335   5.522   3.250   0.447 -0.1737 -0.0702 -0.2769
 4615TIP3    H135336   5.479   3.172   0.481  2.0482 -0.8447  0.8337
 4615TIP3    H235337   5.452   3.298   0.403 -2.4100 -0.7070  2.4440
 4616TIP3   OH235338   1.385   2.998  11.335 -0.1170  0.2701 -0.2447
 4616TIP3    H135339   1.298   2.976  11.301 -0.3329  0.8439 -0.0779
 4616TIP3    H235340   1.376   2.991  11.430 -0.1228  0.8325 -0.2029
 4617TIP3   OH235341   3.283   4.317  13.859  0.6579  0.1486  0.0350
 4617TIP3    H135342   3.317   4.304  13.771  0.7002 -0.3956  0.1292
 4617TIP3    H235343   3.347   4.275  13.916  0.2082 -0.2295  0.2660
 4618TIP3   OH235344   4.319   6.370  13.529 -0.6171 -0.1203  0.3448
 4618TIP3    H135345   4.386   6.438  13.534 -2.3792  1.6723  0.6861
 4618TIP3    H235346   4.362   6.290  13.559  0.8284  1.4020  2.4614
 4619TIP3   OH235347   2.080   6.128  16.888 -0.1299 -0.4809  0.3238
 4619TIP3    H135348   2.148   6.114  16.822  0.0694 -0.8623  0.6108
 4619TIP3    H235349   2.027   6.200  16.853 -0.1867 -0.8555 -0.3758
 4620TIP3   OH235350   2.824   2.057  16.201  0.2265  0.3238  0.0249
 4620TIP3    H135351   2.876   2.062  16.281 -0.4364 -0.1650  0.4840
 4620TIP3    H235352   2.872   2.112  16.139  0.6329  0.8768  0.8113
 4621TIP3   OH235353   4.036   5.752   0.863 -0.5822  0.0710 -0.1167
 4621TIP3    H135354   3.972   5.795   0.806 -0.8781 -0.8766 -0.5051
 4621TIP3    H235355   4.039   5.807   0.941 -2.2426 -0.1364  0.1154
 4622TIP3   OH235356   2.588   1.045  11.715 -0.3047 -0.1780 -0.4287
 4622TIP3    H135357   2.518   0.980  11.713 -0.8171  0.3243  0.7807
 4622TIP3    H235358   2.669   0.994  11.709 -0.6195 -1.0908  2.6227
 4623TIP3   OH235359   1.589   6.760  13.335 -0.4114 -0.0336  0.5169
 4623TIP3    H135360   1.564   6.807  13.414  0.6363  0.4025  0.5989
 4623TIP3    H235361   1.565   6.819  13.263  0.7748  0.5881  0.6128
 4624TIP3   OH235362   1.470   4.183   6.777 -0.2847  0.0962  0.7125
 4624TIP3    H135363   1.521   4.137   6.711 -1.2032 -2.8035  1.9202
 4624TIP3    H235364   1.381   4.148   6.767 -1.1300  2.0122  1.3491
 4625TIP3   OH235365   3.613   2.436   2.151  0.3360 -0.4731  0.2641
 4625TIP3    H135366   3.607   2.459   2.058  1.0723 -1.9142 -0.1642
 4625TIP3    H235367   3.553   2.361   2.160  0.8361 -0.8146  0.7759
 4626TIP3   OH235368   3.951   4.037  11.179 -0.4512 -0.4404 -0.1883
 4626TIP3    H135369   4.023   3.976  11.163 -1.6686 -1.4718 -1.9553
 4626TIP3    H235370   3.950   4.094  11.102  0.4443  1.6333  1.2719
 4627TIP3   OH235371   4.535   2.646   2.962 -0.5318 -0.8432  0.0213
 4627TIP3    H135372   4.584   2.673   3.041 -0.0110  1.1805 -0.9616
 4627TIP3    H235373   4.444   2.645   2.990 -0.1647 -2.3780  1.2555
 4628TIP3   OH235374   3.159   1.814   2.063  0.3217  0.0640  0.2032
 4628TIP3    H135375   3.199   1.858   1.989  1.7365  0.2257  1.0485
 4628TIP3    H235376   3.066   1.807   2.040  0.7006  0.3576 -1.4451
 4629TIP3   OH235377   3.175   3.782   4.965  0.5163 -0.4622  0.6656
 4629TIP3    H135378   3.144   3.867   4.932  2.2388  0.0211  0.2776
 4629TIP3    H235379   3.230   3.804   5.041  3.3598 -1.0086 -1.1750
 4630TIP3   OH235380   4.564   0.240   0.631 -0.2759  0.2340 -0.3324
 4630TIP3    H135381   4.561   0.156   0.678 -0.2613  0.4639  0.0781
 4630TIP3    H235382   4.548   0.306   0.699 -0.8752  0.5282 -0.7592
 4631TIP3   OH235383   1.219   6.053   1.673 -0.4002 -0.6957 -0.5281
 4631TIP3    H135384   1.170   6.134   1.689 -1.3704 -1.4006  0.1317
 4631TIP3    H235385   1.306   6.082   1.647 -1.2362  0.5948 -1.9905
 4632TIP3   OH235386   0.424   6.768  12.248  0.6559 -0.3252  0.1401
 4632TIP3    H135387   0.387   6.850  12.281  1.0635 -0.3485  0.6649
 4632TIP3    H235388   0.374   6.700  12.292  0.9460 -0.3572  0.4195
 4633TIP3   OH235389   0.210   6.649   4.216  0.2682  0.1453  0.0361
 4633TIP3    H135390   0.207   6.698   4.298  0.2360 -1.4651  1.0340
 4633TIP3    H235391   0.152   6.574   4.231 -1.9002  1.2800 -2.4538
 4634TIP3   OH235392   4.132   2.361   4.534  0.6630 -1.0215  0.0212
 4634TIP3    H135393   4.225   2.379   4.516  0.0023  2.3523 -0.4218
 4634TIP3    H235394   4.103   2.309   4.459  0.6361  3.6175 -3.4856
 4635TIP3   OH235395   3.610   5.295   2.582  0.6393 -0.1759  0.4002
 4635TIP3    H135396   3.568   5.220   2.541  1.8073 -0.4186 -0.3859
 4635TIP3    H235397   3.612   5.274   2.676  0.7250 -1.0107  0.2104
 4636TIP3   OH235398   2.069   1.338  14.065 -0.1438 -0.4262 -0.5179
 4636TIP3    H135399   2.043   1.430  14.077 -3.2853 -1.1876 -1.1316
 4636TIP3    H235400   2.021   1.291  14.132 -1.1972 -2.0305 -2.3520
 4637TIP3   OH235401   1.075   5.869   3.911 -0.5430  0.1260  0.2177
 4637TIP3    H135402   1.092   5.960   3.937  1.8236  0.0037 -0.7798
 4637TIP3    H235403   1.056   5.874   3.817 -0.6975 -0.3631  0.2225
 4638TIP3   OH235404   2.813   3.880   3.230 -0.5837 -0.3951  0.1791
 4638TIP3    H135405   2.739   3.819   3.222 -0.2884 -1.0648  2.1002
 4638TIP3    H235406   2.891   3.823   3.226 -0.2630  0.0137  0.5346
 4639TIP3   OH235407   5.459   1.076   0.984  0.1513 -0.4655  0.2627
 4639TIP3    H135408   5.365   1.059   0.984 -0.1643  1.1095  2.6140
 4639TIP3    H235409   5.481   1.090   0.892 -1.7095 -1.9196 -0.4183
 4640TIP3   OH235410   4.492   2.206  11.531 -0.3944 -0.0660  0.6311
 4640TIP3    H135411   4.536   2.158  11.602 -0.9428 -1.6983 -0.0957
 4640TIP3    H235412   4.403   2.219  11.563 -0.0812  1.0045  1.0715
 4641TIP3   OH235413   3.527   5.356   0.480  0.1466 -0.5011  0.0097
 4641TIP3    H135414   3.467   5.413   0.433 -0.0555 -0.3835  0.4070
 4641TIP3    H235415   3.614   5.386   0.456  0.0397  0.0919  0.3615
 4642TIP3   OH235416   3.926   3.210   1.912 -0.4581  0.0977 -0.4547
 4642TIP3    H135417   3.872   3.280   1.876 -0.8396 -0.4225 -0.8944
 4642TIP3    H235418   3.877   3.179   1.988 -0.7330 -0.2993 -0.7890
 4643TIP3   OH235419   3.580   1.655   5.050 -0.0090 -0.0247  0.3505
 4643TIP3    H135420   3.662   1.676   5.094 -2.5816  3.1506  3.8726
 4643TIP3    H235421   3.579   1.712   4.973 -0.0267  1.8365  1.6952
 4644TIP3   OH235422   3.756   6.459  16.843  0.0356 -0.3068  0.7558
 4644TIP3    H135423   3.663   6.481  16.842  0.0140 -0.4309 -0.4694
 4644TIP3    H235424   3.795   6.520  16.905 -0.6182  0.7778  0.1096
 4645TIP3   OH235425   0.386   4.840   2.003 -0.3564  0.4482 -0.1697
 4645TIP3    H135426   0.459   4.779   1.989  1.4677  2.7747 -1.3247
 4645TIP3    H235427   0.324   4.818   1.934 -0.3286 -0.9276  0.2202
 4646TIP3   OH235428   2.935   4.263  15.816 -0.0590  0.1349  0.2466
 4646TIP3    H135429   2.877   4.333  15.846  0.0971 -1.2569  4.0674
 4646TIP3    H235430   2.892   4.228  15.738 -2.7428  1.1798  1.2134
 4647TIP3   OH235431   5.679   4.399   4.860  0.0413 -0.1403  0.3795
 4647TIP3    H135432   5.759   4.351   4.881  0.0784 -0.5544 -0.7030
 4647TIP3    H235433   5.706   4.491   4.858  0.3052 -0.2084  0.8699
 4648TIP3   OH235434   2.750   3.116  15.272 -0.0738  0.0948  0.0185
 4648TIP3    H135435   2.679   3.142  15.213 -0.9850  2.6692  2.1495
 4648TIP3    H235436   2.713   3.044  15.323 -0.1383 -0.5005 -0.8576
 4649TIP3   OH235437   1.108   6.046  15.003  0.4547 -0.7216  0.1901
 4649TIP3    H135438   1.128   6.133  14.970 -0.8039 -0.3006  0.5137
 4649TIP3    H235439   1.100   6.058  15.098  0.0485 -1.1380  0.2104
 4650TIP3   OH235440   3.706   0.198   2.205  0.3605 -0.2772 -0.5180
 4650TIP3    H135441   3.701   0.108   2.174  1.6346 -0.1408 -1.1505
 4650TIP3    H235442   3.754   0.193   2.288  0.8670 -0.1437 -0.7944
 4651TIP3   OH235443   1.666   6.521   1.840 -0.3425  0.2025 -0.0916
 4651TIP3    H135444   1.580   6.537   1.879  0.0061  0.2730  0.6681
 4651TIP3    H235445   1.657   6.548   1.749 -1.4171 -0.7595 -0.2856
 4652TIP3   OH235446   2.838   4.582  12.660  0.0503 -0.4253  0.6981
 4652TIP3    H135447   2.758   4.625  12.691 -0.1726 -0.7594  0.5862
 4652TIP3    H235448   2.876   4.544  12.739 -0.8186 -1.7723  0.4818
 4653TIP3   OH235449   5.225   1.936  12.312  0.8110  0.0324  0.2576
 4653TIP3    H135450   5.191   2.003  12.253  0.5893  0.2375  0.6174
 4653TIP3    H235451   5.212   1.972  12.400  2.5795  0.4189  0.3936
 4654TIP3   OH235452   5.098   6.066  15.036  0.5124  0.2207 -0.0224
 4654TIP3    H135453   5.056   5.985  15.007 -0.7288  0.6686  0.4884
 4654TIP3    H235454   5.063   6.133  14.978  0.1211  0.6822  0.7352
 4655TIP3   OH235455   3.191   0.928   4.982  0.0646  0.1505 -0.3394
 4655TIP3    H135456   3.134   0.854   4.961 -0.0949 -0.2188  1.3492
 4655TIP3    H235457   3.220   0.961   4.897 -0.7118 -1.1896 -1.1326
 4656TIP3   OH235458   3.236   0.630  10.709  0.9452 -0.6132 -0.1816
 4656TIP3    H135459   3.234   0.545  10.752 -0.8049 -0.7162 -0.4155
 4656TIP3    H235460   3.268   0.612  10.620 -1.2697 -1.3637 -0.8682
 4657TIP3   OH235461   5.669   5.005   5.723  0.6527 -0.6911  0.5239
 4657TIP3    H135462   5.581   4.984   5.753 -0.1609 -1.6986 -2.3322
 4657TIP3    H235463   5.724   4.933   5.754  0.2040 -0.7821  1.1106
 4658TIP3   OH235464   4.329   3.100   1.445 -0.4593 -0.2157 -0.0349
 4658TIP3    H135465   4.254   3.051   1.410 -0.7532  1.1846 -1.4056
 4658TIP3    H235466   4.395   3.094   1.376  0.3224 -0.5640  0.7385
 4659TIP3   OH235467   1.609   4.633  15.529 -0.1359  0.3622 -0.1363
 4659TIP3    H135468   1.591   4.540  15.512  1.6498  0.0351 -0.2645
 4659TIP3    H235469   1.650   4.634  15.616 -0.1795  1.0405 -0.1219
 4660TIP3   OH235470   5.586   4.729  13.350 -0.8178 -0.3426  0.4342
 4660TIP3    H135471   5.620   4.807  13.306  0.8703 -0.5588  1.3213
 4660TIP3    H235472   5.644   4.658  13.321 -0.8424 -0.8166  1.5209
 4661TIP3   OH235473   5.590   4.962   1.577  0.0211  0.7136 -0.1083
 4661TIP3    H135474   5.505   4.999   1.600 -0.3560 -0.0832 -0.1918
 4661TIP3    H235475   5.591   4.875   1.617  1.3816  1.2592  1.0928
 4662TIP3   OH235476   6.551   1.090   0.774  0.0319  0.0023  0.0483
 4662TIP3    H135477   6.560   1.068   0.866 -0.5300 -0.1030  0.0849
 4662TIP3    H235478   6.576   1.182   0.768  0.8587 -0.2127  0.1653
 4663TIP3   OH235479   5.535   0.855  13.774  0.5291 -0.0746  0.7876
 4663TIP3    H135480   5.448   0.818  13.755  0.4807  0.7956 -0.7924
 4663TIP3    H235481   5.532   0.943  13.736  2.8931 -0.9007 -1.4229
 4664TIP3   OH235482   2.242   1.809   5.839 -0.0869 -0.3163 -1.0282
 4664TIP3    H135483   2.294   1.868   5.893  0.5574 -0.8657 -1.0408
 4664TIP3    H235484   2.154   1.846   5.840  0.3525  0.7343 -1.1751
 4665TIP3   OH235485   1.855   0.613   1.739 -0.5256 -0.0011  0.6224
 4665TIP3    H135486   1.932   0.559   1.755 -0.8814 -0.7114 -0.0003
 4665TIP3    H235487   1.815   0.625   1.825 -0.1377 -0.2738  0.8380
 4666TIP3   OH235488   2.708   3.021   6.204  0.0603  0.2293  0.1699
 4666TIP3    H135489   2.647   2.968   6.257  0.1525  0.5940  0.6405
 4666TIP3    H235490   2.769   3.058   6.268  1.1342 -0.5954 -0.3536
 4667TIP3   OH235491   5.407   2.899  10.405 -0.3239  0.1311  0.1964
 4667TIP3    H135492   5.466   2.835  10.366  0.2809  0.8940 -0.1776
 4667TIP3    H235493   5.355   2.850  10.469  0.0233 -0.7449 -0.1950
 4668TIP3   OH235494   2.744   3.825  16.036 -0.2440  0.5013  0.4334
 4668TIP3    H135495   2.801   3.836  15.961  0.5835  0.4385  1.0509
 4668TIP3    H235496   2.758   3.905  16.088  1.1479 -0.6248  1.8254
 4669TIP3   OH235497   6.564   5.115  13.427 -0.0873  0.5751 -0.3349
 4669TIP3    H135498   6.641   5.106  13.370 -0.5879  0.9988 -1.0946
 4669TIP3    H235499   6.596   5.091  13.514  0.6322 -0.3096 -0.8300
 4670TIP3   OH235500   1.488   5.814   1.122  0.0182  0.2464 -0.5298
 4670TIP3    H135501   1.487   5.905   1.093 -0.1168  0.4149  0.0036
 4670TIP3    H235502   1.480   5.819   1.217 -1.8760 -0.3921 -0.6373
 4671TIP3   OH235503   5.981   2.298  13.361  0.1151  0.0031  0.6485
 4671TIP3    H135504   5.975   2.227  13.425  1.5849 -2.0242 -1.4141
 4671TIP3    H235505   5.899   2.293  13.312  0.4456 -0.6216  0.1560
 4672TIP3   OH235506   3.781   5.928   1.354  0.0704 -0.2962 -0.0054
 4672TIP3    H135507   3.724   5.943   1.429 -0.2593 -4.5640  0.7643
 4672TIP3    H235508   3.723   5.922   1.279  0.0466  0.5026 -0.0525
 4673TIP3   OH235509   5.014   3.217   2.622 -0.5257  0.3533 -0.4489
 4673TIP3    H135510   4.964   3.288   2.581 -0.8318  0.2657 -0.2309
 4673TIP3    H235511   4.960   3.189   2.696 -0.1707  0.2308 -0.2329
 4674TIP3   OH235512   2.710   6.531  13.427 -0.1959  0.4450  0.1079
 4674TIP3    H135513   2.805   6.544  13.431 -0.3530  1.1741  1.6320
 4674TIP3    H235514   2.687   6.494  13.512 -1.2860  0.3244 -0.2345
 4675TIP3   OH235515   2.008   3.408   1.226  0.3562 -0.5338  0.2911
 4675TIP3    H135516   2.019   3.349   1.152  1.9258 -0.3936  0.3787
 4675TIP3    H235517   1.973   3.489   1.188  1.4561 -0.3494 -0.3606
 4676TIP3   OH235518   1.839   2.849  15.701  0.1225 -0.6134 -0.2215
 4676TIP3    H135519   1.856   2.757  15.724  0.3117 -0.8644 -1.3375
 4676TIP3    H235520   1.746   2.850  15.677 -0.1790 -0.2687  0.8919
 4677TIP3   OH235521   1.846   4.832  14.133  0.2021  0.5203  0.0831
 4677TIP3    H135522   1.797   4.813  14.052 -1.1759  0.4630  0.9076
 4677TIP3    H235523   1.935   4.805  14.114 -0.2686 -0.2123 -1.1685
 4678TIP3   OH235524   6.711   2.187  14.844  0.5664  0.1042  0.2345
 4678TIP3    H135525   6.685   2.101  14.809  1.7284  0.7714 -2.4172
 4678TIP3    H235526   6.733   2.239  14.767  2.3665  1.9835  1.9282
 4679TIP3   OH235527   2.100   0.372   2.124  0.4681 -0.2277  0.7436
 4679TIP3    H135528   2.080   0.365   2.217  0.7064 -1.9604  0.6674
 4679TIP3    H235529   2.181   0.323   2.113  0.4860  0.0445 -0.3760
 4680TIP3   OH235530   5.101   3.048  11.109  0.4655 -0.3489  0.2035
 4680TIP3    H135531   5.080   3.043  11.202 -2.3234  0.1916 -0.3521
 4680TIP3    H235532   5.030   3.099  11.071 -0.1592 -3.1742 -2.6903
 4681TIP3   OH235533   2.747   2.609   2.499  0.3003  0.7009  0.3808
 4681TIP3    H135534   2.842   2.602   2.493  0.5222  1.2307  2.7180
 4681TIP3    H235535   2.731   2.698   2.531 -0.9994  0.7474 -0.3382
 4682TIP3   OH235536   4.783   4.957   3.174 -0.2563 -0.4461 -0.5963
 4682TIP3    H135537   4.729   4.983   3.099 -0.4710 -0.2497 -0.3745
 4682TIP3    H235538   4.830   4.879   3.143  1.2353  0.8530 -1.6446
 4683TIP3   OH235539   2.111   6.125  13.931  0.2410 -0.1768 -0.5809
 4683TIP3    H135540   2.170   6.185  13.977 -1.3958 -0.4440  2.0030
 4683TIP3    H235541   2.158   6.042  13.928  0.2486 -0.2429  0.9736
 4684TIP3   OH235542   3.441   0.792  14.525  0.5210 -0.2082 -0.0383
 4684TIP3    H135543   3.413   0.714  14.573  0.1507 -0.1064 -0.0870
 4684TIP3    H235544   3.431   0.864  14.588 -1.1560  0.1177 -0.6355
 4685TIP3   OH235545   1.203   6.728  14.182  0.2890  0.0910 -0.5560
 4685TIP3    H135546   1.296   6.737  14.206 -0.1447 -0.7676  1.5178
 4685TIP3    H235547   1.158   6.791  14.238 -0.3953  0.5165 -1.5783
 4686TIP3   OH235548   1.745   0.573  12.589  0.3295 -0.5117 -0.2659
 4686TIP3    H135549   1.752   0.514  12.664  0.5778  0.0352  0.1497
 4686TIP3    H235550   1.816   0.636  12.602 -0.2886  0.2123 -0.3990
 4687TIP3   OH235551   1.788   3.541  11.482  0.3451  0.0115  0.5074
 4687TIP3    H135552   1.805   3.545  11.388  2.1767  0.5636  0.8427
 4687TIP3    H235553   1.817   3.454  11.508  1.3803  0.4499  0.8417
 4688TIP3   OH235554   0.989   6.126  16.286 -0.4882  0.5691 -0.9195
 4688TIP3    H135555   0.948   6.190  16.228 -1.0132 -0.2698 -1.4803
 4688TIP3    H235556   1.055   6.083  16.232  0.3694  1.1288 -0.3412
 4689TIP3   OH235557   6.048   3.512   6.005  0.5186 -0.0666  0.4095
 4689TIP3    H135558   6.083   3.552   6.085  0.2670 -0.4333  0.7068
 4689TIP3    H235559   6.124   3.499   5.949  0.8688 -0.9211  1.0730
 4690TIP3   OH235560   4.886   5.672  12.455  0.1796 -0.0678 -0.3828
 4690TIP3    H135561   4.870   5.758  12.494 -0.4714 -0.6777  0.7421
 4690TIP3    H235562   4.923   5.690  12.369 -2.3376  1.3681 -1.1982
 4691TIP3   OH235563   6.159   6.620  16.702  0.1937  0.3319 -0.4427
 4691TIP3    H135564   6.195   6.585  16.784 -0.3753 -0.2392 -0.4365
 4691TIP3    H235565   6.155   6.714  16.717 -1.8881  0.0445  0.9955
 4692TIP3   OH235566   6.341   5.551  12.356 -0.0330 -0.5471 -0.3287
 4692TIP3    H135567   6.294   5.574  12.436 -0.4825  0.8531 -0.9905
 4692TIP3    H235568   6.371   5.634  12.320 -0.4301 -1.0934 -1.9818
 4693TIP3   OH235569   3.910   3.657   3.951  0.4869 -0.3728 -0.2426
 4693TIP3    H135570   3.873   3.638   3.865 -0.0267  0.9079 -0.3146
 4693TIP3    H235571   3.943   3.746   3.945  1.5703 -0.6984  0.5236
 4694TIP3   OH235572   1.515   4.297   5.731 -0.1056  0.6861  0.4575
 4694TIP3    H135573   1.548   4.217   5.771  0.3506  0.2223 -0.7967
 4694TIP3    H235574   1.592   4.353   5.724 -0.2123  0.8248  0.3967
 4695TIP3   OH235575   6.804   6.305   4.956 -1.0567 -0.6852 -0.0212
 4695TIP3    H135576   6.743   6.366   4.914 -0.3780 -0.4836 -0.7166
 4695TIP3    H235577   6.770   6.218   4.934 -0.5516 -0.5848 -1.2280
 4696TIP3   OH235578   0.472   3.835  16.163 -0.5106  0.3432 -0.0972
 4696TIP3    H135579   0.530   3.807  16.092 -0.7461  2.0344 -0.9686
 4696TIP3    H235580   0.525   3.896  16.214 -0.4793 -0.5617  0.9530
 4697TIP3   OH235581   0.323   1.786  15.950  0.0734 -0.2458  0.1695
 4697TIP3    H135582   0.262   1.856  15.973  1.8215  1.4226 -0.1805
 4697TIP3    H235583   0.402   1.805  16.000  0.6031 -1.9576  0.0362
 4698TIP3   OH235584   4.465   4.132  16.060 -0.1752 -0.2908 -0.0175
 4698TIP3    H135585   4.453   4.187  15.982  1.0374  0.3100  0.2011
 4698TIP3    H235586   4.381   4.137  16.105 -0.1029  1.4140 -0.0101
 4699TIP3   OH235587   4.294   4.083   1.953 -0.0149  0.2916  0.1430
 4699TIP3    H135588   4.216   4.095   2.007  0.8976  2.7029  1.0303
 4699TIP3    H235589   4.339   4.008   1.992 -2.1941 -1.5863 -0.8235
 4700TIP3   OH235590   0.164   1.081  10.928  0.0765 -0.5515  0.1335
 4700TIP3    H135591   0.123   1.167  10.916  1.1063 -0.2900 -1.6895
 4700TIP3    H235592   0.097   1.028  10.972 -0.4708  1.2479  1.5132
 4701TIP3   OH235593   2.407   1.296  12.085  0.4116  0.2643  0.2829
 4701TIP3    H135594   2.377   1.381  12.054 -2.3463 -0.5492  0.6090
 4701TIP3    H235595   2.368   1.288  12.172  1.8987 -0.6993  0.8701
 4702TIP3   OH235596   6.652   5.469   4.036  0.4676 -0.4248 -0.4616
 4702TIP3    H135597   6.654   5.375   4.021 -1.3117 -1.0494  2.8678
 4702TIP3    H235598   6.700   5.482   4.118  0.5422  1.5642 -0.7893
 4703TIP3   OH235599   0.081   4.988   6.637  0.1705 -0.3270 -0.4335
 4703TIP3    H135600   0.173   5.009   6.620 -0.0183  0.0737 -0.9486
 4703TIP3    H235601   0.080   4.893   6.646  0.7526 -0.2729  0.2836
 4704TIP3   OH235602   3.011   4.101  14.605  0.2023  0.1510  0.4265
 4704TIP3    H135603   3.097   4.139  14.625  0.3425  0.0881 -0.0353
 4704TIP3    H235604   2.994   4.041  14.677  0.5010  0.2453  0.5777
 4705TIP3   OH235605   2.808   3.691  13.724  0.1545  0.7031  0.1013
 4705TIP3    H135606   2.767   3.637  13.657 -1.1211  0.3537  1.1563
 4705TIP3    H235607   2.790   3.781  13.695 -0.6856  0.5545  0.1544
 4706TIP3   OH235608   1.382   0.466  13.158  0.2179 -0.0956 -0.0627
 4706TIP3    H135609   1.461   0.435  13.115  1.9428  1.6586  1.7159
 4706TIP3    H235610   1.384   0.561  13.147 -1.4160  0.0140  0.3948
 4707TIP3   OH235611   2.551   1.661   1.183 -0.6464 -0.2186 -0.3586
 4707TIP3    H135612   2.511   1.576   1.164  1.0392 -0.7659 -1.5361
 4707TIP3    H235613   2.517   1.719   1.115 -2.6112  0.3253  1.0564
 4708TIP3   OH235614   1.951   3.482   1.940 -0.4675  0.0295  0.1623
 4708TIP3    H135615   2.026   3.423   1.949  0.1184  0.9449  1.5289
 4708TIP3    H235616   1.888   3.450   2.004 -0.7014  0.0603 -0.0530
 4709TIP3   OH235617   4.538   2.095   0.345  0.9099  0.1801 -0.0370
 4709TIP3    H135618   4.447   2.119   0.365  0.4996 -1.3418  0.0137
 4709TIP3    H235619   4.588   2.174   0.365 -0.1350  0.3504  2.0514
 4710TIP3   OH235620   6.209   1.607   1.205  0.0220 -0.1077  0.0979
 4710TIP3    H135621   6.260   1.526   1.204 -1.8959 -1.3639  1.8920
 4710TIP3    H235622   6.124   1.582   1.170 -0.1470  1.4659 -0.6599
 4711TIP3   OH235623   4.187   2.512  11.720  0.1187  0.0442  0.0476
 4711TIP3    H135624   4.098   2.539  11.697 -0.5825 -2.2300  0.0127
 4711TIP3    H235625   4.220   2.470  11.641  0.6762 -0.4491  0.5474
 4712TIP3   OH235626   5.392   2.951   0.764  0.4056  0.0118  0.3883
 4712TIP3    H135627   5.343   2.901   0.829 -0.3981 -0.0769 -0.2637
 4712TIP3    H235628   5.443   3.015   0.814 -2.3019  1.7929  0.9892
 4713TIP3   OH235629   3.657   0.058   1.418 -0.3968  0.3763 -1.0420
 4713TIP3    H135630   3.605   0.124   1.373 -1.0701  1.4681  1.2428
 4713TIP3    H235631   3.659   0.087   1.509 -1.6348 -3.2977  0.2717
 4714TIP3   OH235632   4.090   6.077  14.440 -0.4518 -0.1290  0.0495
 4714TIP3    H135633   4.006   6.032  14.436 -0.1357 -0.7920  0.6523
 4714TIP3    H235634   4.069   6.170  14.436 -1.1994 -0.2990  0.0587
 4715TIP3   OH235635   2.897   1.933  12.687  0.0990  0.1642 -0.0033
 4715TIP3    H135636   2.831   1.891  12.632 -0.6276 -0.2591  1.1955
 4715TIP3    H235637   2.966   1.959  12.625 -1.2771  0.8287 -1.2899
 4716TIP3   OH235638   0.745   3.528  11.915  0.2948  0.1824 -0.0674
 4716TIP3    H135639   0.791   3.507  11.834 -1.9691 -2.0002 -0.8560
 4716TIP3    H235640   0.730   3.623  11.911 -0.7098 -0.0503 -2.7401
 4717TIP3   OH235641   4.396   1.716   0.614  0.3046 -0.0355 -0.2457
 4717TIP3    H135642   4.456   1.754   0.550 -0.1270  0.6604 -0.2408
 4717TIP3    H235643   4.443   1.640   0.649  0.7455 -0.1258 -1.0203
 4718TIP3   OH235644   5.916   2.355  15.059 -0.3185 -0.5280  0.1477
 4718TIP3    H135645   5.977   2.314  14.999 -2.4407 -0.2541 -2.2924
 4718TIP3    H235646   5.883   2.283  15.113 -1.7589 -1.5876 -2.0747
 4719TIP3   OH235647   0.699   5.470   3.532  0.7364 -0.3957  0.0662
 4719TIP3    H135648   0.684   5.528   3.606  0.7805 -0.3944  0.0739
 4719TIP3    H235649   0.791   5.445   3.539  0.4805 -1.1965  0.5931
 4720TIP3   OH235650   4.302   2.642   3.709  0.3065  0.5099 -0.4279
 4720TIP3    H135651   4.269   2.718   3.756  1.4548  0.6695  0.1577
 4720TIP3    H235652   4.224   2.596   3.679 -0.5518 -0.3524  2.8343
 4721TIP3   OH235653   1.943   2.842   3.598  0.0035 -0.1543  0.1874
 4721TIP3    H135654   1.922   2.893   3.520 -1.3478  0.0088  0.6482
 4721TIP3    H235655   1.908   2.894   3.671  1.8261  0.0169  0.9672
 4722TIP3   OH235656   5.785   3.350  14.332 -0.4593  0.0518  0.0566
 4722TIP3    H135657   5.776   3.397  14.415 -1.2798 -2.2507  1.3320
 4722TIP3    H235658   5.696   3.319  14.312 -0.7276  2.6115 -2.9652
 4723TIP3   OH235659   4.834   3.940  13.151  0.0944 -0.3011  0.2045
 4723TIP3    H135660   4.894   3.877  13.112 -0.3202 -1.4731  1.4052
 4723TIP3    H235661   4.813   3.903  13.237 -1.2813  0.7641  0.3443
 4724TIP3   OH235662   0.480   1.815  11.266 -0.3191  0.0956 -0.3777
 4724TIP3    H135663   0.553   1.755  11.284 -0.5366 -0.4632 -1.3353
 4724TIP3    H235664   0.417   1.762  11.218  0.5307  1.7141 -3.3816
 4725TIP3   OH235665   5.187   5.895  14.227  0.7729  0.1396 -0.4661
 4725TIP3    H135666   5.212   5.949  14.152  0.4553  0.8426 -0.0728
 4725TIP3    H235667   5.149   5.816  14.189 -1.7644  1.5826 -1.0767
 4726TIP3   OH235668   0.781   6.582  14.994 -0.2532 -0.3164 -0.1632
 4726TIP3    H135669   0.688   6.564  14.976 -0.6058 -0.4577  1.6835
 4726TIP3    H235670   0.828   6.511  14.950 -1.0729 -0.7279 -0.3881
 4727TIP3   OH235671   0.946   1.830   0.675  0.0518 -0.4768 -0.5154
 4727TIP3    H135672   0.923   1.808   0.584  0.7608 -1.3255 -0.4969
 4727TIP3    H235673   1.041   1.821   0.678 -0.1443 -2.3549  0.8079
 4728TIP3   OH235674   5.891   2.411   1.040  0.6989 -0.2015  0.2098
 4728TIP3    H135675   5.795   2.405   1.035  0.4942 -0.5470  3.2741
 4728TIP3    H235676   5.919   2.322   1.059  1.7244 -0.2665 -1.5489
 4729TIP3   OH235677   3.425   1.551   4.219 -0.3958  0.2425  0.4044
 4729TIP3    H135678   3.377   1.561   4.301 -1.4331  0.1170 -0.1848
 4729TIP3    H235679   3.416   1.636   4.176 -1.2502 -0.2209 -0.3317
 4730TIP3   OH235680   1.626   1.955  12.066  0.2728  0.4450  0.3914
 4730TIP3    H135681   1.667   1.875  12.034 -3.7136 -2.3241  1.7438
 4730TIP3    H235682   1.633   1.949  12.162  1.4680  2.6192  0.4693
 4731TIP3   OH235683   5.360   2.750  12.744  0.8125  0.1203  0.2070
 4731TIP3    H135684   5.331   2.764  12.653  2.0860 -0.9148 -0.3810
 4731TIP3    H235685   5.280   2.732  12.792  0.2612 -0.7744 -1.0109
 4732TIP3   OH235686   2.662   3.728   1.566 -0.0118  0.1655  0.3323
 4732TIP3    H135687   2.613   3.689   1.639 -1.6336  0.7343 -0.4141
 4732TIP3    H235688   2.657   3.822   1.582  0.7098  0.2338  0.1585
 4733TIP3   OH235689   0.788   2.164   2.675 -0.3177  0.0892  0.2479
 4733TIP3    H135690   0.698   2.188   2.698 -0.5184 -1.2794  0.9739
 4733TIP3    H235691   0.784   2.142   2.582 -0.9952 -1.0746  0.5385
 4734TIP3   OH235692   4.489   5.616  11.452  0.2475  0.2692  0.2293
 4734TIP3    H135693   4.555   5.547  11.455  1.0222  1.0578  2.1360
 4734TIP3    H235694   4.539   5.697  11.442 -0.4937  0.7684  0.4771
 4735TIP3   OH235695   6.296   5.055   3.792  0.1385  0.0826 -0.3060
 4735TIP3    H135696   6.339   4.971   3.803  2.0407  0.9917 -0.6083
 4735TIP3    H235697   6.283   5.088   3.881  0.0836 -0.1941 -0.2137
 4736TIP3   OH235698   3.429   3.352   4.300 -0.0043  0.1435  0.6228
 4736TIP3    H135699   3.389   3.401   4.228  0.2087  2.0545  1.7589
 4736TIP3    H235700   3.389   3.266   4.297 -2.3488  1.2168  0.1755
 4737TIP3   OH235701   1.749   2.201   4.742 -0.4668  0.0382  0.4739
 4737TIP3    H135702   1.789   2.122   4.706 -2.5051 -0.9301  0.2559
 4737TIP3    H235703   1.819   2.266   4.741  1.0248 -1.5405 -0.0733
 4738TIP3   OH235704   1.520   0.592  15.926  0.0719 -0.5903  0.5111
 4738TIP3    H135705   1.580   0.547  15.985  0.9699  0.8634  0.7248
 4738TIP3    H235706   1.481   0.662  15.979 -2.6059 -2.1410  0.6600
 4739TIP3   OH235707   4.546   0.471  13.134 -0.2341 -0.5092 -0.2988
 4739TIP3    H135708   4.488   0.537  13.096  1.3794  0.9603 -0.2667
 4739TIP3    H235709   4.494   0.390  13.134 -1.1251 -0.0086 -3.4028
 4740TIP3   OH235710   5.117   3.352   3.919 -0.5260  0.7500  0.3269
 4740TIP3    H135711   5.206   3.366   3.949 -0.5713 -0.5469  1.1001
 4740TIP3    H235712   5.118   3.264   3.882 -1.4202  0.8459  0.0641
 4741TIP3   OH235713   1.918   3.483   3.278  0.4098  0.6387  0.1352
 4741TIP3    H135714   1.827   3.512   3.289 -0.3418 -1.7060  0.3586
 4741TIP3    H235715   1.959   3.501   3.362 -0.1267  0.7843  0.3682
 4742TIP3   OH235716   4.479   6.766  14.536 -0.0533  0.5985 -0.1651
 4742TIP3    H135717   4.573   6.760  14.521 -0.0112 -0.1497  0.3791
 4742TIP3    H235718   4.442   6.785  14.450  0.5363  0.3179 -0.4823
 4743TIP3   OH235719   1.539   6.526  15.529 -0.4888  0.3445 -0.4065
 4743TIP3    H135720   1.477   6.526  15.456 -2.1240 -0.9308  0.9412
 4743TIP3    H235721   1.615   6.574  15.496 -0.6309 -1.3573 -3.4204
 4744TIP3   OH235722   3.749   3.383  16.352 -0.1244 -0.2931 -0.0435
 4744TIP3    H135723   3.706   3.298  16.358  1.9279 -1.2068  3.0416
 4744TIP3    H235724   3.826   3.367  16.298  0.2515 -0.4363  0.5231
 4745TIP3   OH235725   2.798   6.782   3.119  0.0389  0.1521  0.3351
 4745TIP3    H135726   2.892   6.767   3.128  0.2668  2.0217  1.2015
 4745TIP3    H235727   2.763   6.697   3.090  1.8802 -0.7517  0.6958
 4746TIP3   OH235728   4.861   5.727   0.862  0.7332  0.4068  0.1474
 4746TIP3    H135729   4.920   5.755   0.792  0.5142  1.1453  0.2479
 4746TIP3    H235730   4.856   5.803   0.921 -0.8886  0.6352 -0.2484
 4747TIP3   OH235731   0.188   3.003   4.768 -0.3339 -0.2011 -0.3986
 4747TIP3    H135732   0.260   2.980   4.827  0.2317 -0.8790 -1.3392
 4747TIP3    H235733   0.115   3.024   4.826  1.2617  2.8091  0.6860
 4748TIP3   OH235734   2.272   5.065  11.415  0.1611 -0.5088  0.5465
 4748TIP3    H135735   2.315   5.014  11.347  2.4309  2.0180  0.0335
 4748TIP3    H235736   2.325   5.052  11.493  0.0761  0.1024  0.7129
 4749TIP3   OH235737   1.946   6.061  15.010  0.0930 -0.1452  0.1128
 4749TIP3    H135738   1.960   6.143  14.962 -0.9651 -0.4047 -0.6506
 4749TIP3    H235739   1.879   6.082  15.074  1.2913  0.1197  1.3136
 4750TIP3   OH235740   0.438   0.053  13.142 -0.1706 -0.7963  1.0609
 4750TIP3    H135741   0.531   0.041  13.159  0.3689  0.3720 -0.9505
 4750TIP3    H235742   0.422   0.007  13.059 -1.0799  0.1719  0.6815
 4751TIP3   OH235743   0.523   6.105   0.668 -0.3546  0.1060  0.6183
 4751TIP3    H135744   0.531   6.097   0.572  0.2047  0.7366  0.6089
 4751TIP3    H235745   0.499   6.017   0.697 -0.8675 -0.0168 -0.1347
 4752TIP3   OH235746   0.623   6.386   6.017  0.2010  0.0572 -0.2917
 4752TIP3    H135747   0.610   6.381   5.922  0.4531 -0.2980 -0.3097
 4752TIP3    H235748   0.598   6.475   6.040 -0.0328  0.0905 -0.6665
 4753TIP3   OH235749   4.343   5.793  13.573 -0.0418 -0.6137 -0.7129
 4753TIP3    H135750   4.401   5.770  13.645  0.5020 -2.7946 -1.8264
 4753TIP3    H235751   4.401   5.810  13.499 -0.7330 -1.1543 -1.3863
 4754TIP3   OH235752   1.174   0.201   5.324 -0.0031  0.2737 -0.2389
 4754TIP3    H135753   1.164   0.267   5.393  0.7329 -1.1866  1.3067
 4754TIP3    H235754   1.265   0.207   5.297  0.0160  0.0384 -0.2319
 4755TIP3   OH235755   5.103   5.563   2.990  0.0022 -0.6474  0.0664
 4755TIP3    H135756   5.156   5.642   2.986  0.3064 -0.9199 -1.3983
 4755TIP3    H235757   5.155   5.502   3.043  0.6525 -0.5410 -0.4486
 4756TIP3   OH235758   2.340   6.230   3.439 -0.5398 -0.3665  0.1645
 4756TIP3    H135759   2.417   6.259   3.488  0.6600 -0.5878 -1.5197
 4756TIP3    H235760   2.354   6.136   3.427 -0.9458 -0.3634 -0.3577
 4757TIP3   OH235761   6.753   0.857   3.081 -0.2643  0.7811 -0.4351
 4757TIP3    H135762   6.724   0.785   3.025  0.6145  1.1041 -1.3236
 4757TIP3    H235763   6.703   0.933   3.050 -0.7898  0.6770  0.1411
 4758TIP3   OH235764   1.368   3.402  14.654 -0.9546 -0.2455 -0.2940
 4758TIP3    H135765   1.370   3.324  14.710 -0.7382  0.2573  0.4231
 4758TIP3    H235766   1.392   3.371  14.567 -1.2156 -1.0339 -0.0822
 4759TIP3   OH235767   1.106   3.059   5.732  0.0229  0.2196  0.4117
 4759TIP3    H135768   1.046   3.053   5.658  1.1269 -0.8573 -0.4252
 4759TIP3    H235769   1.099   2.974   5.775 -0.5037  0.7933  1.4646
 4760TIP3   OH235770   0.181   3.411   1.585  0.7931 -0.9947  0.0782
 4760TIP3    H135771   0.092   3.396   1.554 -0.7407 -0.3624  3.8495
 4760TIP3    H235772   0.218   3.323   1.596 -0.3486 -1.3815  1.0089
 4761TIP3   OH235773   3.260   1.908   2.720  0.3451 -0.1962 -0.3688
 4761TIP3    H135774   3.233   1.947   2.803 -0.7464 -1.0354 -0.3199
 4761TIP3    H235775   3.214   1.960   2.654  0.7671  0.1144 -0.4151
 4762TIP3   OH235776   4.789   5.167   0.589  0.2761  0.0085  0.0482
 4762TIP3    H135777   4.750   5.189   0.504  1.7719 -0.2928 -0.7340
 4762TIP3    H235778   4.753   5.080   0.610 -1.0718  0.6263  0.3382
 4763TIP3   OH235779   0.756   0.081   3.814 -0.3309  0.1095 -0.1027
 4763TIP3    H135780   0.764   0.149   3.747 -1.0458  0.0245 -0.2765
 4763TIP3    H235781   0.803   0.116   3.890 -2.0743  1.4918  0.3428
 4764TIP3   OH235782   2.868   6.816  14.427 -0.1032 -0.1536 -0.2695
 4764TIP3    H135783   2.951   6.862  14.438 -0.3748  0.2319  0.1414
 4764TIP3    H235784   2.879   6.767  14.345 -0.2087  1.4837 -1.2867
 4765TIP3   OH235785   2.056   2.395  17.008 -0.4355 -0.4423 -0.0051
 4765TIP3    H135786   2.048   2.300  17.013 -0.2639 -0.4768 -0.3635
 4765TIP3    H235787   2.150   2.411  17.009 -0.4854 -0.2118  1.1385
 4766TIP3   OH235788   4.089   0.928  13.947 -0.3976 -0.2008 -0.4513
 4766TIP3    H135789   4.104   1.016  13.981  0.5552 -0.8163  0.7974
 4766TIP3    H235790   4.019   0.892  14.002 -1.9355  0.3393 -2.0185
 4767TIP3   OH235791   0.355   1.588   0.674 -0.0141 -0.2655 -0.1371
 4767TIP3    H135792   0.406   1.663   0.643 -0.5276  0.5357  0.9255
 4767TIP3    H235793   0.318   1.617   0.757 -0.3692 -1.6415  0.1937
 4768TIP3   OH235794   6.564   0.303   3.595 -0.2025 -0.6985 -0.7821
 4768TIP3    H135795   6.623   0.306   3.670  0.3519 -2.1685 -1.1464
 4768TIP3    H235796   6.476   0.298   3.634  0.0878 -1.5970 -0.2295
 4769TIP3   OH235797   3.707   4.947   5.736 -0.1543 -0.3227  0.2833
 4769TIP3    H135798   3.638   4.889   5.768  0.4675 -0.4231  1.4574
 4769TIP3    H235799   3.784   4.892   5.730  0.2457  0.1974  0.6332
 4770TIP3   OH235800   5.383   4.668   0.861  0.2353  0.0466  0.0610
 4770TIP3    H135801   5.401   4.749   0.812  2.4953 -0.8873 -0.6805
 4770TIP3    H235802   5.302   4.688   0.910  0.1360  2.3600 -0.9640
 4771TIP3   OH235803   1.550   6.409   5.048 -0.5152  0.5173 -0.0234
 4771TIP3    H135804   1.558   6.493   5.094 -0.8477  0.4904  0.0825
 4771TIP3    H235805   1.566   6.431   4.956 -2.0616  0.9505 -0.1982
 4772TIP3   OH235806   4.429   3.464   0.687 -0.4511  0.2077  0.1694
 4772TIP3    H135807   4.340   3.477   0.718 -0.2732  2.6340 -0.2510
 4772TIP3    H235808   4.431   3.506   0.600  0.6875 -1.1220 -0.4763
 4773TIP3   OH235809   5.469   3.106   5.834  0.3734 -0.4718 -0.4889
 4773TIP3    H135810   5.510   3.037   5.887  1.1741 -0.0522 -0.5584
 4773TIP3    H235811   5.521   3.109   5.753  1.9589  1.9316  0.5467
 4774TIP3   OH235812   3.561   1.018   4.831  0.4536 -0.2784  0.9886
 4774TIP3    H135813   3.477   1.025   4.785  1.6469  1.3450 -1.0234
 4774TIP3    H235814   3.548   1.068   4.912 -0.0892  1.1917  0.0161
 4775TIP3   OH235815   4.782   4.828  14.742  0.4013 -0.4478 -0.0097
 4775TIP3    H135816   4.746   4.747  14.777 -1.2457 -0.7786 -2.3767
 4775TIP3    H235817   4.750   4.896  14.802 -0.6691 -1.2190  0.3142
 4776TIP3   OH235818   4.879   4.178  14.591  0.1968 -0.8003  0.3347
 4776TIP3    H135819   4.883   4.255  14.648 -1.6400 -1.2544  1.0946
 4776TIP3    H235820   4.957   4.128  14.613  1.1455  0.5720  0.2058
 4777TIP3   OH235821   0.281   6.105   1.480 -0.1700  0.3254 -0.2563
 4777TIP3    H135822   0.186   6.099   1.488 -0.2567  0.6208 -1.0284
 4777TIP3    H235823   0.299   6.087   1.388  0.5197  0.2830 -0.1174
 4778TIP3   OH235824   5.394   4.302   3.730  0.0509  0.3215 -0.0466
 4778TIP3    H135825   5.344   4.320   3.651  1.2293  1.4125 -0.5470
 4778TIP3    H235826   5.426   4.213   3.718 -1.0555 -0.0867 -0.0904
 4779TIP3   OH235827   0.577   2.236   5.445  0.2080 -0.5083  0.2230
 4779TIP3    H135828   0.668   2.264   5.434 -0.3444  0.9164 -0.8785
 4779TIP3    H235829   0.583   2.142   5.464  1.9900 -0.0671  2.0269
 4780TIP3   OH235830   1.867   4.747   0.184 -0.2348  0.5698 -0.3092
 4780TIP3    H135831   1.955   4.784   0.183 -0.5935  1.4587 -1.2210
 4780TIP3    H235832   1.851   4.723   0.275  1.0734  0.0921 -0.2044
 4781TIP3   OH235833   4.549   0.578   5.743  0.0369  0.1113  0.0331
 4781TIP3    H135834   4.505   0.494   5.757 -0.1117 -0.1778 -1.9488
 4781TIP3    H235835   4.641   0.561   5.763 -0.3849  0.1648  2.1295
 4782TIP3   OH235836   3.888   3.329  12.793  0.0899 -0.2911 -0.4454
 4782TIP3    H135837   3.928   3.401  12.841 -0.1699 -0.2793 -0.2412
 4782TIP3    H235838   3.815   3.301  12.849  0.4642 -1.0058 -0.3086
 4783TIP3   OH235839   1.367   1.876  16.963 -0.0653  0.4772  0.8055
 4783TIP3    H135840   1.421   1.797  16.958 -1.5109 -0.4538 -0.9361
 4783TIP3    H235841   1.371   1.902  17.055  3.7349  0.7714  0.6218
 4784TIP3   OH235842   5.172   6.631  10.906 -0.7606 -0.0795 -0.3670
 4784TIP3    H135843   5.197   6.694  10.974  1.6235  1.1962 -2.3282
 4784TIP3    H235844   5.122   6.683  10.842 -1.2905 -0.8302 -0.5756
 4785TIP3   OH235845   2.671   3.495  16.770  0.7023 -0.1799 -0.5506
 4785TIP3    H135846   2.666   3.511  16.864  0.4289  1.6650 -0.8470
 4785TIP3    H235847   2.735   3.425  16.761  0.8146 -0.2996  1.0040
 4786TIP3   OH235848   0.745   0.034   1.948  0.0102  0.2758 -0.1025
 4786TIP3    H135849   0.772   0.093   1.877 -0.9244 -0.3086 -0.9607
 4786TIP3    H235850   0.655   0.010   1.926 -0.6215  0.8258  1.7903
 4787TIP3   OH235851   4.578   6.209  16.534  0.2125  0.3760 -0.1046
 4787TIP3    H135852   4.574   6.114  16.542 -0.6133  0.4717  0.6817
 4787TIP3    H235853   4.645   6.235  16.597 -0.1753  0.3882  0.3057
 4788TIP3   OH235854   4.617   1.550   1.624 -0.3090 -0.2809  0.0342
 4788TIP3    H135855   4.556   1.621   1.604  0.9297  0.1833 -2.2150
 4788TIP3    H235856   4.658   1.576   1.706 -1.4103  0.5462  0.3326
 4789TIP3   OH235857   1.014   5.549  12.598 -0.2996  0.8997 -0.2659
 4789TIP3    H135858   1.039   5.478  12.540 -0.7168  0.8675 -0.4059
 4789TIP3    H235859   0.982   5.506  12.677 -0.2996  0.9353 -0.2463
 4790TIP3   OH235860   5.193   4.833  12.406  0.2150  0.0307  0.3672
 4790TIP3    H135861   5.151   4.895  12.465 -1.1281  0.2368 -0.7857
 4790TIP3    H235862   5.281   4.822  12.442  0.3718  2.3480  0.7974
 4791TIP3   OH235863   1.752   1.899  13.434  0.0643 -0.3265  0.4468
 4791TIP3    H135864   1.777   1.870  13.522 -1.2750 -0.2185  0.8626
 4791TIP3    H235865   1.824   1.956  13.407  1.5324 -2.0613  0.6131
 4792TIP3   OH235866   4.367   3.336   1.807  0.5443 -0.1714 -0.7650
 4792TIP3    H135867   4.335   3.327   1.717  1.0498 -2.7431 -0.7215
 4792TIP3    H235868   4.302   3.289   1.860 -0.1793  1.9960  0.3460
 4793TIP3   OH235869   0.279   2.929   2.114 -0.2767 -0.4577 -0.0364
 4793TIP3    H135870   0.237   2.987   2.051  1.6535  0.4515 -0.5275
 4793TIP3    H235871   0.217   2.923   2.187 -1.1670  0.9679 -0.6553
 4794TIP3   OH235872   4.927   2.730  16.873 -0.0225  0.4352 -0.0047
 4794TIP3    H135873   4.839   2.714  16.839  0.0296 -1.5813  0.7664
 4794TIP3    H235874   4.919   2.721  16.968  1.3254 -1.5275 -0.0311
 4795TIP3   OH235875   5.004   1.688   5.669 -0.0792  0.3944 -0.1352
 4795TIP3    H135876   5.016   1.736   5.751 -2.1665 -0.2853  0.6012
 4795TIP3    H235877   5.065   1.614   5.675  1.3677  1.5488 -0.1992
 4796TIP3   OH235878   3.842   0.568   0.863 -0.1779  0.0495 -0.2350
 4796TIP3    H135879   3.902   0.558   0.937 -0.6921 -1.1638  0.0278
 4796TIP3    H235880   3.871   0.502   0.800 -1.5026 -0.8243  0.0735
 4797TIP3   OH235881   6.330   4.883   4.678  0.0507 -0.0837 -0.6195
 4797TIP3    H135882   6.388   4.954   4.704 -0.6509 -0.0082  0.7899
 4797TIP3    H235883   6.313   4.834   4.758 -1.5555 -0.2944 -1.0615
 4798TIP3   OH235884   4.168   0.316   0.131  0.0477 -0.2999  0.3215
 4798TIP3    H135885   4.179   0.259   0.054  1.2220  0.3184  0.0244
 4798TIP3    H235886   4.174   0.256   0.205  0.8924 -0.6352 -0.0032
 4799TIP3   OH235887   3.841   6.659  17.028 -0.1621 -0.3130 -0.0339
 4799TIP3    H135888   3.773   6.676  17.092  1.4084 -1.7024  2.1098
 4799TIP3    H235889   3.909   6.724  17.046 -0.1943  0.0264 -1.0745
 4800TIP3   OH235890   4.273   6.091  16.947 -0.2405 -0.8234 -0.1400
 4800TIP3    H135891   4.361   6.127  16.934 -0.0738 -1.3650 -0.5119
 4800TIP3    H235892   4.217   6.143  16.889 -0.1685 -0.4788  0.0949
 4801TIP3   OH235893   6.435   3.725   0.918  0.0047  0.0317  0.4137
 4801TIP3    H135894   6.528   3.722   0.941  0.0757  0.6846  0.2324
 4801TIP3    H235895   6.396   3.655   0.970  0.8029 -1.1237 -0.5260
 4802TIP3   OH235896   5.605   5.351  15.088  0.2048  0.8956  0.2424
 4802TIP3    H135897   5.697   5.330  15.070  0.9387  3.9700  0.0286
 4802TIP3    H235898   5.579   5.407  15.014 -1.4750  0.9879  0.8805
 4803TIP3   OH235899   6.099   5.514   0.898 -0.3852  0.7677  0.1367
 4803TIP3    H135900   6.045   5.573   0.844 -0.7634  0.1001 -0.2247
 4803TIP3    H235901   6.088   5.428   0.857 -1.2718  0.1126  1.7211
 4804TIP3   OH235902   5.848   5.760  14.395 -0.2783  0.1990 -0.4450
 4804TIP3    H135903   5.805   5.821  14.455  1.6786  0.6553  0.5122
 4804TIP3    H235904   5.930   5.737  14.438  1.0309  0.2954 -2.7911
 4805TIP3   OH235905   6.608   2.817   6.821 -0.1017 -0.0472  0.1675
 4805TIP3    H135906   6.671   2.804   6.750  0.3547 -0.3079  0.6165
 4805TIP3    H235907   6.600   2.912   6.829  0.9055 -0.0002  0.6940
 4806TIP3   OH235908   5.874   1.446   4.184  0.1476  0.2548 -0.1294
 4806TIP3    H135909   5.850   1.384   4.115  2.0761 -0.4107 -0.2164
 4806TIP3    H235910   5.890   1.528   4.137 -0.5479  0.3498 -0.2190
 4807TIP3   OH235911   3.336   2.465  15.684 -0.6710 -0.3111  0.1734
 4807TIP3    H135912   3.400   2.403  15.719  0.2537  1.3937  1.5799
 4807TIP3    H235913   3.346   2.459  15.589  0.6861 -0.9883  0.3460
 4808TIP3   OH235914   1.642   3.460   3.620 -1.2809 -0.0258 -0.2157
 4808TIP3    H135915   1.724   3.509   3.621 -2.9394  2.8896  0.2375
 4808TIP3    H235916   1.660   3.382   3.672  1.2966  0.3704 -0.4407
 4809TIP3   OH235917   2.873   4.212   3.280 -0.1286  0.4424  0.2567
 4809TIP3    H135918   2.942   4.212   3.214 -1.3631 -0.7883 -1.0566
 4809TIP3    H235919   2.808   4.149   3.248 -2.5208  2.5489  0.7703
 4810TIP3   OH235920   6.542   2.519   0.878 -0.0035  0.2275  0.3288
 4810TIP3    H135921   6.478   2.545   0.945  0.5278  0.8689  0.5919
 4810TIP3    H235922   6.531   2.583   0.808 -0.7802 -0.6316 -0.3509
 4811TIP3   OH235923   5.641   3.801   4.793  0.2798 -1.0516 -0.4939
 4811TIP3    H135924   5.726   3.843   4.805 -0.5052  0.4065  0.0159
 4811TIP3    H235925   5.601   3.848   4.720 -0.7859 -0.5916  0.3661
 4812TIP3   OH235926   2.247   2.534   4.728 -0.2387  0.0518 -0.0210
 4812TIP3    H135927   2.268   2.557   4.819 -1.7517  0.1480  0.3353
 4812TIP3    H235928   2.315   2.472   4.703  0.8954  0.9437  0.7651
 4813TIP3   OH235929   0.263   2.915  15.587 -0.3679  0.2548  0.0578
 4813TIP3    H135930   0.328   2.978  15.556 -0.9206 -0.0024 -1.6706
 4813TIP3    H235931   0.179   2.959  15.575 -0.6161  0.0880  1.0858
 4814TIP3   OH235932   4.715   5.129  11.125 -0.4400  0.3087  0.2008
 4814TIP3    H135933   4.710   5.081  11.207  0.6248 -1.7188 -0.8598
 4814TIP3    H235934   4.644   5.093  11.072  1.0157 -0.9044 -0.9837
 4815TIP3   OH235935   0.805   0.767   0.146  0.2265  0.1402  0.5390
 4815TIP3    H135936   0.866   0.694   0.153 -0.0001 -0.1142 -0.1192
 4815TIP3    H235937   0.825   0.822   0.221  0.0834 -0.8332  1.2925
 4816TIP3   OH235938   2.064   0.285   5.449 -0.2733 -0.3707  0.1646
 4816TIP3    H135939   2.088   0.311   5.537  1.5177  1.8633 -0.9232
 4816TIP3    H235940   2.033   0.366   5.408  1.8554 -0.7017 -2.1879
 4817TIP3   OH235941   1.144   1.072   2.059  0.0233  0.1206 -0.3240
 4817TIP3    H135942   1.210   1.029   2.004  0.8291  2.4581 -1.2562
 4817TIP3    H235943   1.068   1.083   2.000 -0.1468  0.0800 -0.1126
 4818TIP3   OH235944   3.790   2.407  12.493  0.0244  0.0369  0.1573
 4818TIP3    H135945   3.880   2.440  12.489  0.5234 -1.3146  0.0471
 4818TIP3    H235946   3.760   2.409  12.402 -0.7372  2.2866  0.4274
 4819TIP3   OH235947   3.301   2.509  10.575 -0.0946 -0.2538 -0.1463
 4819TIP3    H135948   3.284   2.467  10.660 -1.4040  0.1766 -0.1949
 4819TIP3    H235949   3.225   2.565  10.560  0.7992  0.7656 -0.9434
 4820TIP3   OH235950   0.967   3.467   2.739  0.6924  0.3633  0.3634
 4820TIP3    H135951   1.021   3.404   2.691  0.7247 -1.6109  2.8884
 4820TIP3    H235952   0.954   3.539   2.678  3.1950 -0.7415 -1.5444
 4821TIP3   OH235953   3.149   1.251   0.591  0.0674 -0.1084 -0.1046
 4821TIP3    H135954   3.172   1.212   0.506 -2.2630 -0.4070 -0.6315
 4821TIP3    H235955   3.065   1.213   0.613  0.2541  0.6136  1.9776
 4822TIP3   OH235956   4.417   4.104   0.519  0.3793  0.4949 -0.1761
 4822TIP3    H135957   4.362   4.172   0.559 -1.4159  0.3784 -2.3322
 4822TIP3    H235958   4.483   4.153   0.471  0.8512  0.6682  0.6387
 4823TIP3   OH235959   2.180   4.031   3.258  0.5851 -0.1459  0.2289
 4823TIP3    H135960   2.131   4.039   3.340  0.3941 -0.3353  0.1336
 4823TIP3    H235961   2.217   4.118   3.244 -0.4221  0.2315 -0.1345
 4824TIP3   OH235962   0.385   2.718   1.968 -0.7192  0.5666 -0.0164
 4824TIP3    H135963   0.320   2.650   1.954 -0.2110  0.4422 -1.9294
 4824TIP3    H235964   0.336   2.791   2.006 -2.1694  0.8425 -2.3479
 4825TIP3   OH235965   6.443   2.404  13.097  0.4637 -0.1512 -0.5535
 4825TIP3    H135966   6.358   2.402  13.142  0.2496  1.1572 -0.8879
 4825TIP3    H235967   6.435   2.339  13.027  0.0699 -0.6862 -0.0278
 4826TIP3   OH235968   4.499   1.780  15.808 -0.0379  0.7656  0.2599
 4826TIP3    H135969   4.446   1.707  15.842 -0.4950  0.3311 -1.3625
 4826TIP3    H235970   4.583   1.740  15.786 -0.3966  0.6511 -0.9352
 4827TIP3   OH235971   2.449   1.186  14.612 -0.2182  0.0992  0.3285
 4827TIP3    H135972   2.364   1.224  14.636 -1.7582 -1.2619 -2.6320
 4827TIP3    H235973   2.436   1.092  14.621  1.1462 -0.0895  0.3512
 4828TIP3   OH235974   5.848   1.990   2.972  0.4982  0.1214  0.2895
 4828TIP3    H135975   5.893   1.998   2.887 -2.4812  0.5178 -1.3066
 4828TIP3    H235976   5.775   2.051   2.967 -1.4801 -1.9912  1.9740
 4829TIP3   OH235977   2.357   1.892   4.658 -0.0377  0.4073 -0.0589
 4829TIP3    H135978   2.351   1.796   4.662  1.2984  0.3244  0.5185
 4829TIP3    H235979   2.271   1.923   4.685  0.7396 -0.5851  3.9177
 4830TIP3   OH235980   6.689   4.838  16.138  0.0049 -0.3610  0.1641
 4830TIP3    H135981   6.604   4.817  16.101  0.9889 -0.6903 -1.9996
 4830TIP3    H235982   6.689   4.798  16.225 -1.8437 -0.7582 -0.0091
 4831TIP3   OH235983   5.240   1.801  11.244 -0.2837  1.0146 -0.0036
 4831TIP3    H135984   5.179   1.762  11.181 -0.6810  1.1642  0.2882
 4831TIP3    H235985   5.326   1.765  11.220 -0.7752 -0.7942  0.8739
 4832TIP3   OH235986   4.280   2.658   4.517  0.0116 -0.0158  0.4449
 4832TIP3    H135987   4.270   2.752   4.502 -0.2906  0.1314  1.5417
 4832TIP3    H235988   4.367   2.637   4.481  0.4925  0.8683  1.0742
 4833TIP3   OH235989   1.083   6.397   4.147 -1.2195 -0.9450  0.3533
 4833TIP3    H135990   1.023   6.447   4.203 -0.2670 -1.0498  1.5066
 4833TIP3    H235991   1.062   6.425   4.058 -1.3468  0.8147  0.9064
 4834TIP3   OH235992   2.169   3.289  16.361 -1.0456 -0.1547 -0.0426
 4834TIP3    H135993   2.097   3.306  16.300 -0.6527 -0.1013 -0.4888
 4834TIP3    H235994   2.245   3.274  16.305 -0.6098  0.2264  0.4400
 4835TIP3   OH235995   0.267   0.408  16.642  0.0269  0.1819  0.6319
 4835TIP3    H135996   0.352   0.388  16.602  0.3217  1.1039  0.7910
 4835TIP3    H235997   0.286   0.480  16.703 -1.4507  2.4550 -1.5316
 4836TIP3   OH235998   2.779   3.523   4.845  0.0428 -0.1897 -0.2743
 4836TIP3    H135999   2.777   3.539   4.751 -2.4118 -2.7526 -0.6894
 4836TIP3    H236000   2.794   3.429   4.854 -0.4698 -0.1000  1.9094
 4837TIP3   OH236001   5.843   4.591   2.235 -0.2678 -0.0760  1.2377
 4837TIP3    H136002   5.834   4.674   2.280  1.7635  0.7197  0.2033
 4837TIP3    H236003   5.918   4.548   2.276  0.4568 -0.1481 -0.1242
 4838TIP3   OH236004   1.824   3.131   5.495 -0.2632  0.7296  0.2154
 4838TIP3    H136005   1.848   3.101   5.407  0.7200  1.5817  0.1819
 4838TIP3    H236006   1.742   3.179   5.483 -1.5192 -1.3695  0.1750
 4839TIP3   OH236007   0.307   4.633  12.947  0.2224  0.0171  0.5552
 4839TIP3    H136008   0.340   4.630  13.037  0.1784  1.5921  0.6472
 4839TIP3    H236009   0.212   4.627  12.956  0.2065  0.3708  0.6321
 4840TIP3   OH236010   0.876   0.434   5.577  0.4411  0.5827 -0.0141
 4840TIP3    H136011   0.970   0.448   5.591  0.5492 -0.3251  0.2325
 4840TIP3    H236012   0.859   0.350   5.620 -0.1248 -0.1216 -1.5976
 4841TIP3   OH236013   2.033   4.910  16.327  0.2371 -0.3172  0.2738
 4841TIP3    H136014   1.995   4.830  16.363 -1.6723  0.1213 -0.7161
 4841TIP3    H236015   2.126   4.904  16.349 -0.3078 -1.6111  2.3871
 4842TIP3   OH236016   6.708   5.693   4.880 -0.0068  0.0899 -0.0007
 4842TIP3    H136017   6.723   5.600   4.862 -0.9402 -0.4455  1.7737
 4842TIP3    H236018   6.784   5.719   4.934 -0.3357  0.0360  0.4926
 4843TIP3   OH236019   3.127   3.520   4.888  0.2085  0.3004 -0.6621
 4843TIP3    H136020   3.157   3.595   4.939 -0.6521  1.1649 -1.4042
 4843TIP3    H236021   3.045   3.494   4.930  0.4434 -0.1424 -0.4827
 4844TIP3   OH236022   4.938   3.719  13.990  0.3348  0.0794 -0.2181
 4844TIP3    H136023   4.878   3.793  13.989  0.3477  0.1259 -3.6525
 4844TIP3    H236024   5.025   3.759  13.993  0.2962  0.0176  4.3953
 4845TIP3   OH236025   1.694   4.865   4.895  1.0019  0.4321 -0.0735
 4845TIP3    H136026   1.616   4.863   4.951  0.0725 -1.3440 -1.3806
 4845TIP3    H236027   1.751   4.798   4.933  0.1723 -1.1073 -1.4899
 4846TIP3   OH236028   1.199   2.947   3.760  0.0630 -0.5796  0.9882
 4846TIP3    H136029   1.129   3.010   3.743  0.0979 -0.2729  1.9535
 4846TIP3    H236030   1.195   2.886   3.686  2.3415  2.5692 -1.8657
 4847TIP3   OH236031   2.273   2.798   6.209 -0.6358 -0.4214  0.4276
 4847TIP3    H136032   2.195   2.780   6.157 -0.8641 -0.6371  0.8479
 4847TIP3    H236033   2.260   2.886   6.243 -1.4354 -1.0596  1.8168
 4848TIP3   OH236034   0.834   0.675  11.043 -0.1462 -0.0345  0.1440
 4848TIP3    H136035   0.753   0.672  10.992 -0.7090  0.0128  1.0234
 4848TIP3    H236036   0.882   0.596  11.016 -0.4076  0.0181 -0.4942
 4849TIP3   OH236037   2.304   5.794   0.846  0.2374  0.3656 -0.3809
 4849TIP3    H136038   2.379   5.835   0.889  0.8029 -0.7226 -0.3125
 4849TIP3    H236039   2.289   5.847   0.767  0.5727  1.0559  0.0235
 4850TIP3   OH236040   3.247   6.280   1.498 -0.0997  0.5761  0.2115
 4850TIP3    H136041   3.315   6.321   1.444 -1.6030  2.7588 -0.0744
 4850TIP3    H236042   3.262   6.315   1.586 -1.0321  1.3426  0.0787
 4851TIP3   OH236043   6.061   0.685   4.295  0.8813  0.2053 -0.5925
 4851TIP3    H136044   6.004   0.624   4.247  0.7784 -0.6617  0.6060
 4851TIP3    H236045   6.051   0.768   4.249 -1.2858  0.0403 -0.4713
 4852TIP3   OH236046   0.303   4.098  16.329 -0.1800 -0.0151  0.0758
 4852TIP3    H136047   0.304   4.054  16.414  0.2826 -0.1049  0.0258
 4852TIP3    H236048   0.344   4.183  16.346 -1.5688  0.6262  0.2934
 4853TIP3   OH236049   3.985   0.967   5.742  0.1845  0.5934  0.1951
 4853TIP3    H136050   4.032   1.032   5.691  0.0813  0.2531 -0.3425
 4853TIP3    H236051   4.048   0.896   5.754  0.1755  0.6285  0.4513
 4854TIP3   OH236052   5.966   6.371   5.038 -0.3431  0.1030 -0.2675
 4854TIP3    H136053   6.008   6.336   4.959  1.4242  2.0724 -0.2523
 4854TIP3    H236054   5.938   6.294   5.087  2.0385 -1.2426 -0.9664
 4855TIP3   OH236055   5.829   4.902   3.765  0.3319 -1.0914  0.4680
 4855TIP3    H136056   5.863   4.877   3.851 -2.0219 -1.8595  1.2191
 4855TIP3    H236057   5.901   4.883   3.705  0.9258 -3.5401  1.8595
 4856TIP3   OH236058   4.948   1.747   2.118  0.0611  0.2704  0.4153
 4856TIP3    H136059   4.961   1.653   2.124  0.7073  0.4223  1.4236
 4856TIP3    H236060   4.990   1.772   2.035 -1.0075 -0.4722 -0.3538
 4857TIP3   OH236061   5.789   6.800  12.519 -1.0072  0.4472 -0.2392
 4857TIP3    H136062   5.754   6.753  12.595 -0.2696 -1.4442 -1.0439
 4857TIP3    H236063   5.719   6.794  12.453 -0.6319 -0.1389 -0.5851
 4858TIP3   OH236064   1.902   4.019   0.840 -0.0864  0.2928 -0.1405
 4858TIP3    H136065   1.807   4.004   0.845  0.0659 -0.8686 -0.6513
 4858TIP3    H236066   1.940   3.932   0.838  1.0116  0.7580  0.0928
 4859TIP3   OH236067   4.750   2.899  12.428 -0.1716  0.3158  0.0396
 4859TIP3    H136068   4.793   2.834  12.483 -0.7766  0.4479  0.6908
 4859TIP3    H236069   4.706   2.848  12.360  0.3591  0.1300 -0.1625
 4860TIP3   OH236070   1.551   6.223  16.632  0.5663  0.6314  0.5680
 4860TIP3    H136071   1.490   6.253  16.699  0.3040 -1.7669  1.4468
 4860TIP3    H236072   1.507   6.243  16.549 -1.1872 -0.5215  1.1840
 4861TIP3   OH236073   6.241   1.120  13.570 -0.2917  0.2593  0.2648
 4861TIP3    H136074   6.176   1.190  13.561  0.7529  1.1496 -0.5333
 4861TIP3    H236075   6.215   1.055  13.505  0.9350  1.6804 -1.6815
 4862TIP3   OH236076   0.581   3.298  16.686  0.0371 -0.2650  0.8968
 4862TIP3    H136077   0.522   3.257  16.622 -0.2627  2.5980 -0.7191
 4862TIP3    H236078   0.590   3.232  16.755 -2.5964 -1.9629 -0.2959
 4863TIP3   OH236079   1.499   1.612   2.500  0.3893 -0.3837  0.0248
 4863TIP3    H136080   1.492   1.614   2.405 -0.4599 -1.2795  0.0620
 4863TIP3    H236081   1.593   1.618   2.518  0.6012 -1.0079 -0.8890
 4864TIP3   OH236082   2.582   5.981  15.545  0.0937  0.2162 -0.1560
 4864TIP3    H136083   2.637   5.923  15.599 -0.6788 -1.0632 -0.7221
 4864TIP3    H236084   2.578   6.063  15.594  0.5111 -0.4919  1.0757
 4865TIP3   OH236085   3.939   0.173   4.703  0.0431  0.2795  0.0803
 4865TIP3    H136086   3.879   0.098   4.699  0.4141 -0.1424  1.9465
 4865TIP3    H236087   3.912   0.221   4.782  0.4838  1.5383 -0.5215
 4866TIP3   OH236088   2.809   3.758  11.651 -0.7307 -0.6512  0.1664
 4866TIP3    H136089   2.844   3.844  11.675 -0.5662 -0.5460 -0.4552
 4866TIP3    H236090   2.743   3.741  11.718 -3.3992  1.6045 -1.7578
 4867TIP3   OH236091   2.143   0.935   4.784 -0.1691  0.0783  0.1442
 4867TIP3    H136092   2.078   0.911   4.719 -1.0286 -1.2107  1.4404
 4867TIP3    H236093   2.118   0.886   4.862  0.3866  2.1562  1.6847
 4868TIP3   OH236094   3.280   2.162  14.789  0.6285 -0.1656  0.1200
 4868TIP3    H136095   3.291   2.123  14.702  2.6744 -0.9269  0.7003
 4868TIP3    H236096   3.335   2.240  14.787 -1.1150  1.0862 -0.0182
 4869TIP3   OH236097   5.098   3.744   5.027  0.4120  0.0204 -0.2831
 4869TIP3    H136098   5.143   3.820   4.988 -1.3392  1.0046 -0.4787
 4869TIP3    H236099   5.086   3.768   5.119  1.8164 -0.9917  0.1796
 4870TIP3   OH236100   1.594   2.136  12.365  0.0010 -0.2096 -0.1554
 4870TIP3    H136101   1.599   2.041  12.376 -0.6187 -0.2246 -0.0014
 4870TIP3    H236102   1.503   2.158  12.383  0.2428  0.4764  0.2649
 4871TIP3   OH236103   3.840   0.867   1.154 -0.1797  0.5873 -0.0485
 4871TIP3    H136104   3.859   0.805   1.225  1.2602 -0.8460 -1.6327
 4871TIP3    H236105   3.759   0.834   1.114 -0.8467  1.2438  0.7510
 4872TIP3   OH236106   2.591   4.996   3.711 -0.2301  0.4657  0.3699
 4872TIP3    H136107   2.528   4.944   3.761  0.0663  1.1800  1.4921
 4872TIP3    H236108   2.676   4.956   3.730 -0.1074  0.7923  0.5006
 4873TIP3   OH236109   6.579   6.014   2.236  0.0617 -0.2974 -0.1271
 4873TIP3    H136110   6.507   5.995   2.297 -1.0276  1.1680 -0.9190
 4873TIP3    H236111   6.610   5.928   2.209 -1.1582 -0.9643  0.5088
 4874TIP3   OH236112   5.221   3.281   1.017  0.1407 -0.2315 -0.7876
 4874TIP3    H136113   5.269   3.337   1.078 -1.7785 -0.5515  1.0786
 4874TIP3    H236114   5.168   3.342   0.965 -0.3747 -0.1610 -0.1816
 4875TIP3   OH236115   2.128   2.935  15.745  0.0909  0.0859  0.0769
 4875TIP3    H136116   2.130   2.937  15.649  0.9345 -1.1074  0.0565
 4875TIP3    H236117   2.037   2.915  15.766 -0.0945  0.3170 -0.4776
 4876TIP3   OH236118   5.850   6.449   1.767 -0.3797  0.4648  0.3543
 4876TIP3    H136119   5.757   6.429   1.776 -0.2275 -1.5772 -1.8912
 4876TIP3    H236120   5.894   6.365   1.783  1.0195  1.2323  0.6198
 4877TIP3   OH236121   2.805   2.341  12.558  0.4864 -0.5148 -0.7850
 4877TIP3    H136122   2.730   2.393  12.586 -0.0962 -0.6714 -2.0277
 4877TIP3    H236123   2.825   2.285  12.633  1.2137  1.5825  0.6432
 4878TIP3   OH236124   4.659   3.853  11.171 -0.4119 -0.2907 -0.4464
 4878TIP3    H136125   4.636   3.939  11.137  0.6356 -0.2890 -1.1707
 4878TIP3    H236126   4.740   3.829  11.126 -1.0238 -1.9354 -0.7261
 4879TIP3   OH236127   0.716   4.917  17.034 -0.4942  0.1897  0.1732
 4879TIP3    H136128   0.687   4.923  16.943  0.7326  0.1795 -0.2327
 4879TIP3    H236129   0.809   4.938  17.030 -0.3082 -0.3997  1.3527
 4880TIP3   OH236130   4.133   3.881   3.614 -0.2902 -0.4054  0.5317
 4880TIP3    H136131   4.081   3.804   3.593  0.5483 -0.5522 -1.1523
 4880TIP3    H236132   4.153   3.920   3.528 -0.7490  1.7175  1.3441
 4881TIP3   OH236133   5.204   4.918   6.339  0.1415 -0.4058 -0.5699
 4881TIP3    H136134   5.122   4.950   6.377  0.9478 -0.9423  1.6882
 4881TIP3    H236135   5.273   4.965   6.386  1.1508 -0.2049 -2.2181
 4882TIP3   OH236136   0.597   5.818  15.558  0.0397 -0.2119  0.4185
 4882TIP3    H136137   0.537   5.847  15.627 -0.5740  2.7367 -1.2794
 4882TIP3    H236138   0.540   5.777  15.492  0.1437  0.5311 -0.1395
 4883TIP3   OH236139   1.700   1.649  14.009  0.1416  0.4260  0.0822
 4883TIP3    H136140   1.711   1.602  13.926  1.8151 -0.7152  0.9189
 4883TIP3    H236141   1.637   1.596  14.058  0.7982 -0.0939  0.3799
 4884TIP3   OH236142   4.425   4.716   4.802 -0.2746  0.3128  0.4405
 4884TIP3    H136143   4.487   4.765   4.855 -0.6452  0.4760  0.7192
 4884TIP3    H236144   4.461   4.627   4.800  1.0720  0.8556 -1.1005
 4885TIP3   OH236145   0.277   6.115   2.592 -0.7971  0.4494  0.1829
 4885TIP3    H136146   0.218   6.171   2.542  2.2947  2.0833 -1.8049
 4885TIP3    H236147   0.361   6.161   2.590  1.7797 -3.9969 -1.1611
 4886TIP3   OH236148   2.557   4.950  14.666  0.6451 -0.0287  0.0185
 4886TIP3    H136149   2.646   4.955  14.701  0.9754  0.7802 -0.9163
 4886TIP3    H236150   2.542   5.036  14.627 -0.7719  0.0365  0.6880
 4887TIP3   OH236151   0.518   2.859  14.581 -0.0573 -0.3541 -0.0212
 4887TIP3    H136152   0.432   2.825  14.603 -0.4722  0.3975 -0.4585
 4887TIP3    H236153   0.504   2.952  14.564  0.5421 -0.5451 -1.7007
 4888TIP3   OH236154   0.721   3.251  15.670 -0.7694 -0.2017  0.5127
 4888TIP3    H136155   0.659   3.306  15.622 -0.5935 -0.6869 -0.2811
 4888TIP3    H236156   0.803   3.300  15.667 -0.4894 -0.7241 -0.6167
 4889TIP3   OH236157   6.733   5.337   0.096 -0.1445  0.1757 -0.1967
 4889TIP3    H136158   6.797   5.359   0.164 -0.7348 -1.3527  0.9061
 4889TIP3    H236159   6.678   5.270   0.137 -0.7161 -0.5440 -2.0874
 4890TIP3   OH236160   6.540   6.197  13.648  0.1495  0.6224 -0.0509
 4890TIP3    H136161   6.532   6.145  13.727  1.3736  1.4145  0.6061
 4890TIP3    H236162   6.536   6.134  13.576  4.4579 -0.7592  0.7893
 4891TIP3   OH236163   3.513   5.455   6.177 -0.0646 -0.5919  0.2375
 4891TIP3    H136164   3.514   5.364   6.207  0.2500 -0.6030  0.2007
 4891TIP3    H236165   3.424   5.470   6.146  0.4125 -1.5224 -1.7003
 4892TIP3   OH236166   0.215   3.501  11.039 -0.3325  1.0959  0.1113
 4892TIP3    H136167   0.293   3.506  11.094  0.5149  0.2734 -1.0111
 4892TIP3    H236168   0.242   3.535  10.955 -1.4090  1.5631 -0.0588
 4893TIP3   OH236169   0.712   1.495   5.377 -0.5305  0.1068 -0.0735
 4893TIP3    H136170   0.735   1.410   5.414 -1.7509 -0.9775 -1.6982
 4893TIP3    H236171   0.757   1.498   5.293  1.1048  1.9419  0.8257
 4894TIP3   OH236172   1.403   6.538  15.276 -0.1205  0.1183  0.9769
 4894TIP3    H136173   1.458   6.538  15.197 -1.0902  1.1256  0.2789
 4894TIP3    H236174   1.327   6.484  15.252 -0.9581  1.3434  0.8086
 4895TIP3   OH236175   0.577   2.042   1.199  0.1010 -0.0963 -0.0815
 4895TIP3    H136176   0.481   2.041   1.196  0.1435 -0.3249 -1.7658
 4895TIP3    H236177   0.603   1.951   1.186  0.5601  0.0697 -0.3499
 4896TIP3   OH236178   1.694   6.249  11.260  0.1948 -0.5953  0.2928
 4896TIP3    H136179   1.608   6.207  11.255 -1.3474  2.1636  2.5046
 4896TIP3    H236180   1.681   6.335  11.221  1.8329  0.0454  1.1054
 4897TIP3   OH236181   2.047   2.240   3.366 -0.0044  0.4059 -0.5333
 4897TIP3    H136182   1.957   2.232   3.396 -0.4624  0.7995 -1.7800
 4897TIP3    H236183   2.044   2.307   3.298  1.1696  0.1927 -0.8087
 4898TIP3   OH236184   4.487   1.588  13.036  0.0956 -0.4312 -0.1364
 4898TIP3    H136185   4.475   1.578  13.131 -1.7405 -2.2134 -0.5237
 4898TIP3    H236186   4.581   1.574  13.023  0.0372 -2.2421  1.1923
 4899TIP3   OH236187   5.354   1.552   0.280 -0.2143 -0.4782 -0.4200
 4899TIP3    H136188   5.287   1.614   0.308 -0.1221 -0.3881 -0.3953
 4899TIP3    H236189   5.397   1.596   0.206 -0.8253 -0.9547 -1.0677
 4900TIP3   OH236190   5.960   6.069  11.902  0.4147  0.0481  0.0809
 4900TIP3    H136191   5.936   6.013  11.976 -0.0454  0.1626  0.0176
 4900TIP3    H236192   6.000   6.146  11.943  0.8070 -0.2082  0.1805
 4901TIP3   OH236193   4.261   4.835   3.609 -0.0482  0.0949  0.1378
 4901TIP3    H136194   4.346   4.875   3.628  0.9248 -2.0230  0.3597
 4901TIP3    H236195   4.275   4.784   3.530 -1.3805  0.4881 -0.3726
 4902TIP3   OH236196   4.600   2.030  12.494 -0.1081 -0.3798  0.3334
 4902TIP3    H136197   4.693   2.017  12.472 -0.0962 -0.3227  0.3496
 4902TIP3    H236198   4.553   1.994  12.419 -0.0910 -1.0018  0.6189
 4903TIP3   OH236199   0.947   3.094   4.901  0.2007  0.0353  0.7257
 4903TIP3    H136200   0.886   3.162   4.871  0.6818 -0.3311 -1.1741
 4903TIP3    H236201   0.925   3.018   4.848  1.1861 -0.5974  1.2266
 4904TIP3   OH236202   0.537   2.725  15.561 -0.5563  0.6901  0.1176
 4904TIP3    H136203   0.470   2.759  15.621 -0.7359 -0.7433  0.7541
 4904TIP3    H236204   0.564   2.642  15.600  2.0659  1.5308  0.2344
 4905TIP3   OH236205   2.179   1.381  13.787  0.3975  0.1347 -0.4045
 4905TIP3    H136206   2.097   1.423  13.761 -0.0646 -0.3299  0.2885
 4905TIP3    H236207   2.243   1.453  13.788 -0.1111  0.5966 -0.4306
 4906TIP3   OH236208   1.479   5.793  14.689  0.3475  0.4221  0.0893
 4906TIP3    H136209   1.421   5.737  14.739  1.1869 -1.9034 -1.4531
 4906TIP3    H236210   1.438   5.801  14.603  2.3951 -1.5035 -1.1190
 4907TIP3   OH236211   4.550   1.685   0.241 -0.0492 -0.1154 -0.7024
 4907TIP3    H136212   4.641   1.689   0.270 -0.2603  0.6051 -0.1163
 4907TIP3    H236213   4.506   1.755   0.289 -1.4048 -1.9285  0.7930
 4908TIP3   OH236214   6.484   5.703   2.840 -0.3002 -0.0640  0.4312
 4908TIP3    H136215   6.527   5.701   2.926  0.6836 -0.0618 -0.0524
 4908TIP3    H236216   6.425   5.627   2.841  1.3829 -1.4247  0.2719
 4909TIP3   OH236217   0.774   2.596   0.551  0.3389 -0.0307 -0.0843
 4909TIP3    H136218   0.687   2.560   0.539 -0.3619  0.3180  3.4990
 4909TIP3    H236219   0.825   2.523   0.587  1.0967  0.2587 -0.5529
 4910TIP3   OH236220   3.425   2.512   1.427 -0.6519 -0.2196  0.1877
 4910TIP3    H136221   3.345   2.539   1.471 -0.8776 -2.2718  1.0885
 4910TIP3    H236222   3.495   2.534   1.488 -0.6926 -0.0728  0.1800
 4911TIP3   OH236223   1.162   6.155   6.079 -0.2057 -0.0621  0.3013
 4911TIP3    H136224   1.216   6.095   6.129  2.3208 -0.1918 -2.4134
 4911TIP3    H236225   1.094   6.101   6.040  0.5236 -0.7375 -0.0443
 4912TIP3   OH236226   1.092   0.159  14.713  0.1066 -0.2019  0.4697
 4912TIP3    H136227   1.067   0.089  14.653 -0.5780  0.8087 -0.4558
 4912TIP3    H236228   1.025   0.159  14.781  0.2610 -0.6189  0.6224
 4913TIP3   OH236229   3.146   1.502  15.820 -0.5602  0.1474 -0.1984
 4913TIP3    H136230   3.063   1.521  15.777 -0.3831  1.5505  0.0309
 4913TIP3    H236231   3.143   1.409  15.839 -0.4803 -0.6155 -3.5738
 4914TIP3   OH236232   2.096   1.993  15.146  0.5824 -0.0172 -0.3379
 4914TIP3    H136233   2.169   1.931  15.136  1.2010  0.7306 -0.5047
 4914TIP3    H236234   2.085   2.002  15.240  0.1512 -0.7803 -0.3143
 4915TIP3   OH236235   1.396   5.476   1.828 -0.3062 -0.9439 -0.3318
 4915TIP3    H136236   1.489   5.499   1.835 -1.0039  1.3839  2.1211
 4915TIP3    H236237   1.367   5.465   1.918 -2.6414 -0.7513 -1.0165
 4916TIP3   OH236238   5.896   3.985  16.861  0.1302 -0.0803  0.1844
 4916TIP3    H136239   5.814   3.961  16.903 -0.1615 -1.3934 -1.0876
 4916TIP3    H236240   5.949   3.905  16.865  1.0782  0.5575  0.3846
 4917TIP3   OH236241   5.107   1.023   5.639 -0.1785 -0.7265 -0.2068
 4917TIP3    H136242   5.056   1.067   5.570 -0.3026 -0.6203 -0.0463
 4917TIP3    H236243   5.076   1.063   5.720 -0.4650 -1.2777 -0.0410
 4918TIP3   OH236244   6.659   3.702   1.646 -0.1025  0.0385  0.3955
 4918TIP3    H136245   6.721   3.713   1.718 -1.2843 -0.3231  1.4709
 4918TIP3    H236246   6.573   3.716   1.685 -0.9161 -2.2060 -0.4911
 4919TIP3   OH236247   1.388   2.966   2.619 -0.0166 -0.2631 -0.4578
 4919TIP3    H136248   1.464   2.917   2.650 -1.2084 -0.2123  2.8346
 4919TIP3    H236249   1.340   2.905   2.564  2.5637 -0.1646 -2.9101
 4920TIP3   OH236250   4.397   0.814  14.656  0.1816  0.2704 -0.1484
 4920TIP3    H136251   4.397   0.730  14.702  1.0261  2.0581  3.3041
 4920TIP3    H236252   4.486   0.824  14.623 -0.4515 -1.0596 -2.3906
 4921TIP3   OH236253   1.195   0.713  12.120  0.3209 -0.3544  0.0709
 4921TIP3    H136254   1.159   0.632  12.085 -0.4850  0.8162 -1.9277
 4921TIP3    H236255   1.184   0.707  12.215 -1.2463 -1.8452 -0.1990
 4922TIP3   OH236256   5.684   1.413  14.308  0.2497  0.2831  0.3759
 4922TIP3    H136257   5.665   1.427  14.401 -1.3552 -0.3479  0.1462
 4922TIP3    H236258   5.603   1.379  14.271  0.8335  0.6595 -1.3006
 4923TIP3   OH236259   1.490   4.232   2.159  0.1647  0.3815  0.2503
 4923TIP3    H136260   1.568   4.232   2.215  0.1465  2.2454  0.3155
 4923TIP3    H236261   1.419   4.255   2.219 -0.2740 -0.3085 -0.0082
 4924TIP3   OH236262   4.490   3.695   3.125  0.3410 -0.1798 -0.0227
 4924TIP3    H136263   4.577   3.689   3.086  0.6248  1.5572  0.3069
 4924TIP3    H236264   4.505   3.697   3.219 -0.1436 -1.2278  0.0808
 4925TIP3   OH236265   0.462   3.050  12.602  0.0663 -0.2233  0.0641
 4925TIP3    H136266   0.542   3.033  12.651  0.6386 -1.1263 -1.1516
 4925TIP3    H236267   0.438   2.965  12.566 -0.5475  0.3477 -0.8947
 4926TIP3   OH236268   4.622   4.971   5.950 -0.1397  0.0487 -0.2168
 4926TIP3    H136269   4.635   5.030   6.025  0.2975 -0.7106  0.3005
 4926TIP3    H236270   4.594   4.888   5.988  1.7490 -0.8670 -0.7815
 4927TIP3   OH236271   5.171   5.015   0.977  0.0135 -0.7491 -0.3603
 4927TIP3    H136272   5.096   5.034   1.033 -0.3335 -1.5886 -0.5359
 4927TIP3    H236273   5.185   5.096   0.927 -0.8075 -0.6071 -0.3716
 4928TIP3   OH236274   5.945   2.042   4.643  0.4424 -0.0806 -0.0635
 4928TIP3    H136275   5.938   2.056   4.737  0.6905  2.1363 -0.3667
 4928TIP3    H236276   6.039   2.040   4.626  0.3941 -0.1282 -0.3282
 4929TIP3   OH236277   5.050   1.736   1.568 -0.4007 -0.5031  0.1758
 4929TIP3    H136278   5.091   1.663   1.616  0.6712  1.3296  2.1432
 4929TIP3    H236279   4.956   1.718   1.574 -0.2468 -0.7950  2.2776
 4930TIP3   OH236280   3.388   2.760  13.063 -0.2050 -0.1637 -0.4657
 4930TIP3    H136281   3.374   2.765  13.157 -1.8081  2.0465 -0.7718
 4930TIP3    H236282   3.310   2.718  13.028  0.3647 -0.9402 -0.8145
 4931TIP3   OH236283   4.145   1.906   0.314  0.6731  0.0742 -0.1846
 4931TIP3    H136284   4.203   1.830   0.308  0.9377  0.3138 -0.7674
 4931TIP3    H236285   4.101   1.896   0.398  1.4888 -0.1663  0.2237
 4932TIP3   OH236286   1.357   4.210   3.523 -0.2532  0.2983 -0.0302
 4932TIP3    H136287   1.345   4.122   3.559 -0.3890  0.2313 -0.2345
 4932TIP3    H236288   1.400   4.196   3.439  0.4640  0.4805  0.2971
 4933TIP3   OH236289   1.796   4.615  14.372 -0.5638  0.0182 -0.3995
 4933TIP3    H136290   1.807   4.688  14.311  1.3579 -0.7111 -0.9550
 4933TIP3    H236291   1.873   4.620  14.429 -1.3730 -0.4573  0.7578
 4934TIP3   OH236292   3.564   0.907   3.991 -0.0285 -0.4530  0.2414
 4934TIP3    H136293   3.558   0.933   4.083 -0.0689 -1.4548  0.5292
 4934TIP3    H236294   3.657   0.916   3.970 -0.1954  0.8644  0.0512
 4935TIP3   OH236295   6.370   0.644  11.686 -0.2951 -0.1236 -0.6562
 4935TIP3    H136296   6.357   0.663  11.779  2.2147  0.4805 -0.3837
 4935TIP3    H236297   6.301   0.694  11.642  0.4643  2.2017  0.6976
 4936TIP3   OH236298   5.411   6.469  11.960 -0.8310 -0.1334  0.3959
 4936TIP3    H136299   5.412   6.379  11.927 -0.5776 -0.4704  1.3210
 4936TIP3    H236300   5.343   6.469  12.027  0.3576 -0.0665  1.6071
 4937TIP3   OH236301   3.654   0.266   2.795 -0.3142  0.8002  0.2909
 4937TIP3    H136302   3.626   0.176   2.779  0.9176  0.4415  0.1046
 4937TIP3    H236303   3.641   0.310   2.711 -1.6412  1.0090  0.5840
 4938TIP3   OH236304   6.233   6.491   2.186  0.0661 -0.7203 -0.9570
 4938TIP3    H136305   6.175   6.415   2.191 -0.1992 -0.5599 -1.5555
 4938TIP3    H236306   6.174   6.566   2.190  0.3581 -0.5319  0.0617
 4939TIP3   OH236307   4.829   6.129  13.595  0.6153 -0.0799  0.0202
 4939TIP3    H136308   4.770   6.084  13.535  1.9929  0.5534 -1.8608
 4939TIP3    H236309   4.860   6.061  13.654 -1.6956 -0.4886  0.8241
 4940TIP3   OH236310   4.471   3.025  10.795  0.2411  0.2862  0.2827
 4940TIP3    H136311   4.391   3.063  10.759  0.7521  0.8839 -0.2329
 4940TIP3    H236312   4.538   3.092  10.780  0.9832 -0.4956  0.0749
 4941TIP3   OH236313   2.763   3.913   5.876 -0.0387  0.0197  0.1213
 4941TIP3    H136314   2.810   3.996   5.870  0.0907 -0.1014 -0.6601
 4941TIP3    H236315   2.832   3.848   5.893  0.1797 -0.2415 -1.6333
 4942TIP3   OH236316   2.440   2.127   0.003  0.1484  0.0876  0.1230
 4942TIP3    H136317   2.424   2.071   0.079 -0.4257  0.1668  0.0603
 4942TIP3    H236318   2.480   2.206   0.038  1.4113 -0.5432  0.1656
 4943TIP3   OH236319   0.782   6.325   2.135 -0.9032  0.3701  0.0061
 4943TIP3    H136320   0.708   6.320   2.075  0.4990  1.3080 -1.8589
 4943TIP3    H236321   0.859   6.317   2.079  0.4348  0.6272  1.7560
 4944TIP3   OH236322   6.798   5.685   4.587 -0.1393  0.2225  0.1732
 4944TIP3    H136323   6.771   5.726   4.669 -0.7376 -0.4150  0.2982
 4944TIP3    H236324   6.730   5.620   4.569  0.6519 -0.5181 -0.1679
 4945TIP3   OH236325   4.019   2.719   4.112  0.1547  0.5776 -1.0179
 4945TIP3    H136326   3.969   2.738   4.032 -0.6803  1.8316 -0.2214
 4945TIP3    H236327   4.064   2.637   4.093 -0.9832  0.2306 -2.3451
 4946TIP3   OH236328   6.255   2.202   4.088 -0.4825 -0.4417 -0.3657
 4946TIP3    H136329   6.240   2.157   4.171 -2.0498  0.5530 -0.0772
 4946TIP3    H236330   6.250   2.133   4.022 -2.8573 -0.7347  0.0709
 4947TIP3   OH236331   5.214   1.359   4.957 -0.1458  0.5174  0.0795
 4947TIP3    H136332   5.265   1.282   4.930  0.0238  0.9202 -0.7607
 4947TIP3    H236333   5.272   1.433   4.940 -0.9107  0.9590 -0.6213
 4948TIP3   OH236334   5.567   2.445  16.620  0.4277  0.7121 -0.3233
 4948TIP3    H136335   5.638   2.432  16.557  0.2622  0.8359 -0.5382
 4948TIP3    H236336   5.610   2.483  16.697  1.0714 -1.9331  0.6687
 4949TIP3   OH236337   4.981   4.798   0.644 -0.1005 -0.2440  0.0902
 4949TIP3    H136338   4.928   4.751   0.580 -2.0775  0.4081  1.2429
 4949TIP3    H236339   4.919   4.834   0.707  1.7149  0.2851  1.6392
 4950TIP3   OH236340   2.869   5.755  11.873 -0.3375  0.1160  0.2738
 4950TIP3    H136341   2.883   5.818  11.803 -0.2182  1.1376  1.2049
 4950TIP3    H236342   2.802   5.795  11.929  1.0044  0.2531  1.8401
 4951TIP3   OH236343   3.932   3.044  15.015  0.0742 -0.7536 -0.3194
 4951TIP3    H136344   4.010   3.015  15.061 -0.3163 -0.0667  0.8095
 4951TIP3    H236345   3.933   3.140  15.025 -0.1946 -0.6314 -1.4522
 4952TIP3   OH236346   6.622   3.774   2.098 -0.3079  0.4452  0.0825
 4952TIP3    H136347   6.686   3.748   2.032 -0.5183 -0.7867  0.3644
 4952TIP3    H236348   6.564   3.699   2.106  1.2698 -0.4759  3.6114
 4953TIP3   OH236349   4.949   1.295  15.713 -0.0833 -0.1973 -0.5739
 4953TIP3    H136350   5.041   1.298  15.741 -0.2543 -0.3295  0.0159
 4953TIP3    H236351   4.929   1.384  15.684  0.3595 -0.2761 -1.1219
 4954TIP3   OH236352   6.815   1.307   0.943 -0.2446 -0.6097 -0.7832
 4954TIP3    H136353   6.888   1.278   0.997  0.2770  1.5884 -0.2312
 4954TIP3    H236354   6.830   1.268   0.857  0.7318 -1.4320 -0.2435
 4955TIP3   OH236355   2.433   0.808   1.013  0.2663 -0.1170 -0.1474
 4955TIP3    H136356   2.470   0.729   0.974 -0.0679  0.4373 -1.6027
 4955TIP3    H236357   2.482   0.819   1.096  0.9421 -1.3205 -0.3763
 4956TIP3   OH236358   2.418   6.245  15.384  0.3667 -0.5744 -0.2528
 4956TIP3    H136359   2.405   6.154  15.357 -0.6116 -0.3374 -0.6179
 4956TIP3    H236360   2.460   6.287  15.309  1.3534 -0.8590  0.1365
 4957TIP3   OH236361   5.390   2.122   3.912  0.1334  0.2931 -0.2921
 4957TIP3    H136362   5.445   2.148   3.986  0.5843  0.3886 -0.6561
 4957TIP3    H236363   5.358   2.035   3.934 -1.2403  1.0717  0.8644
 4958TIP3   OH236364   5.243   2.986  15.622  0.2105  0.0867  0.6097
 4958TIP3    H136365   5.297   2.976  15.544 -0.8416 -0.0825 -0.0953
 4958TIP3    H236366   5.294   3.043  15.679  1.1312 -0.0626 -0.0552
 4959TIP3   OH236367   1.470   0.775   4.368  0.1636  0.0304 -0.2339
 4959TIP3    H136368   1.386   0.780   4.323  0.9036 -1.1672 -1.7687
 4959TIP3    H236369   1.456   0.711   4.438  0.1347 -1.0416 -1.2197
 4960TIP3   OH236370   1.185   0.252   6.135  0.0970 -0.3937 -0.2320
 4960TIP3    H136371   1.145   0.339   6.125 -0.8236 -0.8546 -0.6119
 4960TIP3    H236372   1.183   0.236   6.230 -0.0360 -0.1411 -0.1912
 4961TIP3   OH236373   6.403   6.526  16.597 -0.1079 -0.0858 -0.2892
 4961TIP3    H136374   6.319   6.567  16.617 -0.0730  0.0778 -0.4827
 4961TIP3    H236375   6.421   6.471  16.673 -0.5266 -0.3391 -0.3678
 4962TIP3   OH236376   2.479   5.779   3.189 -0.2927  0.3547  0.0009
 4962TIP3    H136377   2.544   5.733   3.243  0.2095  0.5834 -0.4074
 4962TIP3    H236378   2.449   5.713   3.127 -0.7489  0.1360  0.4487
 4963TIP3   OH236379   1.102   1.126   1.322  0.4131 -0.6544 -0.7571
 4963TIP3    H136380   1.129   1.213   1.352  1.5706 -1.4462  0.5369
 4963TIP3    H236381   1.142   1.065   1.385  0.7495 -2.2031 -2.4369
 4964TIP3   OH236382   0.032   6.375   1.206 -0.0289 -0.1905 -0.0843
 4964TIP3    H136383   0.011   6.457   1.161 -0.6623 -1.0792 -1.4193
 4964TIP3    H236384  -0.003   6.387   1.295 -0.6755  0.7498 -0.4573
 4965TIP3   OH236385   3.664   1.793  14.834 -0.1748 -0.0305  0.0457
 4965TIP3    H136386   3.616   1.824  14.911 -0.8204  0.0911 -0.4023
 4965TIP3    H236387   3.685   1.701  14.854  0.9522  0.4109  0.9901
 4966TIP3   OH236388   1.566   3.307   4.545  0.1195  0.0637  0.1076
 4966TIP3    H136389   1.622   3.369   4.593 -0.7627  0.2152  0.9531
 4966TIP3    H236390   1.622   3.232   4.529  1.5114  1.4396 -1.7592
 4967TIP3   OH236391   3.478   1.812  15.805 -0.4287 -0.6509  1.1416
 4967TIP3    H136392   3.396   1.832  15.759  0.7769 -2.4446 -1.9488
 4967TIP3    H236393   3.480   1.717  15.809  1.6003 -0.6263  0.9875
 4968TIP3   OH236394   0.927   1.231   2.487 -0.1562  0.2293 -0.4370
 4968TIP3    H136395   1.013   1.249   2.449  0.1026 -0.8355 -0.3621
 4968TIP3    H236396   0.865   1.248   2.417  0.2542 -0.8555 -1.0628
 4969TIP3   OH236397   3.547   5.699   6.003 -0.0739  0.3526 -0.5578
 4969TIP3    H136398   3.523   5.649   6.081  0.4736  0.8574 -0.0667
 4969TIP3    H236399   3.477   5.764   5.994 -1.3890 -1.2072 -1.8447
 4970TIP3   OH236400   6.290   4.012  12.063 -0.2053  0.8693 -0.1339
 4970TIP3    H136401   6.377   4.015  12.024  0.4302  1.1562  1.2619
 4970TIP3    H236402   6.247   4.092  12.034 -0.2861  0.3649 -1.4415
 4971TIP3   OH236403   5.774   2.116   3.429 -0.4950  0.1120  0.2732
 4971TIP3    H136404   5.784   2.090   3.520 -1.1524  1.2551  0.6776
 4971TIP3    H236405   5.823   2.198   3.422 -2.3468  1.2417  0.1785
 4972TIP3   OH236406   1.017   1.467   3.541 -0.2867  0.3312 -0.9218
 4972TIP3    H136407   0.932   1.508   3.562  0.4442  1.5060 -0.2058
 4972TIP3    H236408   1.079   1.508   3.601  0.7990 -0.5196 -1.4496
 4973TIP3   OH236409   5.606   0.550   4.970 -0.2471 -0.4609 -0.6342
 4973TIP3    H136410   5.557   0.550   5.052 -1.0171 -2.7147 -1.0392
 4973TIP3    H236411   5.548   0.592   4.907 -0.4479 -0.4743 -0.4592
 4974TIP3   OH236412   1.410   4.514   2.787 -0.3063  0.2273 -0.1728
 4974TIP3    H136413   1.430   4.444   2.848 -0.5994 -0.1268 -0.4777
 4974TIP3    H236414   1.314   4.517   2.784 -0.2989  0.7067 -0.0858
 4975TIP3   OH236415   2.581   2.426   2.989 -0.3293  0.5464  0.0339
 4975TIP3    H136416   2.502   2.398   3.034 -0.1112 -1.7662 -0.9484
 4975TIP3    H236417   2.649   2.425   3.057 -0.5617 -0.2268  0.2582
 4976TIP3   OH236418   5.308   4.872   6.725 -0.0859  0.3950 -0.0250
 4976TIP3    H136419   5.354   4.916   6.655  0.6949  0.0229  0.2410
 4976TIP3    H236420   5.293   4.939   6.791  0.2480  0.4760 -0.0328
 4977TIP3   OH236421   6.617   0.424   4.526  0.4047  0.1166  0.2692
 4977TIP3    H136422   6.557   0.462   4.461  1.6113 -1.3505 -1.7405
 4977TIP3    H236423   6.573   0.440   4.610 -0.8254  2.7408 -0.7955
 4978TIP3   OH236424   6.215   4.388  16.669 -0.2435  0.2409  0.4183
 4978TIP3    H136425   6.193   4.437  16.589 -1.2892  1.0094  1.1591
 4978TIP3    H236426   6.136   4.396  16.724  0.0812 -1.1557  1.0976
 4979TIP3   OH236427   1.495   2.863   1.340  0.1528  0.8381  0.1796
 4979TIP3    H136428   1.590   2.876   1.336  0.3638 -0.7328 -0.1555
 4979TIP3    H236429   1.471   2.894   1.427  1.3420 -0.9027  1.1673
 4980TIP3   OH236430   5.457   5.160   1.945 -0.1271 -0.1450  0.3997
 4980TIP3    H136431   5.422   5.133   1.860  0.0755 -0.7155  0.4948
 4980TIP3    H236432   5.466   5.079   1.995 -1.3588  0.3149  1.3908
 4981TIP3   OH236433   6.011   1.958   5.422 -0.0472 -0.1916 -0.3457
 4981TIP3    H136434   6.067   2.031   5.448 -1.1300  0.6127 -0.2785
 4981TIP3    H236435   6.008   1.901   5.499  0.5711 -0.1867 -0.3105
 4982TIP3   OH236436   2.085   3.261   0.996 -0.1510  0.2215  0.1570
 4982TIP3    H136437   2.150   3.191   1.006  0.8848  1.1755  0.1310
 4982TIP3    H236438   2.019   3.224   0.937  1.0833 -0.2513 -0.9428
 4983TIP3   OH236439   0.205   5.595   4.736  0.2012 -0.8584  0.1003
 4983TIP3    H136440   0.256   5.548   4.670  0.4566 -0.6015  0.1145
 4983TIP3    H236441   0.115   5.595   4.702  0.0550 -2.0532  0.4802
 4984TIP3   OH236442   4.734   4.172  16.056  0.3308 -0.5612  0.0708
 4984TIP3    H136443   4.640   4.151  16.053  0.4974 -1.2092 -0.4708
 4984TIP3    H236444   4.758   4.158  16.148 -0.3781  0.7880  0.4765
 4985TIP3   OH236445   2.567   2.416  13.963  0.4862  0.4117  0.4627
 4985TIP3    H136446   2.570   2.371  13.878  0.4502  0.3572  0.4909
 4985TIP3    H236447   2.557   2.346  14.027 -1.7191  0.5953  0.3538
 4986TIP3   OH236448   4.673   0.521   0.627 -0.3661  1.0340  0.6383
 4986TIP3    H136449   4.717   0.498   0.709 -0.7772 -2.2956  0.0116
 4986TIP3    H236450   4.717   0.469   0.561 -1.9212  1.5061 -0.8065
 4987TIP3   OH236451   2.653   1.642   5.144  0.0922  0.1894 -0.1504
 4987TIP3    H136452   2.703   1.712   5.103  1.7871 -1.1277 -0.4004
 4987TIP3    H236453   2.700   1.562   5.120 -2.2733 -1.1113 -0.5741
 4988TIP3   OH236454   2.630   2.021   1.819  0.5523  0.1173 -0.5650
 4988TIP3    H136455   2.575   2.096   1.842  0.8048 -0.6334  2.6402
 4988TIP3    H236456   2.621   2.014   1.724 -2.1079  2.1511 -0.5301
 4989TIP3   OH236457   6.052   6.014   2.921  0.0709  0.5238  0.4060
 4989TIP3    H136458   6.027   5.983   2.834 -0.3452 -0.2184  0.7828
 4989TIP3    H236459   6.142   6.045   2.910  1.1659 -2.4951  0.3900
 4990TIP3   OH236460   5.870   1.194   0.616  0.6356 -0.2463  0.6820
 4990TIP3    H136461   5.814   1.247   0.560  1.3625  0.3671  0.5239
 4990TIP3    H236462   5.945   1.172   0.561  0.6444 -0.8904  0.9524
 4991TIP3   OH236463   1.193   0.236   0.354  0.7400 -0.0463  0.1919
 4991TIP3    H136464   1.137   0.220   0.278  0.1587  0.5059  0.5069
 4991TIP3    H236465   1.225   0.149   0.378 -1.0092 -0.5578  0.7937
 4992TIP3   OH236466   6.259   6.351   5.837  0.2481  0.2070  0.4140
 4992TIP3    H136467   6.353   6.359   5.817  0.1021  1.1504  0.0998
 4992TIP3    H236468   6.235   6.265   5.802  1.1048 -0.2531  0.9257
 4993TIP3   OH236469   5.006   0.381   5.601 -0.2600  0.0569  0.4577
 4993TIP3    H136470   5.037   0.296   5.633  0.4109 -1.1927 -3.2857
 4993TIP3    H236471   4.917   0.364   5.570  0.5945  0.1900 -2.1735
 4994TIP3   OH236472   3.218   3.218  17.144  0.1796 -0.4732 -0.0952
 4994TIP3    H136473   3.262   3.219  17.059  0.0265  0.6086 -0.1739
 4994TIP3    H236474   3.286   3.192  17.206  0.7811  0.6142 -0.2968
 4995TIP3   OH236475   5.471   5.699  11.592  0.3755 -0.0319  0.0741
 4995TIP3    H136476   5.496   5.633  11.656  0.4941  0.0367  0.0997
 4995TIP3    H236477   5.529   5.773  11.610  0.2581  0.0712  0.0335
 4996TIP3   OH236478   3.237   5.032  11.154 -0.2515 -0.9793  0.5530
 4996TIP3    H136479   3.330   5.050  11.165 -0.5368 -0.6061  2.5005
 4996TIP3    H236480   3.201   5.114  11.120 -0.1049 -0.6713  1.1403
 4997TIP3   OH236481   5.613   2.567  11.212 -0.6039 -0.4830  0.5091
 4997TIP3    H136482   5.531   2.526  11.184  0.3023 -0.8264 -1.6682
 4997TIP3    H236483   5.620   2.645  11.158  0.2645 -0.1833  1.0507
 4998TIP3   OH236484   5.952   5.076   5.050  0.3238 -0.1486  0.7171
 4998TIP3    H136485   5.979   4.995   5.006  2.2744 -0.2277  2.0116
 4998TIP3    H236486   6.033   5.112   5.085 -0.2052  3.4071 -1.4689
 4999TIP3   OH236487   3.574   5.035   2.123 -0.1179 -0.2725  0.3274
 4999TIP3    H136488   3.607   5.103   2.181 -1.7636 -0.5967  1.6713
 4999TIP3    H236489   3.564   5.078   2.038  0.1434  0.7949  0.8367
 5000TIP3   OH236490   4.917   4.708   1.449 -0.1906  0.5811  0.1474
 5000TIP3    H136491   5.005   4.717   1.484 -0.0696 -0.4051  0.1179
 5000TIP3    H236492   4.917   4.760   1.369  0.5353  0.1401 -0.1423
 5001TIP3   OH236493   1.026   0.444  13.114  0.3354 -0.1129  0.0099
 5001TIP3    H136494   1.008   0.414  13.203 -0.0571 -0.7498 -0.2849
 5001TIP3    H236495   1.106   0.496  13.122  0.2724 -0.1341  0.7426
 5002TIP3   OH236496   6.617   6.475  16.225 -0.0040 -0.3161 -0.0589
 5002TIP3    H136497   6.594   6.538  16.157  2.3082  0.1939 -0.4003
 5002TIP3    H236498   6.712   6.465  16.218 -0.0299 -2.0172  1.5745
 5003TIP3   OH236499   4.061   2.065  13.688  0.2296 -0.0090 -0.0687
 5003TIP3    H136500   4.132   2.115  13.647 -1.2360  0.1752 -2.5170
 5003TIP3    H236501   4.060   1.982  13.641 -0.5495 -0.3737  0.5865
 5004TIP3   OH236502   6.603   3.000   3.437  0.1769 -0.3083 -0.7591
 5004TIP3    H136503   6.684   3.022   3.484 -1.0861 -0.1600  1.4223
 5004TIP3    H236504   6.549   3.079   3.444 -0.7751 -0.9439 -0.8120
 5005TIP3   OH236505   3.065   3.870  11.749  0.1779  0.2843 -0.1702
 5005TIP3    H136506   3.101   3.926  11.819 -1.3392  0.3677  0.5788
 5005TIP3    H236507   3.008   3.929  11.699 -0.1119 -0.1880 -0.3991
 5006TIP3   OH236508   6.415   3.150  15.699 -0.0056 -0.0649  0.4084
 5006TIP3    H136509   6.445   3.105  15.778  0.4234  0.8507  0.7731
 5006TIP3    H236510   6.321   3.160  15.711 -0.0439 -0.5220  0.4961
 5007TIP3   OH236511   5.933   3.329  14.633  0.4356 -0.2886 -0.0515
 5007TIP3    H136512   5.971   3.410  14.668  1.6556 -0.3134 -1.3070
 5007TIP3    H236513   6.002   3.289  14.581 -1.3460 -0.2040 -2.6155
 5008TIP3   OH236514   0.438   6.687   0.985 -0.3800  0.3011  0.0093
 5008TIP3    H136515   0.368   6.712   1.045 -0.2166  1.2079 -0.1700
 5008TIP3    H236516   0.516   6.728   1.021 -0.1934  0.4378 -0.5516
 5009TIP3   OH236517   1.306   5.151   1.447  0.2334  0.5514  0.4660
 5009TIP3    H136518   1.307   5.240   1.481  1.2730  1.2711 -1.3370
 5009TIP3    H236519   1.392   5.141   1.404 -0.4593 -0.7876 -0.6619
 5010TIP3   OH236520   2.602   3.619   2.898  0.2740  0.3476 -0.3699
 5010TIP3    H136521   2.679   3.672   2.920 -0.0789 -0.1919  2.3383
 5010TIP3    H236522   2.612   3.539   2.949 -0.7644 -0.8952 -2.0600
 5011TIP3   OH236523   2.695   1.677  16.170  0.3606 -0.4891 -0.2570
 5011TIP3    H136524   2.703   1.584  16.149  0.4623 -0.3395 -0.9031
 5011TIP3    H236525   2.775   1.698  16.219  1.1643 -0.3583 -1.5770
 5012TIP3   OH236526   0.689   1.966  16.502 -0.3898  0.2328  0.1962
 5012TIP3    H136527   0.752   1.973  16.573 -1.0409 -1.7949  1.0221
 5012TIP3    H236528   0.674   2.056  16.474  1.3307  0.8980  1.3306
 5013TIP3   OH236529   4.370   1.275  11.214  0.0767 -0.2660 -0.4908
 5013TIP3    H136530   4.296   1.290  11.155 -1.4478 -0.3095  1.3490
 5013TIP3    H236531   4.447   1.287  11.159 -1.2821  0.3315 -2.3342
 5014TIP3   OH236532   5.101   3.464   0.860 -0.1619  0.1148  0.0032
 5014TIP3    H136533   5.092   3.474   0.765 -2.0858  0.9348  0.2523
 5014TIP3    H236534   5.020   3.499   0.896  0.6336  0.0198  1.9792
 5015TIP3   OH236535   0.095   4.434   0.494 -0.2331 -0.2511  0.0931
 5015TIP3    H136536   0.023   4.446   0.432 -0.6714 -0.8434  0.4852
 5015TIP3    H236537   0.067   4.362   0.550  1.0058 -1.0018 -0.2434
 5016TIP3   OH236538   4.429   5.932  12.131  0.0559  0.3799 -0.0378
 5016TIP3    H136539   4.351   5.914  12.182  1.4573  0.5154  2.2145
 5016TIP3    H236540   4.398   5.987  12.059 -1.6624  1.8585  1.7749
 5017TIP3   OH236541   3.436   4.302  12.388  0.4300 -0.2219 -0.1818
 5017TIP3    H136542   3.515   4.301  12.442  0.1365 -1.2176  0.2326
 5017TIP3    H236543   3.452   4.371  12.323  1.3938 -0.0274  0.2602
 5018TIP3   OH236544   1.733   6.090  14.516 -0.2542 -0.1275 -0.2726
 5018TIP3    H136545   1.648   6.115  14.554 -1.0906 -3.3533  0.0693
 5018TIP3    H236546   1.712   6.057  14.429  0.6526 -0.9417 -0.1911
 5019TIP3   OH236547   6.669   4.487   3.570  0.5372 -0.2801 -0.2216
 5019TIP3    H136548   6.682   4.412   3.628  0.4807 -0.9725 -1.0895
 5019TIP3    H236549   6.623   4.552   3.624  0.3658 -0.9603  0.4586
 5020TIP3   OH236550   1.438   4.429   1.542  0.0501 -0.1537  0.1899
 5020TIP3    H136551   1.494   4.418   1.619 -1.1606  0.5421  1.1761
 5020TIP3    H236552   1.385   4.349   1.539  0.0513 -0.1519  0.1180
 5021TIP3   OH236553   5.868   4.226   6.094  0.8219 -0.0236 -0.3936
 5021TIP3    H136554   5.909   4.194   6.013 -1.5361 -2.9394 -0.5188
 5021TIP3    H236555   5.907   4.172   6.163  0.5611  0.3418  0.0393
 5022TIP3   OH236556   2.796   6.257  11.667 -0.5235 -0.2455  0.6401
 5022TIP3    H136557   2.887   6.234  11.684 -0.4865  1.1875  2.5952
 5022TIP3    H236558   2.749   6.228  11.746 -1.5824  0.0071  0.1198
 5023TIP3   OH236559   4.633   0.909  16.563  0.6513 -0.1882  0.0988
 5023TIP3    H136560   4.581   0.955  16.497  0.5767  2.3947  1.8821
 5023TIP3    H236561   4.580   0.832  16.585 -1.4406  1.2733  0.3428
 5024TIP3   OH236562   6.112   4.722  11.678  0.2813 -0.4934 -0.2152
 5024TIP3    H136563   6.049   4.665  11.632  0.1391  0.1268 -0.7960
 5024TIP3    H236564   6.191   4.718  11.624  0.4754 -0.6309  0.0805
 5025TIP3   OH236565   1.595   1.518   4.933 -0.1837 -0.1108 -0.3524
 5025TIP3    H136566   1.653   1.454   4.973  0.6190  0.8060 -0.0313
 5025TIP3    H236567   1.617   1.601   4.977 -1.5483  0.2881 -0.4086
 5026TIP3   OH236568   0.879   0.912  11.234 -0.2954  0.2126  0.2848
 5026TIP3    H136569   0.962   0.886  11.274  0.3908  0.9488 -0.6441
 5026TIP3    H236570   0.868   0.852  11.161 -1.0793 -0.5163  0.9838
 5027TIP3   OH236571   5.644   2.114  16.163  0.3157 -0.0548 -0.0880
 5027TIP3    H136572   5.559   2.082  16.193  0.2449  0.2574  0.0537
 5027TIP3    H236573   5.699   2.114  16.241 -0.2338  1.9579  0.3335
 5028TIP3   OH236574   0.011   5.271   5.939  0.3067 -0.4649 -0.6427
 5028TIP3    H136575   0.049   5.190   5.904 -1.1496 -2.4464  2.1617
 5028TIP3    H236576   0.084   5.311   5.988  0.6969 -0.7485 -0.9853
 5029TIP3   OH236577   4.867   3.429   5.693 -0.2193 -0.1215 -0.5765
 5029TIP3    H136578   4.877   3.339   5.723  1.0014  0.2184  0.0553
 5029TIP3    H236579   4.956   3.459   5.678 -0.7120 -0.0024 -3.7835
 5030TIP3   OH236580   5.284   0.507  11.332  0.5294  0.5882 -0.2412
 5030TIP3    H136581   5.320   0.451  11.401  0.1955  0.8661  0.1613
 5030TIP3    H236582   5.243   0.579  11.378  0.6952  1.0139 -0.7500
 5031TIP3   OH236583   3.256   6.559   5.449 -0.1017 -0.2656 -0.4548
 5031TIP3    H136584   3.235   6.652   5.438  0.6017 -0.0735 -0.1582
 5031TIP3    H236585   3.170   6.516   5.450 -0.3278 -0.0604 -4.4384
 5032TIP3   OH236586   6.283   4.653  11.075 -0.6148  0.2467 -0.4338
 5032TIP3    H136587   6.208   4.597  11.093  1.6965 -3.1061 -0.8964
 5032TIP3    H236588   6.293   4.650  10.980 -0.8611  2.0542 -0.5414
 5033TIP3   OH236589   5.794   2.466   5.099  0.6841  0.4418  0.0375
 5033TIP3    H136590   5.886   2.461   5.072  0.7201 -1.8678  0.4908
 5033TIP3    H236591   5.755   2.385   5.067 -1.1062  1.2233  0.1961
 5034TIP3   OH236592   3.079   2.028  12.512 -0.2545 -0.1860 -0.1706
 5034TIP3    H136593   3.135   2.105  12.503 -0.3497 -0.0617  0.2809
 5034TIP3    H236594   3.060   2.000  12.422  0.0543  0.1176 -0.3265
 5035TIP3   OH236595   3.334   1.534  14.216 -0.0392  0.5167 -0.1352
 5035TIP3    H136596   3.272   1.462  14.215 -0.7036  1.0679 -1.8405
 5035TIP3    H236597   3.289   1.605  14.262  0.1835  0.2018  0.5655
 5036TIP3   OH236598   2.469   2.608   6.356  0.2392  0.1142 -0.2229
 5036TIP3    H136599   2.470   2.569   6.443 -1.6680 -0.9588 -0.6589
 5036TIP3    H236600   2.384   2.583   6.319  0.3394  1.9393 -1.7634
 5037TIP3   OH236601   3.304   3.851   2.884 -0.0113  0.0478  0.3928
 5037TIP3    H136602   3.335   3.772   2.927  1.4489  0.3935 -0.0216
 5037TIP3    H236603   3.377   3.913   2.890  0.5346 -0.1523 -3.2549
 5038TIP3   OH236604   6.507   2.243  17.022 -0.6058  0.3070 -0.1712
 5038TIP3    H136605   6.524   2.313  16.959  0.7994  0.4706  0.3732
 5038TIP3    H236606   6.582   2.245  17.081 -1.6122 -0.2477  1.1443
 5039TIP3   OH236607   1.149   0.367  10.695  0.3999 -0.0242 -0.0735
 5039TIP3    H136608   1.236   0.367  10.736  0.0026 -0.0841  0.7817
 5039TIP3    H236609   1.089   0.385  10.767 -0.2633  0.4516 -0.7424
 5040TIP3   OH236610   1.449   1.308  11.573  0.6219  0.3511 -0.0880
 5040TIP3    H136611   1.456   1.216  11.597  1.4888  0.3159 -0.4432
 5040TIP3    H236612   1.464   1.310  11.478  0.5067  0.8459 -0.1001
 5041TIP3   OH236613   5.227   5.642   5.782  0.2790  0.1298  0.2159
 5041TIP3    H136614   5.319   5.669   5.781 -0.2996  2.2155  0.1820
 5041TIP3    H236615   5.180   5.718   5.818 -1.5498 -0.5029 -0.7537
 5042TIP3   OH236616   6.161   2.811  11.179 -0.5114  0.2997  0.5524
 5042TIP3    H136617   6.072   2.789  11.206  0.1261 -0.7655  1.8541
 5042TIP3    H236618   6.175   2.761  11.099 -0.8368 -0.0961  0.7373
 5043TIP3   OH236619   1.443   6.193  13.890  1.0383  0.2788 -0.1538
 5043TIP3    H136620   1.378   6.132  13.926  1.7505  1.0286  2.5559
 5043TIP3    H236621   1.527   6.156  13.915  1.5691  0.6192 -1.4439
 5044TIP3   OH236622   4.143   1.861   0.587 -0.2503  0.8562 -0.0991
 5044TIP3    H136623   4.234   1.830   0.590 -0.9969 -1.4111 -0.1746
 5044TIP3    H236624   4.117   1.867   0.678 -0.3518  0.4964 -0.1037
 5045TIP3   OH236625   5.710   1.196   2.312 -0.2529 -0.4712  0.0750
 5045TIP3    H136626   5.726   1.120   2.256  0.0714  0.0445 -0.5377
 5045TIP3    H236627   5.666   1.259   2.255 -1.1616 -0.4701  0.7726
 5046TIP3   OH236628   0.722   1.269   6.107 -0.4681  0.7437 -0.5980
 5046TIP3    H136629   0.721   1.279   6.202 -1.2165 -1.1556 -0.3904
 5046TIP3    H236630   0.813   1.247   6.086 -0.3637  0.8919 -0.3058
 5047TIP3   OH236631   1.024   0.919  13.166 -0.1419 -0.0608  0.4003
 5047TIP3    H136632   0.929   0.930  13.173 -0.1032 -0.6386  2.0752
 5047TIP3    H236633   1.059   0.968  13.240  0.9741  1.3032 -1.0018
 5048TIP3   OH236634   0.214   0.603  13.841  0.3481 -0.3848 -0.3718
 5048TIP3    H136635   0.183   0.693  13.829  2.1806  0.2822 -0.2609
 5048TIP3    H236636   0.140   0.558  13.882 -1.3018  0.5552 -2.2280
 5049TIP3   OH236637   5.359   5.678   5.127 -0.0698  0.1979  0.1130
 5049TIP3    H136638   5.300   5.604   5.113 -0.2019  0.2289  0.5155
 5049TIP3    H236639   5.301   5.752   5.143  0.0764  0.2772  0.2691
 5050TIP3   OH236640   3.803   4.054   5.424  0.3061 -0.1834 -0.0146
 5050TIP3    H136641   3.801   4.129   5.484 -0.5583 -0.8601  0.7994
 5050TIP3    H236642   3.859   3.990   5.468  2.4132  0.5759 -1.4502
 5051TIP3   OH236643   2.591   4.208   1.110 -0.1433 -0.3211 -0.8061
 5051TIP3    H136644   2.597   4.120   1.073  0.5676 -0.3502 -0.6306
 5051TIP3    H236645   2.554   4.195   1.197  0.7530 -0.5338 -0.4562
 5052TIP3   OH236646   5.015   1.820  16.512 -0.2454 -0.1151 -0.2002
 5052TIP3    H136647   5.014   1.783  16.601  0.0166 -1.1732 -0.6328
 5052TIP3    H236648   4.974   1.906  16.522  0.8312  0.2527  1.1533
 5053TIP3   OH236649   4.911   0.871  16.576 -0.6298  0.4878  0.3030
 5053TIP3    H136650   4.823   0.896  16.546 -0.4162 -1.4649 -2.1888
 5053TIP3    H236651   4.970   0.906  16.509  0.3561  0.5033  1.1687
 5054TIP3   OH236652   5.435   4.227   5.698  0.7086  0.5393 -0.3860
 5054TIP3    H136653   5.412   4.153   5.754  1.3122  0.5313 -0.1389
 5054TIP3    H236654   5.531   4.228   5.699  0.7018  1.5456 -0.0826
 5055TIP3   OH236655   6.227   6.231   4.186 -0.1673  0.2156  0.2225
 5055TIP3    H136656   6.210   6.321   4.160 -0.0446  0.2935  0.4097
 5055TIP3    H236657   6.172   6.217   4.263  1.8434  1.0049  1.8411
 5056TIP3   OH236658   1.403   3.998  11.544 -0.0913 -0.2435 -0.5769
 5056TIP3    H136659   1.490   3.965  11.522  0.0534 -0.0343 -0.3243
 5056TIP3    H236660   1.345   3.923  11.534  0.0799 -0.3208 -0.9905
 5057TIP3   OH236661   2.250   4.461  12.524  0.1926  0.0434  0.3673
 5057TIP3    H136662   2.273   4.371  12.546 -0.3729 -0.1358  0.2272
 5057TIP3    H236663   2.155   4.459  12.509  0.2940  0.5149 -0.3494
 5058TIP3   OH236664   3.531   1.923   1.801 -0.6502  1.2344 -0.0975
 5058TIP3    H136665   3.585   1.874   1.863  1.2207  2.6792 -0.5451
 5058TIP3    H236666   3.542   2.014   1.826 -4.0955  1.4896  0.7161
 5059TIP3   OH236667   6.235   5.890  11.367 -0.8773  0.0567 -0.1290
 5059TIP3    H136668   6.177   5.837  11.422 -0.3871 -0.0446  0.2960
 5059TIP3    H236669   6.215   5.863  11.278  0.3706 -1.9075  0.1486
 5060TIP3   OH236670   2.778   3.088  16.128 -0.1570  0.2356 -0.1202
 5060TIP3    H136671   2.770   3.175  16.090 -1.7849  0.4744  0.7183
 5060TIP3    H236672   2.705   3.039  16.091 -0.4624 -0.1688  1.0030
 5061TIP3   OH236673   3.021   2.851  11.450 -0.0964 -0.1561  0.1325
 5061TIP3    H136674   3.016   2.926  11.510 -1.4633 -0.1181 -0.0220
 5061TIP3    H236675   2.988   2.884  11.367  0.2604 -0.6591 -0.2141
 5062TIP3   OH236676   1.607   6.285  12.938 -0.4320 -0.2226 -0.2100
 5062TIP3    H136677   1.568   6.198  12.946  0.0617 -0.3959  0.4299
 5062TIP3    H236678   1.611   6.302  12.844  0.8358 -1.5352 -0.4172
 5063TIP3   OH236679   6.792   0.873  11.582 -0.6586  0.1972 -0.0721
 5063TIP3    H136680   6.794   0.847  11.674 -0.2293 -0.5651 -0.2925
 5063TIP3    H236681   6.701   0.860  11.556 -0.7107  0.0965  0.1561
 5064TIP3   OH236682   6.225   1.032   1.833 -0.1065  0.5955  0.0404
 5064TIP3    H136683   6.195   1.035   1.924 -1.6777 -1.2760 -0.3723
 5064TIP3    H236684   6.300   0.972   1.835 -0.2795  0.3789  0.0656
 5065TIP3   OH236685   3.572   0.095  11.313  0.6946 -0.0731 -0.1304
 5065TIP3    H136686   3.604   0.053  11.233  0.4927 -2.1215  0.8286
 5065TIP3    H236687   3.651   0.130  11.355  1.3176 -2.3398  0.6491
 5066TIP3   OH236688   6.336   1.340  13.119  0.9255  0.4429  0.1874
 5066TIP3    H136689   6.359   1.359  13.210 -0.8990  0.2207  0.7002
 5066TIP3    H236690   6.382   1.258  13.099  1.0513  0.3130  1.0196
 5067TIP3   OH236691   6.233   4.153   2.052 -0.8120 -0.2107 -0.3415
 5067TIP3    H136692   6.195   4.241   2.055 -1.5449 -0.4771 -1.4707
 5067TIP3    H236693   6.219   4.117   2.139 -0.0947  0.9596  0.2715
 5068TIP3   OH236694   0.246   2.296   4.223  0.3808 -1.2791 -0.4603
 5068TIP3    H136695   0.244   2.307   4.128  1.8303 -0.5951 -0.4188
 5068TIP3    H236696   0.285   2.210   4.236  0.0601 -1.4297 -0.4753
 5069TIP3   OH236697   3.934   2.061   2.835  0.3279 -0.3966  0.2077
 5069TIP3    H136698   3.919   2.117   2.912 -0.4963  2.1919 -1.7589
 5069TIP3    H236699   4.014   2.013   2.856  0.1487  0.2800  2.6720
 5070TIP3   OH236700   1.257   5.974   3.604 -0.2246 -1.0048  0.4205
 5070TIP3    H136701   1.176   5.973   3.656  0.5210 -3.2709  1.6108
 5070TIP3    H236702   1.260   6.062   3.566 -1.9492 -0.0398  2.4077
 5071TIP3   OH236703   6.719   0.532   3.691 -0.2880  0.0828  0.1840
 5071TIP3    H136704   6.634   0.543   3.648 -1.4878 -1.8876  1.9153
 5071TIP3    H236705   6.782   0.532   3.620 -2.0751 -1.5917 -1.4633
 5072TIP3   OH236706   3.635   0.927  15.613 -0.6801  0.3293 -0.0337
 5072TIP3    H136707   3.620   1.010  15.657  0.6811 -0.2872  1.6812
 5072TIP3    H236708   3.635   0.862  15.684 -0.0673 -0.9068 -1.1436
 5073TIP3   OH236709   5.100   3.572  17.264  0.4540  0.1220 -0.0375
 5073TIP3    H136710   5.113   3.626  17.341 -0.0707  0.4301 -0.1583
 5073TIP3    H236711   5.005   3.564  17.256  0.4779 -4.5248  2.5312
 5074TIP3   OH236712   0.678   4.194  16.039  0.2277  0.0596  0.2957
 5074TIP3    H136713   0.682   4.161  15.949 -1.1926  0.0969  0.2037
 5074TIP3    H236714   0.684   4.289  16.029  0.9298  0.0140  0.3004
 5075TIP3   OH236715   2.496   4.589  15.506  0.4389  0.0543 -0.4444
 5075TIP3    H136716   2.527   4.512  15.460 -0.8153 -0.0171 -1.1829
 5075TIP3    H236717   2.428   4.625  15.450 -1.2734 -0.1570  1.4385
 5076TIP3   OH236718   0.341   3.203  17.283  0.3107 -0.6202  0.0969
 5076TIP3    H136719   0.265   3.172  17.331 -0.6563 -0.0491 -1.0215
 5076TIP3    H236720   0.403   3.230  17.350  0.5698 -3.4801  1.0622
 5077TIP3   OH236721   5.705   0.522  14.403 -0.2005  0.2572  0.3552
 5077TIP3    H136722   5.647   0.467  14.350 -0.0051 -0.2013  0.6073
 5077TIP3    H236723   5.764   0.459  14.445  0.0287  0.6673  0.6438
 5078TIP3   OH236724   1.556   5.148   2.379 -0.0244  0.0303 -0.1345
 5078TIP3    H136725   1.550   5.123   2.286 -0.0859  0.6060 -0.2891
 5078TIP3    H236726   1.603   5.232   2.378 -0.5866  0.3526  0.3036
 5079TIP3   OH236727   6.291   1.223   4.118 -0.1447  0.4285  0.0056
 5079TIP3    H136728   6.368   1.166   4.111  0.0750  1.0636 -3.3781
 5079TIP3    H236729   6.326   1.306   4.150  0.7498  1.0073 -2.4221
 5080TIP3   OH236730   1.510   0.259  12.428 -0.4876  0.1320  0.2463
 5080TIP3    H136731   1.573   0.218  12.486  0.5937  0.3650 -0.7536
 5080TIP3    H236732   1.554   0.338  12.396 -1.9096  1.1858  0.8470
 5081TIP3   OH236733   4.729   0.775   1.921  0.1445  0.4074 -0.2622
 5081TIP3    H136734   4.709   0.733   1.837  1.7891 -0.3304 -0.3024
 5081TIP3    H236735   4.645   0.812   1.949 -0.4214  0.7350 -2.2585
 5082TIP3   OH236736   3.919   0.072  14.540 -0.2526  0.1129  0.4913
 5082TIP3    H136737   3.865   0.150  14.544 -1.3056 -0.5772 -0.0345
 5082TIP3    H236738   3.959   0.066  14.627 -3.0328 -0.7732  1.7475
 5083TIP3   OH236739   0.563   4.212   4.154 -0.1924  0.1024 -0.3294
 5083TIP3    H136740   0.642   4.265   4.155  0.7137 -1.2255 -0.2990
 5083TIP3    H236741   0.507   4.251   4.221  1.7808 -0.9659  2.0019
 5084TIP3   OH236742   4.747   2.694  14.428  0.2429 -0.0539  0.3038
 5084TIP3    H136743   4.833   2.721  14.397  0.1522 -0.0717  0.0298
 5084TIP3    H236744   4.763   2.613  14.477  0.0286 -1.7197 -2.2622
 5085TIP3   OH236745   6.296   3.726  16.825 -0.5808  0.1185 -0.5258
 5085TIP3    H136746   6.352   3.682  16.890 -2.6533 -0.5337  0.8943
 5085TIP3    H236747   6.317   3.683  16.742  0.8685 -0.2447  0.0111
 5086TIP3   OH236748   1.978   5.077   2.236 -0.2770  0.2244  0.1681
 5086TIP3    H136749   2.007   5.000   2.187 -0.4109  0.4568 -0.2793
 5086TIP3    H236750   1.882   5.071   2.236 -0.3558  1.2158 -1.2234
 5087TIP3   OH236751   6.106   1.226   2.112  0.9155  0.0912  0.3674
 5087TIP3    H136752   6.197   1.247   2.091  0.5425  1.4074  0.0024
 5087TIP3    H236753   6.105   1.131   2.124  2.0699 -0.1165 -1.0153
 5088TIP3   OH236754   6.703   6.066   4.871  0.1611 -0.7847  0.5044
 5088TIP3    H136755   6.746   5.987   4.904  2.0607  0.5039  1.2397
 5088TIP3    H236756   6.687   6.047   4.779 -0.5334 -2.4828  0.9447
 5089TIP3   OH236757   5.541   6.624   6.074 -0.1770 -0.1581 -0.4735
 5089TIP3    H136758   5.513   6.663   5.991 -0.7857 -2.6182 -1.4619
 5089TIP3    H236759   5.510   6.685   6.141  0.3008  1.8393 -2.0459
 5090TIP3   OH236760   1.576   3.979   3.632 -0.2875  0.0464  0.4673
 5090TIP3    H136761   1.594   3.998   3.539 -0.0867 -3.8395 -0.3414
 5090TIP3    H236762   1.654   3.934   3.663 -1.9708 -2.2781  1.4228
 5091TIP3   OH236763   4.172   0.140  10.884 -0.8978 -0.0425  0.0476
 5091TIP3    H136764   4.260   0.135  10.921 -0.5487 -1.1357 -0.9199
 5091TIP3    H236765   4.132   0.216  10.928  0.1063 -0.2540  1.3574
 5092TIP3   OH236766   3.311   0.918   3.251  0.2704 -0.4692 -0.0866
 5092TIP3    H136767   3.314   0.828   3.284  0.0377 -0.6747 -0.6225
 5092TIP3    H236768   3.318   0.909   3.156  0.6809  0.1070 -0.1106
 5093TIP3   OH236769   0.973   5.044  13.708  0.0116 -0.1390  0.0200
 5093TIP3    H136770   0.961   5.133  13.742  1.2004  0.6081 -1.4466
 5093TIP3    H236771   0.884   5.015  13.687 -0.2351  1.4593 -1.2930
 5094TIP3   OH236772   5.031   0.328  12.806  0.2458 -0.1793  0.3081
 5094TIP3    H136773   4.991   0.394  12.862 -0.9016 -1.1987  0.7204
 5094TIP3    H236774   4.957   0.288  12.759  1.0260 -0.4424 -0.7214
 5095TIP3   OH236775   4.597   5.554   4.284  0.1595  0.5457 -0.4424
 5095TIP3    H136776   4.555   5.531   4.201  0.7167 -2.9145  0.1448
 5095TIP3    H236777   4.688   5.573   4.260 -0.1488  1.5181 -0.8644
 5096TIP3   OH236778   3.440   0.618   4.435  0.4779 -0.3087 -0.7246
 5096TIP3    H136779   3.379   0.600   4.363 -0.4266 -0.1519 -0.0075
 5096TIP3    H236780   3.524   0.586   4.403 -0.2281 -1.7134 -1.2223
 5097TIP3   OH236781   5.700   4.426  17.031 -0.5391 -0.0827  0.2174
 5097TIP3    H136782   5.608   4.450  17.040 -0.4600  0.4895 -0.4813
 5097TIP3    H236783   5.741   4.500  16.987  0.2215 -0.4158  0.3438
 5098TIP3   OH236784   2.263   1.539   0.540  0.3715  0.1561 -0.4283
 5098TIP3    H136785   2.184   1.488   0.523  0.5567 -0.6090  0.9266
 5098TIP3    H236786   2.270   1.599   0.465 -0.6801 -0.7664 -1.2749
 5099TIP3   OH236787   3.751   2.608  16.434 -0.2993 -0.6816 -0.7681
 5099TIP3    H136788   3.793   2.586  16.350  0.5976 -0.9908 -0.2457
 5099TIP3    H236789   3.820   2.651  16.485 -0.0723 -2.8604  0.8044
 5100TIP3   OH236790   4.828   1.823  14.893 -0.4067 -0.3293 -0.0103
 5100TIP3    H136791   4.893   1.893  14.896 -0.6658 -0.0202 -1.3105
 5100TIP3    H236792   4.855   1.762  14.963 -0.4856  1.3081  1.4714
 5101TIP3   OH236793   3.926   2.752  14.252 -0.0934  0.0071 -0.3460
 5101TIP3    H136794   3.966   2.687  14.309  0.3427  0.7111  0.1629
 5101TIP3    H236795   3.983   2.754  14.175 -2.1485 -2.8470 -2.0035
 5102TIP3   OH236796   1.878   6.557  11.282  0.1166 -0.0988  0.0881
 5102TIP3    H136797   1.913   6.604  11.358  2.4256 -1.0118 -0.3581
 5102TIP3    H236798   1.904   6.466  11.297 -2.6174 -0.9409 -0.0112
 5103TIP3   OH236799   1.363   4.360   3.018  1.1045 -0.0265 -0.7323
 5103TIP3    H136800   1.279   4.318   3.000  1.8535 -1.2672 -1.3053
 5103TIP3    H236801   1.360   4.377   3.113  0.1839  0.0147 -0.7577
 5104TIP3   OH236802   3.272   2.815  13.308  0.2435  0.1783  0.4488
 5104TIP3    H136803   3.237   2.872  13.376  1.2217  1.2798  0.0493
 5104TIP3    H236804   3.207   2.745  13.299  0.3783 -0.2778  2.8803
 5105TIP3   OH236805   0.113   1.060  13.602 -0.5218 -0.4890 -0.4245
 5105TIP3    H136806   0.197   1.107  13.603 -0.0016 -1.3954 -0.8089
 5105TIP3    H236807   0.051   1.122  13.641  0.4244 -0.0011  0.3478
 5106TIP3   OH236808   3.438   0.461  15.115 -0.5042 -0.5365  0.0743
 5106TIP3    H136809   3.400   0.440  15.030 -1.3819 -0.2318  0.3858
 5106TIP3    H236810   3.383   0.415  15.178  0.1567 -0.7830  0.4828
 5107TIP3   OH236811   5.328   0.096   1.187 -0.1874 -0.0049  0.1331
 5107TIP3    H136812   5.345   0.163   1.120 -0.2886 -1.0581 -0.9783
 5107TIP3    H236813   5.414   0.057   1.205 -0.3837 -0.7963 -0.5736
 5108TIP3   OH236814   4.952   0.153  11.463  0.5848  0.2226 -0.2992
 5108TIP3    H136815   5.001   0.100  11.526  1.4995  1.2120 -0.1720
 5108TIP3    H236816   4.865   0.162  11.502  0.9489  0.2622  0.5055
 5109TIP3   OH236817   1.555   4.016   6.580  0.1083  0.4499  0.0935
 5109TIP3    H136818   1.504   3.962   6.520  1.6850 -0.9470 -0.0284
 5109TIP3    H236819   1.575   3.958   6.654 -0.9922  1.8577  1.5407
 5110TIP3   OH236820   3.739   1.987   5.403 -0.0957 -0.2044 -0.1936
 5110TIP3    H136821   3.835   1.988   5.398 -0.1402 -1.0279 -1.3288
 5110TIP3    H236822   3.713   1.919   5.341 -1.4901  0.9505 -0.8795
 5111TIP3   OH236823   0.125   5.330  13.506  0.8880 -0.0355  0.2788
 5111TIP3    H136824   0.178   5.410  13.504  0.5282  0.2441  1.3695
 5111TIP3    H236825   0.035   5.363  13.504  0.7073 -0.3196  2.6407
 5112TIP3   OH236826   4.052   1.379   1.277 -0.3452  0.3001  0.0068
 5112TIP3    H136827   3.957   1.380   1.262 -0.3857 -0.8889  0.1600
 5112TIP3    H236828   4.088   1.334   1.201 -0.1666 -1.8582  1.3472
 5113TIP3   OH236829   2.124   2.530   1.306 -0.1444  0.9367  0.3148
 5113TIP3    H136830   2.182   2.597   1.342 -1.3811  3.3943 -2.0912
 5113TIP3    H236831   2.183   2.458   1.284  1.8338  2.7593 -0.6261
 5114TIP3   OH236832   0.486   0.377   4.589  0.3473 -0.1835  0.2821
 5114TIP3    H136833   0.481   0.333   4.674  1.3531 -0.4227  0.2287
 5114TIP3    H236834   0.457   0.467   4.607 -0.0161 -0.3957  0.7575
 5115TIP3   OH236835   4.429   5.486   5.582 -0.0707 -1.2084  0.1759
 5115TIP3    H136836   4.435   5.578   5.556 -0.8032 -1.5795 -1.3435
 5115TIP3    H236837   4.341   5.477   5.619 -0.4929 -1.6189 -0.9362
 5116TIP3   OH236838   2.178   6.621   3.631  0.0628 -0.2150 -0.3957
 5116TIP3    H136839   2.103   6.670   3.597  0.8180  0.4887 -1.0559
 5116TIP3    H236840   2.153   6.599   3.721 -0.5474  0.8053 -0.3087
 5117TIP3   OH236841   0.467   3.866   5.686  0.2634 -0.2325 -0.4251
 5117TIP3    H136842   0.397   3.927   5.710  1.1403  0.6651 -0.1489
 5117TIP3    H236843   0.480   3.814   5.766 -0.2313 -0.5477 -0.5455
 5118TIP3   OH236844   5.881   5.152   6.225  0.2008 -0.1779  0.5878
 5118TIP3    H136845   5.906   5.060   6.215 -0.6969 -0.5925  1.9644
 5118TIP3    H236846   5.946   5.188   6.285  0.1441 -0.1017  0.6048
 5119TIP3   OH236847   5.402   0.447   1.288 -0.1785 -0.7343 -0.2617
 5119TIP3    H136848   5.431   0.507   1.357 -1.1552 -0.8414  0.2350
 5119TIP3    H236849   5.473   0.384   1.280  0.1276 -0.4683  0.3422
 5120TIP3   OH236850   6.518   2.108  15.558  0.3765 -0.3237 -0.7228
 5120TIP3    H136851   6.430   2.147  15.564  1.5436  2.2584  0.1732
 5120TIP3    H236852   6.521   2.069  15.471 -2.1547 -1.7338 -0.2418
 5121TIP3   OH236853   4.544   2.309  13.976  0.5960  0.6119  0.6085
 5121TIP3    H136854   4.501   2.226  13.995 -0.7470  0.8748 -1.0912
 5121TIP3    H236855   4.503   2.372  14.036  1.0310  0.2016  1.3347
 5122TIP3   OH236856   1.182   5.766  15.244 -0.0187  0.0869 -0.2640
 5122TIP3    H136857   1.185   5.744  15.151  0.9281  0.8643 -0.4375
 5122TIP3    H236858   1.169   5.683  15.288 -0.2104 -0.3222 -1.0867
 5123TIP3   OH236859   2.501   3.430   3.630 -0.1557  0.4100  0.2177
 5123TIP3    H136860   2.529   3.509   3.584 -1.0269  0.9774  0.6533
 5123TIP3    H236861   2.457   3.462   3.709  3.4835 -0.6131  2.7552
 5124TIP3   OH236862   6.350   4.974  11.559 -0.1356 -0.7617 -0.4284
 5124TIP3    H136863   6.399   4.892  11.561 -0.6073 -1.0537 -0.6530
 5124TIP3    H236864   6.417   5.042  11.563  0.1724 -1.1477  1.7300
 5125TIP3   OH236865   4.518   5.717  10.529  0.2349  0.9086  0.1713
 5125TIP3    H136866   4.473   5.800  10.541 -1.0840  0.6311 -2.6136
 5125TIP3    H236867   4.583   5.734  10.461  0.2811 -0.2128 -0.0804
 5126TIP3   OH236868   0.533   4.107   3.918  0.7413 -0.4696  0.3019
 5126TIP3    H136869   0.520   4.184   3.862 -3.0569  0.0207  1.6897
 5126TIP3    H236870   0.564   4.143   4.001  1.8566 -0.7475  0.0120
 5127TIP3   OH236871   1.349   2.409   5.411  0.0706 -0.3914  0.0797
 5127TIP3    H136872   1.417   2.343   5.424  0.8978  0.7288  1.7496
 5127TIP3    H236873   1.394   2.482   5.368 -0.2980 -0.0749  0.2260
 5128TIP3   OH236874   5.460   1.847   1.590  0.0182  0.3389 -0.1451
 5128TIP3    H136875   5.447   1.761   1.549  1.6361  0.9192 -1.9714
 5128TIP3    H236876   5.401   1.905   1.542  0.7507  0.7118 -0.6052
 5129TIP3   OH236877   5.715   5.123   0.162 -0.0505  0.4172  0.4409
 5129TIP3    H136878   5.637   5.150   0.209 -0.9556 -0.4830 -0.5148
 5129TIP3    H236879   5.684   5.099   0.075  1.4850  1.3783 -0.4142
 5130TIP3   OH236880   1.747   1.656  17.084  0.0609  0.3733 -0.4778
 5130TIP3    H136881   1.660   1.686  17.057 -0.2668 -0.6125 -0.5290
 5130TIP3    H236882   1.792   1.637  17.002 -0.0862 -0.2614 -0.4116
 5131TIP3   OH236883   2.339   1.691   1.609  0.1693 -0.2136  0.7005
 5131TIP3    H136884   2.318   1.604   1.574  1.1518  0.1530 -0.8401
 5131TIP3    H236885   2.419   1.677   1.659  2.3329  0.4204 -2.4513
 5132TIP3   OH236886   3.128   3.328  13.392  0.0292 -0.3005  0.5029
 5132TIP3    H136887   3.093   3.327  13.482  0.1300 -1.0990  0.5312
 5132TIP3    H236888   3.101   3.245  13.355  0.2708 -0.1056 -0.1079
 5133TIP3   OH236889   3.295   3.161  16.401 -0.6522 -0.2389  0.1599
 5133TIP3    H136890   3.371   3.187  16.452 -0.3999 -0.2186 -0.2261
 5133TIP3    H236891   3.285   3.067  16.418 -0.8244 -0.1468  0.5799
 5134TIP3   OH236892   5.665   2.240   6.011  0.3161  0.2733 -0.1508
 5134TIP3    H136893   5.648   2.330   5.982 -1.5304  0.7566  2.3211
 5134TIP3    H236894   5.579   2.199   6.013  0.8974 -0.9267  0.7909
 5135TIP3   OH236895   1.338   5.048  12.172  0.4041 -0.3723 -0.1248
 5135TIP3    H136896   1.337   5.131  12.219  0.1627 -0.5397  0.1698
 5135TIP3    H236897   1.406   5.059  12.105  0.9512 -0.2395  0.4550
 5136TIP3   OH236898   3.812   4.411  15.147  0.0171 -0.2884  0.3632
 5136TIP3    H136899   3.810   4.402  15.242 -1.2332  0.2866  0.4034
 5136TIP3    H236900   3.781   4.500  15.130  1.6432  0.1256 -0.5189
 5137TIP3   OH236901   2.946   2.123  16.923  0.1045  0.4890  1.0461
 5137TIP3    H136902   2.853   2.141  16.938 -0.6250 -0.5651 -1.9028
 5137TIP3    H236903   2.956   2.030  16.942 -0.5204 -0.5167 -3.0898
 5138TIP3   OH236904   4.801   1.910  11.062  0.1715  0.3765  0.2347
 5138TIP3    H136905   4.768   1.932  11.149 -0.6382  3.7503 -0.8320
 5138TIP3    H236906   4.843   1.825  11.072 -0.8082  0.2509  3.6778
 5139TIP3   OH236907   4.906   5.104  12.020 -0.2822 -0.2245 -0.1152
 5139TIP3    H136908   4.978   5.124  12.081 -1.1202  1.4074  0.3429
 5139TIP3    H236909   4.828   5.140  12.062 -1.2883 -1.3932 -0.9432
 5140TIP3   OH236910   4.263   3.689   3.422 -0.0243 -0.6393  0.3699
 5140TIP3    H136911   4.352   3.699   3.455 -0.1941  1.0539  0.3918
 5140TIP3    H236912   4.256   3.754   3.351 -1.2380 -0.7244  0.3948
 5141TIP3   OH236913   3.009   1.581  12.157  0.0145  0.3739  0.3128
 5141TIP3    H136914   2.986   1.493  12.127  1.9064 -0.0852  0.1397
 5141TIP3    H236915   3.021   1.631  12.076 -0.9726  0.7944  0.4107
 5142TIP3   OH236916   6.089   5.351  16.128 -0.0731  0.1042 -0.0893
 5142TIP3    H136917   6.045   5.385  16.050  0.0373 -2.0844 -1.1516
 5142TIP3    H236918   6.070   5.415  16.196  0.9591  2.7833 -2.2141
 5143TIP3   OH236919   3.895   1.734  10.286  0.5972 -0.2734  0.2321
 5143TIP3    H136920   3.880   1.641  10.304 -0.8554  0.1006  1.0675
 5143TIP3    H236921   3.849   1.779  10.357  0.9334  1.0941 -0.4145
 5144TIP3   OH236922   5.622   0.173   4.605  0.0149 -0.2222 -0.5212
 5144TIP3    H136923   5.565   0.250   4.595  0.3250  0.0214 -0.4024
 5144TIP3    H236924   5.561   0.100   4.616 -0.2753  0.2030  0.8502
 5145TIP3   OH236925   4.884   6.773  10.868  0.0729 -0.2934  0.3570
 5145TIP3    H136926   4.848   6.765  10.780 -1.0993 -0.5454  0.8411
 5145TIP3    H236927   4.812   6.807  10.920  1.0246  0.6909  1.0475
 5146TIP3   OH236928   2.592   5.713  11.012  0.0237  0.5088  0.4002
 5146TIP3    H136929   2.543   5.633  11.028 -2.1453  1.7818  0.3616
 5146TIP3    H236930   2.617   5.709  10.920  0.7423 -0.5374  0.6316
 5147TIP3   OH236931   5.152   5.960   3.700 -0.3985  0.0725  0.4979
 5147TIP3    H136932   5.246   5.944   3.706 -0.0581  1.7777 -0.2699
 5147TIP3    H236933   5.120   5.947   3.790  0.6305 -0.0544  0.8523
 5148TIP3   OH236934   6.270   2.442   0.521 -0.0253  0.4205 -0.3512
 5148TIP3    H136935   6.226   2.442   0.605  2.0045  0.8195  0.7464
 5148TIP3    H236936   6.223   2.506   0.468  1.4562  3.5516  2.0099
 5149TIP3   OH236937   1.721   4.500  11.338  0.1136 -0.0769 -0.0273
 5149TIP3    H136938   1.722   4.460  11.251  1.5417 -2.3045  0.9581
 5149TIP3    H236939   1.692   4.590  11.323 -0.9297 -0.7930 -2.6297
 5150TIP3   OH236940   2.337   1.890  11.967  0.9624  0.0226  0.0636
 5150TIP3    H136941   2.331   1.897  12.062 -0.6315  2.2599 -0.1702
 5150TIP3    H236942   2.404   1.954  11.942 -0.7966  1.6369 -0.5658
 5151TIP3   OH236943   6.438   6.150  14.498  0.1899  0.4458  0.0908
 5151TIP3    H136944   6.415   6.176  14.588 -1.1937  2.5184 -0.7992
 5151TIP3    H236945   6.368   6.090  14.472 -1.0092  2.0452 -0.5241
 5152TIP3   OH236946   6.814   1.931  15.237  0.3352 -0.3329  0.0949
 5152TIP3    H136947   6.721   1.945  15.254  0.3847  1.7504 -1.1766
 5152TIP3    H236948   6.851   1.906  15.322 -1.2305 -0.4366  0.7667
 5153TIP3   OH236949   4.924   3.415  17.010 -0.2228 -0.4933 -0.1207
 5153TIP3    H136950   4.953   3.354  16.943  0.3192 -2.4761  1.8455
 5153TIP3    H236951   4.995   3.480  17.016 -0.1404 -0.4774 -1.2229
 5154TIP3   OH236952   5.583   0.274  16.001  0.5831 -0.2834 -0.6648
 5154TIP3    H136953   5.667   0.273  16.046  0.5463  1.7749 -0.5251
 5154TIP3    H236954   5.589   0.347  15.940 -0.9365 -0.4246 -0.9998
 5155TIP3   OH236955   2.684   2.501  17.159 -0.3027 -0.5502  0.0274
 5155TIP3    H136956   2.773   2.535  17.170 -0.1427 -0.6456 -0.9892
 5155TIP3    H236957   2.640   2.567  17.106 -0.2232 -1.5418 -1.2861
 5156TIP3   OH236958   3.618   0.500  11.052  0.2402  0.1817  0.3291
 5156TIP3    H136959   3.682   0.429  11.047  0.9714  0.6110  2.8396
 5156TIP3    H236960   3.534   0.456  11.063  0.5545 -0.3404  0.6878
 5157TIP3   OH236961   5.038   4.084  12.464 -0.4619  0.1301 -0.1139
 5157TIP3    H136962   5.045   4.178  12.446  0.8687  0.0060 -0.2945
 5157TIP3    H236963   5.036   4.043  12.378  0.6621 -0.1128 -0.0286
 5158TIP3   OH236964   0.895   0.655   2.910 -0.2991  0.3993  0.7536
 5158TIP3    H136965   0.808   0.693   2.901  0.0176  0.9241 -0.0934
 5158TIP3    H236966   0.954   0.716   2.866  0.3659 -0.4692  0.3967
 5159TIP3   OH236967   1.265   2.227   1.835 -0.4026  0.0611 -0.5291
 5159TIP3    H136968   1.207   2.248   1.762  1.1065  1.4307 -1.3688
 5159TIP3    H236969   1.336   2.291   1.829  1.4282 -1.8405  0.2183
 5160TIP3   OH236970   0.223   6.803   3.561 -0.3301  0.6465 -0.2495
 5160TIP3    H136971   0.214   6.761   3.476  3.4393  0.1004 -0.4569
 5160TIP3    H236972   0.253   6.733   3.619  1.3129  1.9557  0.5234
 5161TIP3   OH236973   2.009   5.785   0.021  0.4001 -0.7674 -0.8045
 5161TIP3    H136974   1.962   5.713   0.062  2.0805 -2.2266 -1.3808
 5161TIP3    H236975   2.071   5.742  -0.038  0.1313  1.2035 -2.5717
 5162TIP3   OH236976   5.949   2.057   0.482 -0.7346 -0.1256  0.1071
 5162TIP3    H136977   5.967   2.149   0.462 -1.1763  0.2540  1.4229
 5162TIP3    H236978   5.864   2.058   0.524 -0.5099 -1.0914  0.5903
 5163TIP3   OH236979   4.156   3.507   5.050  0.3575 -0.0265 -0.1426
 5163TIP3    H136980   4.171   3.561   5.128 -0.1471 -1.2231  0.8218
 5163TIP3    H236981   4.170   3.566   4.976  0.6878  1.1814  0.8590
 5164TIP3   OH236982   3.026   3.477   3.439  0.0472 -0.3930  0.9731
 5164TIP3    H136983   2.987   3.553   3.482  1.2933  0.0631  1.3283
 5164TIP3    H236984   3.017   3.495   3.345 -0.1390 -0.0579  1.0539
 5165TIP3   OH236985   6.403   1.581   1.731  0.1285 -0.2431  0.1802
 5165TIP3    H136986   6.330   1.575   1.669 -0.6376  1.1463  0.9167
 5165TIP3    H236987   6.393   1.667   1.771  2.7779  0.3799 -0.4177
 5166TIP3   OH236988   5.640   5.870   3.956 -0.0893 -0.0386  0.1387
 5166TIP3    H136989   5.723   5.917   3.967 -0.3622  0.4551  0.1041
 5166TIP3    H236990   5.580   5.914   4.016 -0.1347 -0.8715  0.7126
 5167TIP3   OH236991   6.177   3.141   5.353 -0.1594 -0.0641 -0.3680
 5167TIP3    H136992   6.111   3.210   5.344 -0.8691 -0.7911 -0.7415
 5167TIP3    H236993   6.154   3.077   5.285  0.6355 -0.5571 -0.1740
 5168TIP3   OH236994   5.293   5.145  12.274 -0.1151 -0.8139 -0.0551
 5168TIP3    H136995   5.372   5.164  12.224 -1.6845  3.6696 -1.0991
 5168TIP3    H236996   5.313   5.174  12.363 -0.6600  0.6893 -0.4056
 5169TIP3   OH236997   6.389   4.829   0.776  0.7247  0.0376 -0.1039
 5169TIP3    H136998   6.319   4.831   0.710  3.0947  1.5601 -2.6986
 5169TIP3    H236999   6.383   4.742   0.814  0.7200 -1.7986 -4.0028
 5170TIP3   OH237000   1.092   3.547  13.145  0.5649  0.3616 -0.7489
 5170TIP3    H137001   1.107   3.638  13.173 -1.0783  0.9728 -1.8140
 5170TIP3    H237002   1.126   3.494  13.217  1.7546  1.8082 -0.2151
 5171TIP3   OH237003   1.540   3.293  11.600  0.3489  0.1638  0.1302
 5171TIP3    H137004   1.541   3.260  11.689  1.6576 -1.5635 -0.4918
 5171TIP3    H237005   1.448   3.294  11.575 -0.1563  2.0407  1.9767
 5172TIP3   OH237006   3.455   0.630  11.972  0.0632 -0.0124  0.0043
 5172TIP3    H137007   3.538   0.591  11.947 -0.4017 -0.4154 -0.9196
 5172TIP3    H237008   3.479   0.703  12.030  0.9277 -2.1290  2.4239
 5173TIP3   OH237009   0.370   0.149   1.846 -0.3973  0.1426 -0.5299
 5173TIP3    H137010   0.423   0.211   1.796 -0.4919  0.1608 -0.6094
 5173TIP3    H237011   0.329   0.201   1.914  0.8838 -0.1430  0.4862
 5174TIP3   OH237012   6.580   5.478   5.506 -0.0320  0.3980 -0.0989
 5174TIP3    H137013   6.556   5.533   5.581  0.3206  0.3975  0.0150
 5174TIP3    H237014   6.652   5.423   5.538 -0.1808  0.0834 -0.3045
 5175TIP3   OH237015   2.134   1.122   0.348 -0.4110  0.0141  0.2900
 5175TIP3    H137016   2.214   1.083   0.315 -1.4126 -1.6099 -0.2720
 5175TIP3    H237017   2.124   1.086   0.436 -1.4007 -1.1256 -0.2757
 5176TIP3   OH237018   1.656   0.950   1.222 -0.0360 -0.2657  0.4727
 5176TIP3    H137019   1.616   0.962   1.308  0.4477 -0.4684  0.7326
 5176TIP3    H237020   1.676   0.856   1.217 -0.3727 -0.3166 -0.0020
 5177TIP3   OH237021   6.517   4.054  15.244  0.5194 -0.0420  0.0559
 5177TIP3    H137022   6.595   4.034  15.192 -0.0332 -1.3434 -0.2835
 5177TIP3    H237023   6.550   4.064  15.334  1.1608 -0.0259 -0.1781
 5178TIP3   OH237024   2.026   6.690  12.829  0.1253 -0.3100  0.3030
 5178TIP3    H137025   1.984   6.669  12.912  0.9021  0.1807  0.8291
 5178TIP3    H237026   2.088   6.759  12.850  1.4780 -1.2791 -0.3797
 5179TIP3   OH237027   1.190   0.860  12.898  0.2839  0.2774 -0.0313
 5179TIP3    H137028   1.173   0.815  12.815 -0.9279 -0.2987  0.5246
 5179TIP3    H237029   1.136   0.815  12.962  2.5749 -0.4740  1.4594
 5180TIP3   OH237030   6.742   5.917  12.530 -0.0656 -0.0620 -0.2333
 5180TIP3    H137031   6.789   5.908  12.613 -0.9962 -0.8205  0.2129
 5180TIP3    H237032   6.777   5.998  12.492  1.5212 -0.5556  0.1448
 5181TIP3   OH237033   4.498   2.521  16.041  0.1691 -0.1025 -0.5442
 5181TIP3    H137034   4.502   2.579  15.965  1.3690 -0.0908 -0.4808
 5181TIP3    H237035   4.590   2.500  16.060 -0.1560 -0.5305  0.5739
 5182TIP3   OH237036   6.692   5.975   3.603  0.3447  0.1195  0.1043
 5182TIP3    H137037   6.656   6.062   3.623 -1.8978 -0.9439  0.8146
 5182TIP3    H237038   6.719   5.982   3.511 -1.2310  1.1242 -0.3195
 5183TIP3   OH237039   5.078   6.258   3.837 -0.1781 -0.2849  0.3269
 5183TIP3    H137040   5.108   6.302   3.757  0.4361  0.4929  0.9734
 5183TIP3    H237041   4.998   6.214   3.812  0.0555 -0.1029 -0.7451
 5184TIP3   OH237042   3.828   1.730   5.115 -0.7224 -0.3866 -0.6645
 5184TIP3    H137043   3.806   1.708   5.206  2.0130  0.7123  0.3082
 5184TIP3    H237044   3.845   1.824   5.116  4.4064 -1.1314 -1.1100
 5185TIP3   OH237045   3.909   5.109   2.471  0.0794  0.3802 -0.7814
 5185TIP3    H137046   3.912   5.129   2.565  3.7347  0.9409 -0.9401
 5185TIP3    H237047   3.926   5.194   2.429 -0.3163 -0.1086 -1.9345
 5186TIP3   OH237048   6.344   5.694  15.198  0.0854 -0.1366 -0.1749
 5186TIP3    H137049   6.281   5.714  15.129  1.6353  1.6458 -1.1413
 5186TIP3    H237050   6.297   5.637  15.259 -1.6770 -0.7580 -2.0887
 5187TIP3   OH237051   2.764   1.198   2.583  0.6699 -0.1825 -0.1669
 5187TIP3    H137052   2.680   1.203   2.630  0.5098 -0.4536 -0.4212
 5187TIP3    H237053   2.792   1.108   2.595  1.3005  0.1068  0.5557
 5188TIP3   OH237054   0.339   4.970  16.522 -0.2118 -0.1352 -0.4448
 5188TIP3    H137055   0.418   4.925  16.491  0.0467  0.0093 -0.0122
 5188TIP3    H237056   0.299   5.006  16.443  0.1400 -0.2377 -0.6750
 5189TIP3   OH237057   0.150   6.087   0.136  0.7033 -0.0377  0.1561
 5189TIP3    H137058   0.106   6.063   0.217  0.4890  0.9379  0.3301
 5189TIP3    H237059   0.213   6.016   0.121  0.0688 -0.7111  0.6530
 5190TIP3   OH237060   6.804   1.263  13.010  0.0362 -0.2112 -0.4548
 5190TIP3    H137061   6.835   1.172  13.013 -0.5787 -0.3964  1.5300
 5190TIP3    H237062   6.792   1.286  13.102 -1.9503  1.1416 -1.0283
 5191TIP3   OH237063   3.288   2.882  16.584 -0.1225  0.4019 -0.0355
 5191TIP3    H137064   3.270   2.847  16.671 -0.0943  0.2942 -0.0729
 5191TIP3    H237065   3.378   2.856  16.566  0.6188  2.3014  0.8091
 5192TIP3   OH237066   3.381   2.466  10.314 -0.2804 -0.1572 -0.0208
 5192TIP3    H137067   3.317   2.398  10.295  0.0940 -0.0264 -1.8170
 5192TIP3    H237068   3.368   2.486  10.407 -0.3873 -2.6710  0.5561
 5193TIP3   OH237069   5.781   1.951  13.347 -0.5939  0.3076 -0.1541
 5193TIP3    H137070   5.701   1.908  13.376  0.2757 -1.1773  0.0770
 5193TIP3    H237071   5.762   1.980  13.258 -1.7122  0.8490  0.2434
 5194TIP3   OH237072   5.356   0.559  13.425  0.5261 -0.0523  0.1103
 5194TIP3    H137073   5.446   0.579  13.402  0.8424 -0.3067  1.1152
 5194TIP3    H237074   5.308   0.562  13.342  1.6431 -0.9635 -0.5675
 5195TIP3   OH237075   1.451   3.284   0.388 -0.4511 -0.2286  0.0351
 5195TIP3    H137076   1.408   3.292   0.302 -1.7663 -3.2517  0.3502
 5195TIP3    H237077   1.379   3.266   0.449  0.5725  1.0195  1.6484
 5196TIP3   OH237078   4.054   6.185  15.646 -0.2947  0.1517 -0.1575
 5196TIP3    H137079   3.960   6.177  15.658 -0.1989 -2.0795 -0.6782
 5196TIP3    H237080   4.065   6.263  15.591 -2.1017 -1.3904 -2.8245
 5197TIP3   OH237081   6.106   2.223  14.869 -0.1243 -0.2725 -0.0029
 5197TIP3    H137082   6.191   2.252  14.833  0.0192 -0.6108  0.0639
 5197TIP3    H237083   6.125   2.139  14.911 -0.6340 -0.6762 -0.5770
 5198TIP3   OH237084   2.842   1.699  16.634  0.4258 -0.3485  0.1161
 5198TIP3    H137085   2.930   1.664  16.652  0.1369 -1.7098 -1.0132
 5198TIP3    H237086   2.852   1.747  16.552  0.2466  0.0029  0.2995
 5199TIP3   OH237087   1.771   4.828  16.195 -0.1307  0.5563 -0.7505
 5199TIP3    H137088   1.863   4.845  16.216  0.1203 -0.6973 -0.7900
 5199TIP3    H237089   1.737   4.782  16.272 -0.4668  0.1492 -1.1412
 5200TIP3   OH237090   1.335   1.050  13.066 -0.5844  0.3372  0.1266
 5200TIP3    H137091   1.269   1.104  13.110 -0.7160  2.1458 -2.1945
 5200TIP3    H237092   1.288   1.008  12.994  0.3297 -0.0206 -0.2772
 5201TIP3   OH237093   6.267   5.539   5.122 -0.2654 -0.1563 -0.2171
 5201TIP3    H137094   6.271   5.446   5.097 -0.4969  0.1442 -1.3848
 5201TIP3    H237095   6.195   5.575   5.070 -1.0829  0.3811  1.2498
 5202TIP3   OH237096   6.202   0.930   2.650  0.1109  0.2405 -0.3444
 5202TIP3    H137097   6.164   0.918   2.563  1.5333  0.1796 -0.9608
 5202TIP3    H237098   6.212   1.025   2.658 -0.4330  0.2790 -0.0545
 5203TIP3   OH237099   1.309   3.331   4.561  0.7779  0.2221 -0.5054
 5203TIP3    H137100   1.292   3.239   4.582 -0.3341  0.4543 -0.3310
 5203TIP3    H237101   1.404   3.339   4.560  0.8724 -0.8090  0.0383
 5204TIP3   OH237102   0.958   6.481   6.394 -1.0352 -0.2349  0.2959
 5204TIP3    H137103   0.983   6.419   6.463  0.2122 -0.3761 -0.2730
 5204TIP3    H237104   0.863   6.474   6.389 -0.8479 -2.9609 -0.5386
 5205TIP3   OH237105   0.183   0.321  11.899 -0.2653  0.2376 -0.3308
 5205TIP3    H137106   0.254   0.379  11.926 -0.8640  1.0315 -0.4324
 5205TIP3    H237107   0.111   0.380  11.877  0.1719 -0.3244 -3.6241
 5206TIP3   OH237108   3.453   5.977   2.112  0.1926 -0.0625 -0.2435
 5206TIP3    H137109   3.415   5.892   2.090  1.2977 -0.6268 -0.0267
 5206TIP3    H237110   3.493   5.963   2.198  1.6454  0.2713 -0.8563
 5207TIP3   OH237111   1.967   6.760  10.751 -0.1053  0.0674  0.2140
 5207TIP3    H137112   2.054   6.748  10.712 -0.0594  0.3105  0.2447
 5207TIP3    H237113   1.909   6.770  10.675  0.0469  0.9738  0.2218
 5208TIP3   OH237114   0.568   3.464   5.912  0.1912  0.2005 -0.1544
 5208TIP3    H137115   0.618   3.396   5.867  1.1077  2.3222 -2.4399
 5208TIP3    H237116   0.604   3.465   6.001  1.5759 -0.8957 -0.6888
 5209TIP3   OH237117   1.774   0.232  11.936  0.0140  0.2412 -0.0736
 5209TIP3    H137118   1.765   0.278  12.020 -1.2120  2.0711 -1.1920
 5209TIP3    H237119   1.685   0.211  11.909  0.4346 -0.8575 -0.6703
 5210TIP3   OH237120   2.688   5.902   4.544 -0.2574 -0.2872  0.5056
 5210TIP3    H137121   2.694   5.882   4.637 -0.0417  0.4217  0.6487
 5210TIP3    H237122   2.765   5.956   4.526 -0.1090 -0.7126 -0.1602
 5211TIP3   OH237123   0.075   3.394  11.416  0.0462 -0.5620  0.0640
 5211TIP3    H137124  -0.012   3.361  11.397 -0.3203  0.0324  0.6532
 5211TIP3    H237125   0.121   3.320  11.456 -0.7528 -0.3870  1.3464
 5212TIP3   OH237126   5.507   3.201  13.737  0.9835  0.6862  0.0393
 5212TIP3    H137127   5.446   3.135  13.770  1.4255  0.4859  0.4502
 5212TIP3    H237128   5.450   3.268  13.698  0.4517  0.9847  1.2870
 5213TIP3   OH237129   1.752   2.016  15.138  0.2476  0.0921  0.0390
 5213TIP3    H137130   1.847   2.027  15.126  0.5656 -0.0243  2.2391
 5213TIP3    H237131   1.733   1.930  15.102  1.3697 -0.7854  1.4765
 5214TIP3   OH237132   5.021   4.864   3.842 -0.7907 -0.0540 -0.4588
 5214TIP3    H137133   5.063   4.942   3.878 -0.9637  1.6437 -3.7409
 5214TIP3    H237134   5.083   4.833   3.775 -1.1325 -2.2369  0.1957
 5215TIP3   OH237135   4.072   3.148   4.361 -0.1362  0.4630 -0.1426
 5215TIP3    H137136   4.075   3.073   4.301 -0.9204 -0.2803  0.7376
 5215TIP3    H237137   4.160   3.187   4.355 -0.2877  0.5610 -1.9695
 5216TIP3   OH237138   0.332   3.069  11.875 -0.0311 -0.1802  0.2238
 5216TIP3    H137139   0.281   2.992  11.851  0.4707 -0.2781 -0.5290
 5216TIP3    H237140   0.268   3.129  11.913 -0.1723 -1.5785  2.2716
 5217TIP3   OH237141   5.812   5.505  17.042  0.4316  0.5302 -0.5488
 5217TIP3    H137142   5.890   5.528  16.991  0.9850 -0.1010 -0.0063
 5217TIP3    H237143   5.836   5.423  17.086 -1.0728 -0.4478 -1.5178
 5218TIP3   OH237144   0.640   0.763   2.896 -0.1124  0.0399  0.0069
 5218TIP3    H137145   0.633   0.793   2.805 -0.5124 -2.1692 -0.7343
 5218TIP3    H237146   0.550   0.762   2.928 -0.0408  0.2013  0.2134
 5219TIP3   OH237147   1.964   0.591  11.809 -0.1570 -0.3626  0.4572
 5219TIP3    H137148   1.900   0.547  11.753 -0.2182  0.2201  0.0549
 5219TIP3    H237149   2.014   0.646  11.748 -0.5299  0.6267  1.0430
 5220TIP3   OH237150   6.419   5.626  11.055  0.2599  0.2597 -0.0281
 5220TIP3    H137151   6.370   5.706  11.035  1.3328  1.4404  1.8622
 5220TIP3    H237152   6.497   5.657  11.102  0.3493 -1.9447  1.3703
 5221TIP3   OH237153   5.199   0.262   2.483 -0.1975 -0.7422 -0.3848
 5221TIP3    H137154   5.213   0.350   2.448  1.2487 -0.4672  0.8239
 5221TIP3    H237155   5.108   0.262   2.513 -0.2268  0.3230 -0.4580
 5222TIP3   OH237156   4.273   5.562  16.925  0.0581  0.0743 -0.2911
 5222TIP3    H137157   4.271   5.587  17.017 -0.8466  1.1385 -0.5997
 5222TIP3    H237158   4.206   5.494  16.916  0.9663 -0.8945  0.0676
 5223TIP3   OH237159   2.432   1.726   4.993 -0.3263 -0.0663  0.2638
 5223TIP3    H137160   2.504   1.682   5.038  0.5119  1.1085  0.0767
 5223TIP3    H237161   2.416   1.672   4.916  2.0689  1.0417 -1.0495
 5224TIP3   OH237162   1.979   3.197   0.432 -0.7205  0.2435 -0.2650
 5224TIP3    H137163   1.890   3.217   0.459 -0.1954 -0.4354  2.0545
 5224TIP3    H237164   2.034   3.258   0.481  0.2698 -1.0956  0.3361
 5225TIP3   OH237165   4.643   6.769   2.788  0.3611 -0.0450  0.0061
 5225TIP3    H137166   4.671   6.699   2.728  0.7630  0.2222 -0.1209
 5225TIP3    H237167   4.720   6.786   2.842  0.4588  0.7125 -0.3576
 5226TIP3   OH237168   0.406   0.848   1.108  0.5010  0.0915  0.1793
 5226TIP3    H137169   0.418   0.907   1.034 -0.1664  0.9523  0.7458
 5226TIP3    H237170   0.311   0.848   1.124  0.5525 -0.6974  0.5388
 5227TIP3   OH237171   2.963   5.181   4.535  0.0862 -0.5934  0.1046
 5227TIP3    H137172   3.013   5.239   4.592  0.6064 -1.7856  0.8627
 5227TIP3    H237173   2.992   5.204   4.446 -1.4629  1.9705  0.2057
 5228TIP3   OH237174   1.376   4.699  16.513 -0.0467 -0.1301 -0.7254
 5228TIP3    H137175   1.389   4.605  16.502 -0.2498 -0.1678 -0.6448
 5228TIP3    H237176   1.300   4.707  16.570 -0.0236  0.0834 -0.7205
 5229TIP3   OH237177   0.242   4.313   1.969 -0.5206 -0.1259  0.1056
 5229TIP3    H137178   0.157   4.330   2.009 -1.4516 -0.3791 -1.6955
 5229TIP3    H237179   0.275   4.236   2.015 -0.9990  0.3405  1.2331
 5230TIP3   OH237180   0.935   1.960  14.434 -0.7146 -0.6344 -0.1832
 5230TIP3    H137181   0.964   1.870  14.417  0.6831  0.0108 -1.3524
 5230TIP3    H237182   0.841   1.958  14.419 -0.6389 -1.8158 -0.5886
 5231TIP3   OH237183   4.790   5.368  12.411 -0.0151  0.4939 -0.2241
 5231TIP3    H137184   4.860   5.419  12.451  0.7175 -0.2400 -0.5425
 5231TIP3    H237185   4.834   5.290  12.377 -1.0658 -0.2021 -0.0097
 5232TIP3   OH237186   2.870   3.989   3.476  0.3057  0.0781  0.4089
 5232TIP3    H137187   2.809   3.944   3.417  0.8358  0.7383 -0.6623
 5232TIP3    H237188   2.905   4.062   3.424  1.2715  0.2932  1.3304
 5233TIP3   OH237189   4.630   3.558  14.311 -0.3747 -0.0032  0.0533
 5233TIP3    H137190   4.707   3.523  14.266 -0.4153  1.7990 -1.4506
 5233TIP3    H237191   4.561   3.493  14.295  0.0203 -0.1160 -1.1721
 5234TIP3   OH237192   1.849   0.626   6.603 -0.1397 -0.0865  0.1409
 5234TIP3    H137193   1.913   0.564   6.636 -0.4658 -0.0373  0.8949
 5234TIP3    H237194   1.855   0.701   6.663  0.1429  0.5480 -0.6626
 5235TIP3   OH237195   0.425   6.477   2.998  0.0795 -0.4416 -0.1083
 5235TIP3    H137196   0.390   6.546   3.055  0.4155 -0.3073 -0.0653
 5235TIP3    H237197   0.360   6.469   2.928 -0.3383 -0.6089  0.2956
 5236TIP3   OH237198   0.389   4.980   5.480 -0.2203 -0.0628 -0.1433
 5236TIP3    H137199   0.427   4.892   5.481 -0.5684 -0.2714 -2.4398
 5236TIP3    H237200   0.462   5.037   5.457 -0.0466  0.2224  1.1149
 5237TIP3   OH237201   6.790   4.700   0.639 -0.2631 -0.4375 -0.7989
 5237TIP3    H137202   6.742   4.774   0.602 -0.1797  0.8173  1.5304
 5237TIP3    H237203   6.874   4.700   0.593  0.5238  2.1749  0.5416
 5238TIP3   OH237204   3.618   0.851   3.251 -0.0881 -0.6504 -0.0972
 5238TIP3    H137205   3.666   0.861   3.333 -0.1562 -0.3734 -0.0920
 5238TIP3    H237206   3.569   0.932   3.241  0.2233 -0.5205 -0.6043
 5239TIP3   OH237207   4.279   0.229  11.212 -0.0181  0.2095  0.0858
 5239TIP3    H137208   4.334   0.209  11.136 -0.2017 -0.8748  0.2273
 5239TIP3    H237209   4.204   0.275  11.175 -0.8048 -1.5764 -0.6015
 5240TIP3   OH237210   4.414   0.658  13.954 -0.2535  0.0801  0.0655
 5240TIP3    H137211   4.418   0.642  14.048  0.0786 -0.9505 -0.1111
 5240TIP3    H237212   4.506   0.656  13.926 -0.4542 -1.1841 -0.5219
 5241TIP3   OH237213   3.797   3.078   2.114  0.2472 -0.1103 -0.4677
 5241TIP3    H137214   3.819   2.985   2.123 -0.9263 -0.3264  0.3036
 5241TIP3    H237215   3.728   3.092   2.179 -0.6976  0.9268 -1.6908
 5242TIP3   OH237216   0.883   5.538  15.969 -0.0370  0.1574  0.0766
 5242TIP3    H137217   0.899   5.630  15.986  0.5919 -0.2752  1.8579
 5242TIP3    H237218   0.819   5.512  16.035  1.4907 -1.2368  1.0359
 5243TIP3   OH237219   1.916   4.792   5.237 -0.2027  0.2339  0.6548
 5243TIP3    H137220   1.921   4.743   5.320 -1.1008  1.3683  1.3863
 5243TIP3    H237221   1.903   4.725   5.170  0.1823 -0.6643  1.4669
 5244TIP3   OH237222   6.580   3.518  13.825 -0.3523  0.3018 -0.1122
 5244TIP3    H137223   6.577   3.489  13.916  0.2308  1.3020  0.2396
 5244TIP3    H237224   6.576   3.438  13.774  2.6759 -0.5261  0.8588
 5245TIP3   OH237225   6.269   2.246   4.743 -0.0411 -0.2134  0.1714
 5245TIP3    H137226   6.263   2.324   4.688  1.2168  0.3276  0.7931
 5245TIP3    H237227   6.259   2.279   4.832 -0.0923 -0.8471  0.4029
 5246TIP3   OH237228   3.405   3.470  16.682  0.1734  0.2536  0.3131
 5246TIP3    H137229   3.446   3.551  16.713  0.6079 -0.6676  2.2166
 5246TIP3    H237230   3.331   3.500  16.630  1.2157  1.8951 -0.2909
 5247TIP3   OH237231   3.258   2.699  17.111 -0.2857  0.3982 -0.0972
 5247TIP3    H137232   3.350   2.675  17.104  0.1042  1.8607 -0.1799
 5247TIP3    H237233   3.231   2.668  17.197 -0.0828 -1.2430 -0.6170
 5248TIP3   OH237234   2.821   4.740   3.707 -0.1662 -0.2525 -0.5167
 5248TIP3    H137235   2.823   4.677   3.779 -0.7263  1.1516  0.7377
 5248TIP3    H237236   2.779   4.693   3.635 -0.4861 -1.3357  0.3663
 5249TIP3   OH237237   4.044   3.400  14.996  0.6330  0.5870 -0.0992
 5249TIP3    H137238   3.991   3.437  15.067 -0.6795 -1.1102 -0.1664
 5249TIP3    H237239   3.981   3.376  14.928  1.8789  2.1659 -1.8643
 5250TIP3   OH237240   3.550   6.698   4.091 -0.7055 -0.1233  0.0845
 5250TIP3    H137241   3.618   6.662   4.035 -0.5853 -0.2011  0.2791
 5250TIP3    H237242   3.477   6.636   4.082 -1.5150  1.0405 -1.7281
 5251TIP3   OH237243   5.255   6.001  12.020 -0.5723 -0.1437 -0.0551
 5251TIP3    H137244   5.259   5.923  11.966 -0.3091  1.0794 -1.8523
 5251TIP3    H237245   5.170   6.041  11.998  0.1031  1.0406 -0.5493
 5252TIP3   OH237246   2.719   5.077  10.762  0.5982 -0.4584  0.1572
 5252TIP3    H137247   2.728   5.058  10.669  0.7783 -1.3147  0.3430
 5252TIP3    H237248   2.753   5.167  10.772 -1.0094  0.2773 -0.8631
 5253TIP3   OH237249   4.085   0.202  15.727  0.4010 -0.4560  0.3284
 5253TIP3    H137250   4.087   0.211  15.822  0.0286  0.2888  0.2767
 5253TIP3    H237251   4.165   0.246  15.697  0.7001 -1.0070  0.3193
 5254TIP3   OH237252   0.770   5.926  15.886 -0.1583  0.6176  0.8977
 5254TIP3    H137253   0.687   5.879  15.884  1.0511 -1.5183 -0.8701
 5254TIP3    H237254   0.796   5.926  15.978 -1.1608 -0.3963  1.1911
 5255TIP3   OH237255   6.086   2.742   6.921  0.4768  0.4473  0.3388
 5255TIP3    H137256   6.098   2.656   6.961 -0.7819  0.3308  0.4697
 5255TIP3    H237257   6.175   2.775   6.909  0.9389 -0.5147  1.0578
 5256TIP3   OH237258   4.157   1.129   2.048  0.1629  0.1947  0.0325
 5256TIP3    H137259   4.196   1.079   2.120 -0.3818  0.3281  0.4301
 5256TIP3    H237260   4.223   1.193   2.025  0.3802  0.0916  0.3582
 5257TIP3   OH237261   6.111   3.633   1.762 -0.2588  0.4787  0.7442
 5257TIP3    H137262   6.086   3.725   1.750  0.9462  0.5534 -1.5645
 5257TIP3    H237263   6.036   3.584   1.727  0.1429  0.6409 -0.3892
 5258TIP3   OH237264   1.432   2.450  14.427 -0.5014 -0.0708 -0.0388
 5258TIP3    H137265   1.361   2.393  14.455 -1.1361  0.3360 -0.7914
 5258TIP3    H237266   1.423   2.455  14.332  0.3532  0.2195 -0.1091
 5259TIP3   OH237267   2.420   4.732  17.265 -0.2593  0.2087  0.4967
 5259TIP3    H137268   2.362   4.657  17.283 -0.8540  0.5116 -0.1269
 5259TIP3    H237269   2.480   4.699  17.198  0.1439 -0.0334  0.9725
 5260TIP3   OH237270   4.326   5.008   0.536 -0.3767  0.1511 -0.2839
 5260TIP3    H137271   4.244   4.987   0.491  0.1829 -0.2371 -1.1439
 5260TIP3    H237272   4.300   5.028   0.626 -1.3797 -0.2698 -0.4749
 5261TIP3   OH237273   4.496   3.724  14.091  0.4692  0.4426  1.1199
 5261TIP3    H137274   4.525   3.694  14.177  1.1532 -0.8601  0.4616
 5261TIP3    H237275   4.452   3.647  14.054  1.9031  0.3627 -0.4563
 5262TIP3   OH237276   5.234   5.140   5.069 -0.1534 -0.5462 -0.3632
 5262TIP3    H137277   5.297   5.113   5.002  2.4932 -0.1110  1.8565
 5262TIP3    H237278   5.249   5.080   5.142 -0.9468  0.7964  0.9314
 5263TIP3   OH237279   4.436   6.553  15.058 -0.0484  0.3006 -0.2196
 5263TIP3    H137280   4.517   6.604  15.054  1.1615 -1.4117  1.4260
 5263TIP3    H237281   4.374   6.609  15.104  0.3558  1.4286 -1.0390
 5264TIP3   OH237282   2.896   4.879   3.945  0.4058  0.5537  0.3781
 5264TIP3    H137283   2.853   4.832   3.873  0.9984  0.1694  0.2640
 5264TIP3    H237284   2.888   4.971   3.922  1.2894  0.4010 -0.5948
 5265TIP3   OH237285   6.660   3.453   0.717 -0.4384 -0.3457  0.0637
 5265TIP3    H137286   6.569   3.424   0.705 -0.3882 -0.1270 -0.9601
 5265TIP3    H237287   6.663   3.540   0.676  0.6138 -1.0480 -1.4329
 5266TIP3   OH237288   4.020   5.884  13.733  0.0331 -0.6578 -0.1362
 5266TIP3    H137289   4.007   5.886  13.828 -1.3203 -0.8261 -0.3135
 5266TIP3    H237290   4.009   5.976  13.706  1.3992 -0.4459 -0.0126
 5267TIP3   OH237291   0.085   1.953   3.326  0.2548  0.1002  0.0688
 5267TIP3    H137292   0.173   1.961   3.289  0.7618 -2.9266  0.5062
 5267TIP3    H237293   0.082   2.020   3.395  1.8460  0.8722 -0.5715
 5268TIP3   OH237294   4.579   5.128   2.344  0.2437  0.2608  0.0779
 5268TIP3    H137295   4.584   5.068   2.270  0.0892 -1.0416  1.1115
 5268TIP3    H237296   4.502   5.101   2.393  1.2050  0.1150  1.5654
 5269TIP3   OH237297   2.265   1.448   1.468 -0.5661 -0.0659  0.2109
 5269TIP3    H137298   2.267   1.411   1.380 -0.8850  1.1566 -0.3097
 5269TIP3    H237299   2.242   1.374   1.524 -2.3273 -0.4375 -0.9599
 5270TIP3   OH237300   6.400   3.718  12.295  0.8794 -0.2053 -1.2047
 5270TIP3    H137301   6.470   3.782  12.311  0.3578 -0.6537  3.8836
 5270TIP3    H237302   6.435   3.635  12.328 -1.8461 -0.5035  1.1492
 5271TIP3   OH237303   1.469   5.801   1.411 -0.3127 -0.4180  0.5537
 5271TIP3    H137304   1.394   5.777   1.466  0.0105 -1.0832  0.7089
 5271TIP3    H237305   1.485   5.894   1.431 -2.6512  0.4399 -1.3375
 5272TIP3   OH237306   1.870   1.186   4.461 -0.5029 -0.5468  0.1639
 5272TIP3    H137307   1.795   1.128   4.448 -1.5449  0.8592 -0.2312
 5272TIP3    H237308   1.843   1.269   4.421  1.4818 -0.1885 -0.4504
 5273TIP3   OH237309   3.881   3.041  14.472 -0.2434 -0.3908  0.5654
 5273TIP3    H137310   3.898   2.956  14.430  0.4620  0.0842 -0.1275
 5273TIP3    H237311   3.936   3.040  14.550  0.4742 -0.2094  0.0748
 5274TIP3   OH237312   5.707   0.579   1.024 -0.7397  0.2154  0.2184
 5274TIP3    H137313   5.742   0.645   0.965 -1.1628  1.0656  0.9062
 5274TIP3    H237314   5.676   0.629   1.100 -0.0580 -0.8804  1.2288
 5275TIP3   OH237315   1.327   0.397  10.914  0.5701 -0.2135 -0.1166
 5275TIP3    H137316   1.357   0.308  10.932  0.0833 -0.2507  0.5533
 5275TIP3    H237317   1.406   0.451  10.920  1.1362 -0.8015 -2.0640
 5276TIP3   OH237318   0.965   5.786  10.453  0.1502  0.0535 -0.2125
 5276TIP3    H137319   0.915   5.867  10.441  1.1714  0.6127 -0.7022
 5276TIP3    H237320   1.038   5.793  10.392 -0.8055 -2.1032 -1.6787
 5277TIP3   OH237321   4.980   3.355   1.782  0.1603  0.4433 -0.1213
 5277TIP3    H137322   4.928   3.428   1.747 -1.4857 -0.6304  0.0457
 5277TIP3    H237323   4.953   3.279   1.731 -0.0836 -0.5672  1.4748
 5278TIP3   OH237324   2.240   5.970  15.079 -0.4148  0.5778 -0.1069
 5278TIP3    H137325   2.150   5.990  15.054  0.6911  1.2534 -3.9743
 5278TIP3    H237326   2.268   5.904  15.015  1.5611 -0.3017  1.6056
 5279TIP3   OH237327   6.677   4.791  15.426  0.3888  0.0163  0.0876
 5279TIP3    H137328   6.597   4.842  15.417  0.9528  0.8431 -0.2933
 5279TIP3    H237329   6.649   4.700  15.417 -0.7062  0.2135  1.2705
 5280TIP3   OH237330   0.022   1.991  16.491 -0.7308 -0.6073  0.2142
 5280TIP3    H137331   0.072   2.025  16.416  0.0429  0.2938  1.1320
 5280TIP3    H237332  -0.000   1.901  16.466  1.1176 -0.9375 -0.3211
 5281TIP3   OH237333   5.580   6.655   4.854 -0.0946  1.0043 -0.4681
 5281TIP3    H137334   5.624   6.609   4.925  0.5368  1.2224 -0.7101
 5281TIP3    H237335   5.548   6.586   4.796 -0.2255  0.8413 -0.2029
 5282TIP3   OH237336   4.259   4.634   0.516 -0.4677  0.3183  0.2726
 5282TIP3    H137337   4.204   4.673   0.584 -0.4055 -0.4525  0.7626
 5282TIP3    H237338   4.214   4.655   0.434 -1.3049 -0.0166  0.6508
 5283TIP3   OH237339   3.961   4.461  16.207 -0.3240 -1.1022 -0.8135
 5283TIP3    H137340   3.915   4.385  16.242  1.0964 -1.0341  1.2783
 5283TIP3    H237341   3.912   4.537  16.240 -0.0393 -1.0652 -0.4738
 5284TIP3   OH237342   0.964   6.564  14.442 -0.2302 -1.3097  0.4319
 5284TIP3    H137343   0.943   6.560  14.349 -1.2121 -0.4909  0.5991
 5284TIP3    H237344   0.933   6.481  14.477 -1.8258 -0.7577  0.3851
 5285TIP3   OH237345   4.539   2.457  12.371 -0.1661 -0.4464  0.7820
 5285TIP3    H137346   4.477   2.491  12.435 -1.7327 -1.0291 -0.3828
 5285TIP3    H237347   4.592   2.533  12.345 -0.8081  0.1883  1.3328
 5286TIP3   OH237348   4.028   4.917  11.480 -0.0054  0.3374  0.0262
 5286TIP3    H137349   4.098   4.882  11.536 -1.5833  0.5700  2.2021
 5286TIP3    H237350   4.059   5.003  11.454  0.9011  0.0961  0.2768
 5287TIP3   OH237351   1.942   0.523  15.480  0.0805 -0.3532 -0.3811
 5287TIP3    H137352   1.942   0.609  15.524  0.9451 -0.8244  0.5466
 5287TIP3    H237353   1.900   0.464  15.543  1.4660 -1.0620 -0.0969
 5288TIP3   OH237354   4.826   2.660   0.052  0.7900  0.2744  0.3741
 5288TIP3    H137355   4.862   2.576   0.078  1.8448  1.0574  1.5577
 5288TIP3    H237356   4.839   2.716   0.129 -0.3268  1.3751 -0.2167
 5289TIP3   OH237357   1.884   5.124   2.932  0.2343 -0.3369  0.0465
 5289TIP3    H137358   1.958   5.104   2.874 -0.7189 -0.1371 -1.2631
 5289TIP3    H237359   1.836   5.042   2.940  0.3642 -0.3657  0.5728
 5290TIP3   OH237360   0.583   6.437   4.407  0.0406 -0.2903  0.5789
 5290TIP3    H137361   0.570   6.502   4.338 -0.3570 -0.4467  0.5052
 5290TIP3    H237362   0.546   6.478   4.486  0.7990  0.0265  0.7745
 5291TIP3   OH237363   6.410   4.609   0.546  0.4445  0.4640  0.5588
 5291TIP3    H137364   6.375   4.522   0.525  0.1433  0.8729 -0.7082
 5291TIP3    H237365   6.478   4.624   0.480  1.2613  0.7321  1.4529
 5292TIP3   OH237366   1.238   4.772   1.441  0.0195  0.2407  0.4548
 5292TIP3    H137367   1.189   4.690   1.436 -0.4956  0.5308  0.7510
 5292TIP3    H237368   1.172   4.839   1.455  0.4911  0.6385  0.7949
 5293TIP3   OH237369   1.642   2.046  13.745 -0.6935 -0.4639  0.1326
 5293TIP3    H137370   1.646   1.950  13.746 -0.8281 -0.4671  0.6904
 5293TIP3    H237371   1.624   2.070  13.836  1.4680  0.2043  0.3969
 5294TIP3   OH237372   2.897   4.968  15.988 -0.1283 -0.5778  0.1401
 5294TIP3    H137373   2.919   5.014  16.069  0.9119  2.2751 -1.6932
 5294TIP3    H237374   2.820   5.013  15.954  0.7244 -0.3368 -1.5355
 5295TIP3   OH237375   3.956   1.784   6.728 -0.1791  0.2646  0.5161
 5295TIP3    H137376   3.917   1.767   6.642  1.0568  2.2714 -0.4957
 5295TIP3    H237377   3.885   1.768   6.790 -1.1644 -0.9736 -0.9010
 5296TIP3   OH237378   3.298   4.464   0.198  0.5175  0.0120  0.3472
 5296TIP3    H137379   3.377   4.409   0.199  1.6399  1.5692 -0.0651
 5296TIP3    H237380   3.235   4.415   0.146  1.5027 -0.8783 -0.0206
 5297TIP3   OH237381   6.582   3.810   3.341  0.2191 -0.1847 -0.0810
 5297TIP3    H137382   6.598   3.899   3.309 -0.4147  0.2515  0.7525
 5297TIP3    H237383   6.549   3.762   3.265  1.7527 -0.0599 -0.8450
 5298TIP3   OH237384   6.202   3.826   2.202  0.2544  0.2498  0.4569
 5298TIP3    H137385   6.193   3.905   2.256  0.9472 -0.9429  2.3564
 5298TIP3    H237386   6.120   3.778   2.217 -0.4950  0.9389 -1.2941
 5299TIP3   OH237387   6.150   4.708  10.581 -0.2877  0.6322  0.6280
 5299TIP3    H137388   6.064   4.676  10.609 -0.2368 -1.8023 -1.8528
 5299TIP3    H237389   6.154   4.689  10.487  3.3436 -0.1835  0.8620
 5300TIP3   OH237390   5.282   3.536  14.496  0.5148 -0.1723  0.2573
 5300TIP3    H137391   5.202   3.582  14.470  0.7233  0.4317  0.6879
 5300TIP3    H237392   5.251   3.461  14.546  0.2554  0.6057  1.2662
 5301TIP3   OH237393   4.723   6.034  13.351 -0.1903 -0.4666 -0.2137
 5301TIP3    H137394   4.747   6.046  13.259  2.1177  1.0691  0.5117
 5301TIP3    H237395   4.784   5.967  13.383  0.7745  0.8482  0.7850
 5302TIP3   OH237396   1.636   5.478  15.024 -0.0605  0.3573 -0.7921
 5302TIP3    H137397   1.627   5.387  15.051  0.4197  0.4672 -0.2344
 5302TIP3    H237398   1.548   5.515  15.031  0.0912  0.4441  0.8802
 5303TIP3   OH237399   3.237   6.112  13.184  0.0577  0.0492  0.3893
 5303TIP3    H137400   3.286   6.177  13.234  0.5394 -0.2385  0.2916
 5303TIP3    H237401   3.146   6.144  13.186  0.4167  1.1881 -0.3941
 5304TIP3   OH237402   4.640   3.267  13.869 -0.2927 -0.5147  0.4281
 5304TIP3    H137403   4.683   3.308  13.794  2.1524 -0.3587  1.8344
 5304TIP3    H237404   4.709   3.263  13.936 -1.1936 -4.5771  1.2204
 5305TIP3   OH237405   3.106   2.223   1.053  0.3296  0.0974  0.3345
 5305TIP3    H137406   3.201   2.236   1.046  0.5251 -0.2869  2.1659
 5305TIP3    H237407   3.092   2.134   1.023  0.5725  0.0777  0.2730
 5306TIP3   OH237408   6.052   0.729  17.093  0.5162 -0.2084  0.4803
 5306TIP3    H137409   6.129   0.710  17.039  0.3226  1.9004 -0.5829
 5306TIP3    H237410   6.087   0.775  17.169  0.5162 -1.0726  1.0105
 5307TIP3   OH237411   5.263   2.667  14.686 -0.5057  0.0269 -0.3904
 5307TIP3    H137412   5.308   2.714  14.616  1.4973 -0.2010  0.6911
 5307TIP3    H237413   5.334   2.627  14.737 -1.9653 -0.6258  1.1844
 5308TIP3   OH237414   5.761   4.547  16.499 -0.0779 -0.7996 -0.2858
 5308TIP3    H137415   5.740   4.531  16.407  0.4170  0.6722 -0.6659
 5308TIP3    H237416   5.856   4.539  16.503 -0.0255 -0.0529 -0.0635
 5309TIP3   OH237417   5.753   0.859   3.193  0.0937  0.4786  0.0648
 5309TIP3    H137418   5.816   0.932   3.191  1.0732 -0.3188  1.0225
 5309TIP3    H237419   5.789   0.799   3.259 -0.9497 -0.6483 -0.3868
 5310TIP3   OH237420   6.502   5.355   6.180 -0.3716  0.3030 -0.4796
 5310TIP3    H137421   6.428   5.298   6.200 -0.2858  0.2175 -0.4043
 5310TIP3    H237422   6.482   5.437   6.225  1.3883 -0.9552  2.7777
 5311TIP3   OH237423   3.056   2.269   0.786 -0.3375  0.2028 -0.7363
 5311TIP3    H137424   3.114   2.205   0.745 -0.3196  0.7900 -1.6495
 5311TIP3    H237425   3.089   2.279   0.875 -0.7920 -1.6092 -0.3596
 5312TIP3   OH237426   3.832   4.832   2.656  0.1313  0.7818 -0.5612
 5312TIP3    H137427   3.788   4.917   2.661 -3.5308 -1.0659  0.9111
 5312TIP3    H237428   3.862   4.826   2.566 -2.1848  2.4189 -1.5017
 5313TIP3   OH237429   3.876   5.338   4.434  0.3288  0.3965 -0.0432
 5313TIP3    H137430   3.875   5.388   4.516  2.0209  2.2636 -1.1276
 5313TIP3    H237431   3.862   5.404   4.366  1.1824 -0.8295 -1.4185
 5314TIP3   OH237432   5.741   6.354  14.631  0.1226  0.3239  0.0543
 5314TIP3    H137433   5.653   6.350  14.668 -0.2633 -0.3391 -0.9043
 5314TIP3    H237434   5.793   6.293  14.684 -0.0308  0.5977  0.5187
 5315TIP3   OH237435   0.806   5.653  10.793  0.1906 -0.1616  0.3296
 5315TIP3    H137436   0.791   5.569  10.837  0.4657 -0.5638 -0.3377
 5315TIP3    H237437   0.727   5.704  10.812  0.3303 -0.2964  1.3493
 5316TIP3   OH237438   4.646   0.608  11.806  0.2920  0.1824 -0.1303
 5316TIP3    H137439   4.590   0.673  11.848 -0.0838  0.9177 -1.7320
 5316TIP3    H237440   4.587   0.537  11.783 -0.0637  1.0302 -1.9709
 5317TIP3   OH237441   0.180   1.624   2.554  0.1227  0.2668  0.3847
 5317TIP3    H137442   0.140   1.562   2.615  0.3688  1.0676  1.3786
 5317TIP3    H237443   0.265   1.586   2.532  0.0921  0.0396  0.6557
 5318TIP3   OH237444   0.967   0.522   1.436  0.0785  0.4046 -0.2540
 5318TIP3    H137445   1.002   0.532   1.347  0.0919 -1.2868 -0.4485
 5318TIP3    H237446   1.044   0.520   1.492  0.1391 -0.0200 -0.3525
 5319TIP3   OH237447   4.702   4.024   5.020  0.0147 -0.4329 -0.4352
 5319TIP3    H137448   4.745   3.951   4.976  1.3598  1.0313 -1.5979
 5319TIP3    H237449   4.652   4.067   4.951 -1.1939 -0.5460  0.3551
 5320TIP3   OH237450   6.161   2.536   6.500 -0.0132 -0.6366  0.2486
 5320TIP3    H137451   6.131   2.607   6.556 -0.0922 -0.2897 -0.2290
 5320TIP3    H237452   6.129   2.457   6.542 -1.2404 -0.3013 -0.0303
 5321TIP3   OH237453   1.220   5.125   3.200  0.0411 -0.5304  0.0882
 5321TIP3    H137454   1.177   5.201   3.161 -0.6354 -0.1175  1.6153
 5321TIP3    H237455   1.294   5.107   3.142  0.6125  1.7129  0.1023
 5322TIP3   OH237456   5.323   0.498   5.811 -0.5477 -0.0671 -0.3377
 5322TIP3    H137457   5.290   0.409   5.826  1.0520 -0.7491 -0.8106
 5322TIP3    H237458   5.318   0.509   5.716 -1.3515  0.6045 -0.2270
 5323TIP3   OH237459   2.610   6.409   0.890  0.3784 -0.4184  0.0274
 5323TIP3    H137460   2.703   6.425   0.872  1.1872 -0.1017  4.1161
 5323TIP3    H237461   2.601   6.314   0.884  0.3493 -0.2795 -2.8646
 5324TIP3   OH237462   0.594   1.593  14.892  0.2314 -0.6638 -0.4122
 5324TIP3    H137463   0.553   1.679  14.895 -0.3848 -0.8962 -1.7811
 5324TIP3    H237464   0.559   1.553  14.812 -0.6840 -2.7564  0.9933
 5325TIP3   OH237465   5.610   3.045  16.991 -0.4176  0.0957  0.0520
 5325TIP3    H137466   5.692   3.091  16.971 -0.0246 -1.9986 -3.6134
 5325TIP3    H237467   5.635   2.979  17.057  0.5481  0.3574 -0.0379
 5326TIP3   OH237468   2.376   2.434   1.508 -0.8206  0.2644  0.2366
 5326TIP3    H137469   2.464   2.426   1.470 -1.3799  1.3860 -1.3220
 5326TIP3    H237470   2.391   2.466   1.597  0.3432  0.3620  0.0115
 5327TIP3   OH237471   1.471   4.701   6.153 -0.0228 -0.0117 -0.3419
 5327TIP3    H137472   1.417   4.751   6.215 -0.8754 -0.5242 -0.6697
 5327TIP3    H237473   1.520   4.640   6.208  0.2727  0.4974 -0.0375
 5328TIP3   OH237474   2.217   0.917   3.472 -0.0140 -0.3749 -0.3256
 5328TIP3    H137475   2.223   0.869   3.555  0.8219  0.1631 -0.0670
 5328TIP3    H237476   2.299   0.897   3.426  1.4767  2.6940  0.8485
 5329TIP3   OH237477   6.081   0.370   3.683 -0.4525 -0.3103 -0.4734
 5329TIP3    H137478   5.999   0.351   3.729 -0.2355  0.5010  0.2474
 5329TIP3    H237479   6.061   0.353   3.591 -0.8273 -2.1769 -0.0704
 5330TIP3   OH237480   6.654   5.937   6.734  0.2945  0.5239  0.3265
 5330TIP3    H137481   6.565   5.966   6.754 -0.0674 -1.8837  2.4249
 5330TIP3    H237482   6.710   5.998   6.783 -0.2551  0.9809  0.3919
 5331TIP3   OH237483   3.251   0.637   4.233 -0.3743  0.3491  0.2490
 5331TIP3    H137484   3.261   0.633   4.138  0.0294  3.1901  0.1461
 5331TIP3    H237485   3.224   0.548   4.258  4.2389 -1.7796 -1.9122
 5332TIP3   OH237486   2.901   1.103   0.649  0.0514  0.0064  0.1182
 5332TIP3    H137487   2.948   1.042   0.591  2.0112  2.0505 -0.5185
 5332TIP3    H237488   2.920   1.072   0.737  3.7873  1.4929 -0.0484
 5333TIP3   OH237489   3.560   1.964  14.631 -0.4191  0.1873  0.5422
 5333TIP3    H137490   3.568   2.057  14.655  0.7022  0.2863 -0.1941
 5333TIP3    H237491   3.574   1.917  14.712 -3.7769  0.7366  1.5079
 5334TIP3   OH237492   3.447   6.785  16.749 -0.7001 -0.6136 -0.1065
 5334TIP3    H137493   3.432   6.702  16.795  1.6024 -1.0736 -0.1264
 5334TIP3    H237494   3.446   6.761  16.657  2.8563 -1.2154 -0.0681
 5335TIP3   OH237495   6.785   2.086  17.177 -0.8313  0.0519  0.5045
 5335TIP3    H137496   6.743   2.159  17.222  2.7425  3.2302 -1.1590
 5335TIP3    H237497   6.863   2.067  17.229 -0.1360 -0.6119 -0.7601
 5336TIP3   OH237498   5.030   3.475  16.071  0.4055  0.1008  0.1547
 5336TIP3    H137499   5.037   3.510  16.160 -0.0824  0.7629 -0.0627
 5336TIP3    H237500   5.089   3.531  16.019  1.2404 -0.7278  0.1822
 5337TIP3   OH237501   4.835   3.586   0.277 -0.4788 -0.2281  0.4093
 5337TIP3    H137502   4.818   3.680   0.266 -3.3268 -0.9594 -2.0703
 5337TIP3    H237503   4.801   3.566   0.364 -1.9534  0.6237  0.0540
 5338TIP3   OH237504   5.613   2.657  12.632  0.3214 -0.3891  0.2250
 5338TIP3    H137505   5.656   2.742  12.639 -0.8009  0.0859  1.7805
 5338TIP3    H237506   5.526   2.672  12.669 -0.2098 -1.9947 -0.3363
 5339TIP3   OH237507   3.173   5.007  16.874  0.0419  0.0007 -0.1430
 5339TIP3    H137508   3.086   5.032  16.904  0.1972  0.1327  0.2022
 5339TIP3    H237509   3.220   4.983  16.954  0.2560 -0.2762 -0.3499
 5340TIP3   OH237510   4.951   4.135  15.733  0.0600 -0.0860 -0.0204
 5340TIP3    H137511   4.934   4.075  15.660  0.6516  0.0815 -0.3064
 5340TIP3    H237512   4.957   4.079  15.810 -0.2178 -0.3040 -0.1570
 5341TIP3   OH237513   1.175   2.376   3.266 -0.3633 -0.0635  0.6627
 5341TIP3    H137514   1.164   2.329   3.184  2.9427 -0.9983  0.6683
 5341TIP3    H237515   1.118   2.453   3.258 -3.3950 -2.3594 -0.6681
 5342TIP3   OH237516   6.798   0.702   5.857  0.6488  0.0623 -0.1686
 5342TIP3    H137517   6.787   0.745   5.942  0.0613  1.7573 -1.0632
 5342TIP3    H237518   6.869   0.639   5.871  0.0081 -0.2575  1.7715
 5343TIP3   OH237519   1.806   5.118  11.673 -0.0688 -0.0485  0.6371
 5343TIP3    H137520   1.720   5.077  11.667  0.3764 -0.7108 -2.1135
 5343TIP3    H237521   1.867   5.052  11.642  1.5968  0.0994  3.4092
 5344TIP3   OH237522   5.832   2.329  12.591  0.7233 -0.2592  0.1672
 5344TIP3    H137523   5.744   2.339  12.627  0.6053 -1.2184  0.1801
 5344TIP3    H237524   5.817   2.297  12.502  1.0336  1.0498 -0.3529
 5345TIP3   OH237525   6.375   2.350   2.921  0.2539 -0.1722  0.0790
 5345TIP3    H137526   6.460   2.392   2.915  0.0310  0.1416 -0.9134
 5345TIP3    H237527   6.358   2.343   3.015  1.4253 -0.3623  0.2838
 5346TIP3   OH237528   3.268   5.880  12.747  0.3631 -0.4632  0.1401
 5346TIP3    H137529   3.280   5.837  12.832  0.1765 -1.3202 -0.2704
 5346TIP3    H237530   3.198   5.944  12.763 -0.2520 -1.2005  0.4185
 5347TIP3   OH237531   5.077   0.055   5.327 -0.1331 -0.0676  0.2183
 5347TIP3    H137532   5.087  -0.037   5.302 -0.6276  0.1058 -0.6556
 5347TIP3    H237533   5.133   0.066   5.404 -0.9598 -1.3751  1.0199
 5348TIP3   OH237534   1.392   4.208  14.506  0.4190 -0.2228 -0.3584
 5348TIP3    H137535   1.454   4.151  14.552 -0.8986 -0.7951  0.7480
 5348TIP3    H237536   1.398   4.182  14.414  0.6901 -1.3297 -0.0349
 5349TIP3   OH237537   3.363   5.252   0.769 -0.4484  0.0825 -0.6835
 5349TIP3    H137538   3.380   5.158   0.765 -0.6959  0.0312 -0.5650
 5349TIP3    H237539   3.418   5.289   0.702 -1.0765 -0.2559 -1.3956
 5350TIP3   OH237540   0.373   2.112   0.577  0.2841  0.1081  0.0462
 5350TIP3    H137541   0.447   2.148   0.625  0.5706 -0.9004  0.3725
 5350TIP3    H237542   0.322   2.189   0.550  0.0111  0.6893  2.1068
 5351TIP3   OH237543   1.273   5.009   2.379  0.9218 -0.1252  0.0458
 5351TIP3    H137544   1.303   5.099   2.389  3.0571 -0.7348 -0.5964
 5351TIP3    H237545   1.248   5.002   2.286 -0.3431  0.1135  0.3592
 5352TIP3   OH237546   6.320   5.328  11.251  0.1359 -0.3868 -0.1930
 5352TIP3    H137547   6.298   5.236  11.266  0.9762 -0.3841  1.1000
 5352TIP3    H237548   6.404   5.325  11.204 -0.1263 -0.2970 -0.6659
 5353TIP3   OH237549   5.168   4.494  11.873 -0.0488  0.1448 -0.0469
 5353TIP3    H137550   5.149   4.407  11.838  0.3621 -0.8272  2.0890
 5353TIP3    H237551   5.254   4.486  11.913  0.1826  1.6645 -0.2028
 5354TIP3   OH237552   2.009   1.477  13.311 -0.4989 -0.5238 -0.3553
 5354TIP3    H137553   2.039   1.545  13.250 -3.0029 -0.1196 -1.2036
 5354TIP3    H237554   1.983   1.404  13.255 -1.2211 -0.7991  0.3247
 5355TIP3   OH237555   5.424   4.966   5.832 -0.0248  0.0714 -0.3973
 5355TIP3    H137556   5.356   5.031   5.814  1.0384  0.9397 -1.3715
 5355TIP3    H237557   5.377   4.884   5.843 -1.4561  1.1210  1.5862
 5356TIP3   OH237558   1.069   0.438  11.723  0.4070 -0.6435  1.1022
 5356TIP3    H137559   1.154   0.420  11.682 -0.4294 -1.3627 -0.4047
 5356TIP3    H237560   1.013   0.366  11.692 -0.9875  0.3377  1.3021
 5357TIP3   OH237561   3.067   3.647  14.024  0.0874 -0.1074 -0.3207
 5357TIP3    H137562   2.990   3.699  14.042 -0.3234 -0.0682 -2.0458
 5357TIP3    H237563   3.082   3.659  13.930  3.0054  1.0073  0.2327
 5358TIP3   OH237564   4.396   1.406  11.932 -0.2014  0.3098  0.5738
 5358TIP3    H137565   4.382   1.467  11.859  1.0119  1.8280  1.5574
 5358TIP3    H237566   4.319   1.419  11.988 -0.8873 -0.4854 -0.1858
 5359TIP3   OH237567   6.137   1.610  12.916 -0.1397  0.3851  0.3014
 5359TIP3    H137568   6.157   1.542  12.852  0.3763  0.1623  0.6962
 5359TIP3    H237569   6.049   1.589  12.947  0.4102 -0.6693  1.1469
 5360TIP3   OH237570   4.066   5.960  14.004  0.8773  0.0007 -0.5432
 5360TIP3    H137571   4.146   5.935  14.050  0.3989 -1.5929 -0.5508
 5360TIP3    H237572   4.057   6.054  14.021  2.0910 -0.0479  0.4549
 5361TIP3   OH237573   2.958   6.241   1.676  0.0265  0.7558  0.0183
 5361TIP3    H137574   2.989   6.204   1.594  0.3140 -0.5780  0.7227
 5361TIP3    H237575   2.962   6.336   1.662 -1.1872  0.5464 -1.9705
 5362TIP3   OH237576   3.357   2.571  13.652 -0.2444 -0.2735  0.2787
 5362TIP3    H137577   3.272   2.600  13.685 -0.5824 -1.5605  0.5623
 5362TIP3    H237578   3.418   2.638  13.683 -1.0080  0.1566  0.8977
 5363TIP3   OH237579   4.954   4.749  13.152 -0.2569  0.4182  0.0865
 5363TIP3    H137580   5.030   4.694  13.132 -1.2576 -1.8159  2.1526
 5363TIP3    H237581   4.984   4.806  13.223 -0.4662 -0.4566  0.8944
 5364TIP3   OH237582   5.347   1.180  11.096  0.1668  0.4062 -0.0429
 5364TIP3    H137583   5.337   1.098  11.143  0.5603  0.9039  0.9219
 5364TIP3    H237584   5.434   1.175  11.056  0.3205  0.4740  0.2773
 5365TIP3   OH237585   2.222   1.209  11.258  0.1954 -0.0393  0.2019
 5365TIP3    H137586   2.131   1.186  11.236 -0.3189  1.1993  0.9504
 5365TIP3    H237587   2.220   1.227  11.352  1.5366 -1.4022  0.5101
 5366TIP3   OH237588   6.232   5.683  15.573  0.1393  0.1630 -0.2678
 5366TIP3    H137589   6.309   5.739  15.558 -0.3866  0.4841 -1.8578
 5366TIP3    H237590   6.177   5.735  15.632  0.8824  0.1602  0.4460
 5367TIP3   OH237591   1.989   0.328  16.253 -0.3543  0.2982  0.1690
 5367TIP3    H137592   1.982   0.411  16.300 -0.8881  0.4133 -0.1155
 5367TIP3    H237593   1.958   0.262  16.315  2.9943 -0.0895  1.5260
 5368TIP3   OH237594   3.648   3.289  11.753  0.1281 -0.1556 -0.1794
 5368TIP3    H137595   3.743   3.297  11.758 -0.0314  1.3129  0.7192
 5368TIP3    H237596   3.619   3.370  11.711 -0.8035 -0.1180  0.5215
 5369TIP3   OH237597   1.850   6.592  12.175 -0.5812  0.8184 -0.4751
 5369TIP3    H137598   1.880   6.575  12.086 -1.2013 -0.2677 -0.4826
 5369TIP3    H237599   1.808   6.678  12.170 -3.0164 -0.3943 -1.8461
 5370TIP3   OH237600   3.918   0.135  15.339  0.6974 -0.3020 -0.5790
 5370TIP3    H137601   3.919   0.094  15.426 -0.9444 -0.1813 -0.4972
 5370TIP3    H237602   3.994   0.098  15.294  0.7244 -1.4565  0.4101
 5371TIP3   OH237603   3.908   3.191   6.144 -0.4287 -0.4095  0.5834
 5371TIP3    H137604   3.934   3.117   6.090  1.0943 -0.6401  1.5917
 5371TIP3    H237605   3.827   3.163   6.188 -0.6878 -0.8858 -0.1974
 5372TIP3   OH237606   4.085   3.203  13.451 -0.1909 -0.2497 -0.3783
 5372TIP3    H137607   4.091   3.205  13.546  0.9347 -3.1616 -0.3408
 5372TIP3    H237608   3.992   3.192  13.432 -0.1946 -1.6197  0.4424
 5373TIP3   OH237609   5.266   4.817   3.681  0.4951 -0.5129  0.1504
 5373TIP3    H137610   5.277   4.737   3.629  0.3657 -2.1765  2.6155
 5373TIP3    H237611   5.341   4.819   3.739  0.0661  0.7255  0.6794
 5374TIP3   OH237612   1.095   2.769  15.063 -0.1191  0.0010  0.7650
 5374TIP3    H137613   1.078   2.677  15.041 -0.5936  0.4865 -0.9195
 5374TIP3    H237614   1.155   2.800  14.995 -0.9758  1.2999  0.5857
 5375TIP3   OH237615   2.328   2.969  15.926 -0.4242  0.5461  0.1134
 5375TIP3    H137616   2.323   3.065  15.922  0.0229  0.5966  0.8245
 5375TIP3    H237617   2.264   2.940  15.861  0.6704  1.3368 -1.3722
 5376TIP3   OH237618   4.766   3.295  13.614  0.5171 -0.0937  0.2937
 5376TIP3    H137619   4.859   3.310  13.596  1.3294 -3.3330  1.5011
 5376TIP3    H237620   4.738   3.233  13.546 -0.5190  0.1387  0.5052
 5377TIP3   OH237621   6.241   2.789  14.594  0.1129 -0.1357  0.4115
 5377TIP3    H137622   6.198   2.748  14.669  0.5451 -3.5896 -1.1290
 5377TIP3    H237623   6.334   2.784  14.614  0.3516 -2.7478 -1.0610
 5378TIP3   OH237624   5.526   2.989  14.808 -0.1636 -0.5477 -0.2628
 5378TIP3    H137625   5.552   2.958  14.894  0.7699 -2.0487 -1.0567
 5378TIP3    H237626   5.532   3.084  14.813  1.9550 -0.7143  0.6836
 5379TIP3   OH237627   1.347   6.326   6.534  0.0988 -0.1812  0.3202
 5379TIP3    H137628   1.280   6.348   6.470  0.6690  1.6143  0.3149
 5379TIP3    H237629   1.415   6.393   6.522  0.8030 -0.5853  1.9072
 5380TIP3   OH237630   0.059   0.557   3.468  0.3269  0.1161  0.7517
 5380TIP3    H137631   0.129   0.493   3.465  0.5582  0.1961  3.3459
 5380TIP3    H237632   0.019   0.554   3.381  2.6314 -0.9269 -0.2934
 5381TIP3   OH237633   5.169   6.111   5.467  0.1581 -0.4098  0.2638
 5381TIP3    H137634   5.080   6.116   5.501 -0.6354 -2.7353 -1.3221
 5381TIP3    H237635   5.224   6.151   5.535 -1.9839  0.2569  1.6327
 5382TIP3   OH237636   3.605   0.683  16.750  0.1270 -0.1275  0.0400
 5382TIP3    H137637   3.645   0.690  16.664  0.4802  0.9283  0.2912
 5382TIP3    H237638   3.540   0.613  16.740  0.0789  0.0732 -1.1115
 5383TIP3   OH237639   1.341   6.298  14.204  0.2712  0.1464 -0.0116
 5383TIP3    H137640   1.350   6.354  14.127 -0.6725  4.0422  2.5439
 5383TIP3    H237641   1.247   6.285  14.213  0.3820 -0.3868  0.3825
 5384TIP3   OH237642   0.076   6.072   5.918 -0.3051 -0.2143 -0.0446
 5384TIP3    H137643   0.094   6.095   6.009 -2.9138  0.6667  0.3065
 5384TIP3    H237644  -0.010   6.030   5.921 -0.2486 -0.5201 -2.0562
 5385TIP3   OH237645   5.545   3.679   5.038  0.7221 -0.6230 -0.3100
 5385TIP3    H137646   5.470   3.730   5.070 -0.4327 -1.7995 -1.1148
 5385TIP3    H237647   5.594   3.741   4.984 -1.1056 -0.5329 -1.9245
 5386TIP3   OH237648   1.540   6.470   1.456 -0.3633 -0.0167 -0.0175
 5386TIP3    H137649   1.577   6.520   1.383  0.0403 -0.4236 -0.0964
 5386TIP3    H237650   1.509   6.537   1.518  0.7394  0.3348  0.1693
 5387TIP3   OH237651   5.956   4.612  11.332 -0.4464  0.0339 -0.5478
 5387TIP3    H137652   5.971   4.556  11.256  1.5826 -1.6087  0.9874
 5387TIP3    H237653   5.948   4.550  11.405  1.9359  1.7348  1.2270
 5388TIP3   OH237654   0.001   0.120  16.343 -0.0208 -0.5757  0.3244
 5388TIP3    H137655   0.070   0.147  16.404  0.9016 -0.2499 -0.8241
 5388TIP3    H237656  -0.057   0.196  16.336  0.4161 -0.2631  0.0601
 5389TIP3   OH237657   1.532   6.455  16.302  0.5635 -0.1682 -0.6699
 5389TIP3    H137658   1.500   6.377  16.348  1.8977 -0.9349 -1.0174
 5389TIP3    H237659   1.458   6.483  16.248  0.2156 -1.4472 -0.8638
 5390TIP3   OH237660   6.366   3.720   5.375 -0.0080 -0.1335 -0.0313
 5390TIP3    H137661   6.387   3.805   5.415  0.5010 -0.4921  0.4663
 5390TIP3    H237662   6.324   3.670   5.445  0.4433 -0.5916 -0.0877
 5391TIP3   OH237663   5.696   4.582  14.170  0.5294  0.0645  1.0595
 5391TIP3    H137664   5.745   4.651  14.124 -1.0952  0.2566 -0.4389
 5391TIP3    H237665   5.743   4.570  14.252  0.8897  2.8939  1.3056
 5392TIP3   OH237666   3.176   5.662   3.347 -0.0361 -0.0029 -0.5765
 5392TIP3    H137667   3.164   5.653   3.252  3.8120 -1.1251 -1.0132
 5392TIP3    H237668   3.185   5.757   3.361  1.6898  0.0079 -1.6584
 5393TIP3   OH237669   0.725   3.725  16.344  0.5193 -0.4872 -0.0962
 5393TIP3    H137670   0.728   3.630  16.336  1.9066 -0.5006  0.4706
 5393TIP3    H237671   0.741   3.757  16.255  0.3945 -0.7653 -0.2191
 5394TIP3   OH237672   5.625   5.576   1.284 -0.4741 -0.7168 -0.5292
 5394TIP3    H137673   5.596   5.519   1.355 -1.2879 -0.5792 -0.7465
 5394TIP3    H237674   5.687   5.523   1.233 -1.8905 -1.6943 -1.2360
 5395TIP3   OH237675   0.280   5.138   0.572 -0.2190 -0.5516  0.1902
 5395TIP3    H137676   0.325   5.194   0.509 -0.6271  1.0957  1.3230
 5395TIP3    H237677   0.238   5.071   0.519  1.7447 -0.8499 -1.0577
 5396TIP3   OH237678   6.432   6.183  16.825  0.0184 -0.2762 -0.2013
 5396TIP3    H137679   6.482   6.265  16.815 -0.3529 -0.0594 -0.2700
 5396TIP3    H237680   6.449   6.156  16.915  0.0188 -0.0450 -0.1308
 5397TIP3   OH237681   5.825   0.970  14.381 -0.0840 -0.2355  0.1220
 5397TIP3    H137682   5.802   1.005  14.467  1.1920 -1.3551  0.9563
 5397TIP3    H237683   5.921   0.975  14.378 -0.1261  0.0948 -1.3781
 5398TIP3   OH237684   3.412   1.527   5.416  0.0917 -0.1835  0.1308
 5398TIP3    H137685   3.354   1.600   5.435 -1.6042 -1.2072 -0.8952
 5398TIP3    H237686   3.419   1.479   5.499 -0.5632 -0.0617  0.2575
 5399TIP3   OH237687   3.051   4.238   3.071 -0.7115 -0.1900 -0.3049
 5399TIP3    H137688   3.137   4.212   3.037 -0.7215 -1.1889  0.4073
 5399TIP3    H237689   2.988   4.199   3.011 -0.6748  0.2656 -0.6395
 5400TIP3   OH237690   2.722   6.145   2.517  0.6732 -0.2966  0.6444
 5400TIP3    H137691   2.782   6.160   2.589  1.7233 -0.9868 -0.0781
 5400TIP3    H237692   2.716   6.230   2.472 -1.2484  0.5751  2.4666
 5401TIP3   OH237693   4.239   5.589   6.508  0.1358 -0.5761  0.1952
 5401TIP3    H137694   4.176   5.552   6.445  0.4158  0.5474 -0.7718
 5401TIP3    H237695   4.187   5.603   6.587 -0.7118 -0.2090 -0.4078
 5402TIP3   OH237696   4.975   1.863  14.619  0.8342 -0.4962 -0.5085
 5402TIP3    H137697   5.031   1.876  14.695  0.3540 -0.5966 -0.1377
 5402TIP3    H237698   4.904   1.926  14.630  0.1778 -1.2614 -0.3050
 5403TIP3   OH237699   3.787   0.395   4.041 -0.7278 -0.1797 -0.5357
 5403TIP3    H137700   3.709   0.426   4.087  1.8422  2.0817  2.5618
 5403TIP3    H237701   3.798   0.454   3.967 -0.1827  1.6120  0.9253
 5404TIP3   OH237702   3.368   6.560  16.214 -0.0042 -0.2789  0.1013
 5404TIP3    H137703   3.292   6.618  16.221 -0.0572 -0.2478 -0.7075
 5404TIP3    H237704   3.393   6.542  16.305 -0.2644  0.6485  0.3554
 5405TIP3   OH237705   1.366   3.721  11.023  0.0071 -0.4128 -0.2844
 5405TIP3    H137706   1.446   3.674  11.046 -0.2489 -0.4104  0.5999
 5405TIP3    H237707   1.363   3.717  10.927  0.4992 -1.3455 -0.2639
 5406TIP3   OH237708   0.145   0.831  13.374 -0.0637 -0.5251  0.2314
 5406TIP3    H137709   0.139   0.902  13.437  1.1112 -0.2269  0.0142
 5406TIP3    H237710   0.153   0.752  13.428  2.2840 -0.1519  0.4731
 5407TIP3   OH237711   6.151   4.220   1.305  0.3570  0.6107  0.1356
 5407TIP3    H137712   6.149   4.213   1.400 -1.6866  1.7310  0.2117
 5407TIP3    H237713   6.120   4.309   1.287  0.5430  0.3493 -1.5776
 5408TIP3   OH237714   6.328   4.837   0.060 -0.1107 -0.3274  0.5822
 5408TIP3    H137715   6.259   4.774   0.081 -0.7426  0.2388  0.2113
 5408TIP3    H237716   6.281   4.914   0.028  0.5674  0.9228  2.4709
 5409TIP3   OH237717   3.591   2.219  13.871  0.2894  0.4472 -0.1620
 5409TIP3    H137718   3.659   2.163  13.833  2.1119  1.6488  1.2358
 5409TIP3    H237719   3.563   2.171  13.950  0.3183  0.4870 -0.1277
 5410TIP3   OH237720   4.480   2.560  14.705 -0.4874  0.2543  0.0340
 5410TIP3    H137721   4.428   2.626  14.660  1.0223  0.4822 -1.4492
 5410TIP3    H237722   4.447   2.477  14.671 -1.5530  0.2868  0.9737
 5411TIP3   OH237723   2.847   4.960  16.624 -0.4933 -0.8777 -0.4525
 5411TIP3    H137724   2.884   4.899  16.560 -0.9868 -0.2830 -1.3160
 5411TIP3    H237725   2.837   4.908  16.704 -1.2703 -2.0330 -1.2893
 5412TIP3   OH237726   0.188   0.655   1.008  0.3473 -0.0456  0.0286
 5412TIP3    H137727   0.243   0.579   0.984 -1.3095 -0.5545 -2.3449
 5412TIP3    H237728   0.101   0.633   0.974 -0.0752  3.0926 -1.0692
 5413TIP3   OH237729   0.914   4.423   3.145 -0.1833  0.0482  0.0973
 5413TIP3    H137730   0.938   4.498   3.089  1.0095 -0.6784 -0.3904
 5413TIP3    H237731   0.997   4.395   3.183 -0.3899 -1.9089 -0.8189
 5414TIP3   OH237732   5.103   2.712   5.276  0.2112  0.2797  0.0842
 5414TIP3    H137733   5.106   2.620   5.301 -0.5805  0.2169 -0.0408
 5414TIP3    H237734   5.193   2.734   5.251  0.7494  0.0071  1.7683
 5415TIP3   OH237735   0.431   5.334  13.067 -0.4824 -0.6343  0.4039
 5415TIP3    H137736   0.339   5.360  13.069 -0.1472  0.5580  0.8010
 5415TIP3    H237737   0.464   5.357  13.154  0.6683  0.7972 -0.3717
 5416TIP3   OH237738   0.552   1.562  14.329  0.0346  0.4860  0.4379
 5416TIP3    H137739   0.489   1.634  14.330  1.8493  2.0856  1.2795
 5416TIP3    H237740   0.623   1.592  14.273  0.4550 -0.9913  0.1470
 5417TIP3   OH237741   4.725   2.378  11.696  0.4948 -0.8592 -0.5066
 5417TIP3    H137742   4.697   2.335  11.777 -0.0188 -1.1207 -0.8228
 5417TIP3    H237743   4.751   2.466  11.724 -0.6865 -0.5894 -0.2160
 5418TIP3   OH237744   1.403   1.328   5.348 -0.0128 -0.1834 -0.0117
 5418TIP3    H137745   1.409   1.423   5.342 -0.0092  0.0127  2.3800
 5418TIP3    H237746   1.491   1.300   5.374 -0.1512 -0.7922 -0.1769
 5419TIP3   OH237747   3.138   5.601   1.963  0.5305 -0.4860 -0.0299
 5419TIP3    H137748   3.175   5.549   1.891  0.3516  0.0018 -0.4768
 5419TIP3    H237749   3.145   5.692   1.934  0.0296 -0.3136  0.3669
 5420TIP3   OH237750   3.658   5.436  11.308  0.2635 -0.1059 -0.3480
 5420TIP3    H137751   3.661   5.517  11.359  0.0182 -1.9084  2.6889
 5420TIP3    H237752   3.569   5.435  11.271 -0.7467 -0.3068  1.9571
 5421TIP3   OH237753   4.866   5.793  15.899 -0.1242 -0.5466  0.1193
 5421TIP3    H137754   4.904   5.875  15.930  2.8234 -1.8536  0.1609
 5421TIP3    H237755   4.806   5.766  15.969 -0.5555  1.1744  0.4303
 5422TIP3   OH237756   5.885   4.751  15.176 -0.1824 -0.2083  0.6113
 5422TIP3    H137757   5.961   4.809  15.179  0.7383 -1.3181 -0.6642
 5422TIP3    H237758   5.915   4.670  15.218 -0.4006 -0.9294 -0.5966
 5423TIP3   OH237759   0.773   0.327   5.906 -0.0014 -0.5236 -0.0259
 5423TIP3    H137760   0.775   0.266   5.833  2.4062  0.5087 -0.8930
 5423TIP3    H237761   0.838   0.292   5.968  0.7503  0.6821 -0.1313
 5424TIP3   OH237762   6.669   5.090  10.898  0.0215 -0.4055 -0.6663
 5424TIP3    H137763   6.661   5.011  10.952 -0.0715 -0.0087 -0.0892
 5424TIP3    H237764   6.746   5.074  10.844  0.5841 -0.4809  0.1441
 5425TIP3   OH237765   1.870   6.102  11.066  0.2363  0.1941 -0.3736
 5425TIP3    H137766   1.811   6.101  11.141 -0.8121  1.6550 -1.1608
 5425TIP3    H237767   1.957   6.085  11.103 -0.1525  1.6682  1.2756
 5426TIP3   OH237768   0.965   1.763  13.840  0.3552 -0.1285 -0.0588
 5426TIP3    H137769   0.877   1.782  13.872  0.9240 -0.6083  1.8818
 5426TIP3    H237770   1.021   1.769  13.918  1.6744 -2.1279 -0.7904
 5427TIP3   OH237771   5.038   3.916  11.617  0.1125  0.0737 -0.8066
 5427TIP3    H137772   4.975   3.854  11.655  0.9323  0.0589  0.5519
 5427TIP3    H237773   4.991   4.000  11.616 -0.0874 -0.0296 -0.2160
 5428TIP3   OH237774   5.209   1.849   5.797  0.4102 -0.4075 -0.0217
 5428TIP3    H137775   5.293   1.815   5.827 -1.0650 -2.9105  1.4741
 5428TIP3    H237776   5.196   1.929   5.847  1.3053 -0.7277  0.7369
 5429TIP3   OH237777   3.216   4.951   2.541 -0.4775 -0.3335 -0.2381
 5429TIP3    H137778   3.217   4.941   2.446 -0.6771 -1.2389 -0.1520
 5429TIP3    H237779   3.301   4.918   2.570  0.0933  1.1307 -0.2047
 5430TIP3   OH237780   4.936   0.256  12.010 -0.0512  0.1585 -0.3100
 5430TIP3    H137781   4.857   0.291  11.969  1.0172  2.2126 -0.6898
 5430TIP3    H237782   4.958   0.320  12.077  2.0865  0.3469 -1.1554
 5431TIP3   OH237783   6.542   2.327   3.739  0.3386 -0.0652  0.4355
 5431TIP3    H137784   6.609   2.260   3.747  0.3447 -0.0336  0.6555
 5431TIP3    H237785   6.574   2.400   3.792 -0.0967 -0.2321  0.9247
 5432TIP3   OH237786   5.536   4.693  11.261  0.1149  0.3423 -0.2590
 5432TIP3    H137787   5.607   4.747  11.297 -1.7440  1.1307  2.3651
 5432TIP3    H237788   5.510   4.739  11.181  1.0355  1.2966 -0.0295
 5433TIP3   OH237789   1.462   2.607  11.438 -0.5827  0.3831 -0.1904
 5433TIP3    H137790   1.408   2.608  11.359 -2.1005  0.3585  0.8219
 5433TIP3    H237791   1.551   2.591  11.406 -0.9534  1.7830 -2.0070
 5434TIP3   OH237792   1.161   3.647   3.579  0.0922 -0.6051  0.4984
 5434TIP3    H137793   1.250   3.630   3.610 -0.1928 -0.5921  1.3590
 5434TIP3    H237794   1.107   3.581   3.623 -0.5086  0.2507  1.0622
 5435TIP3   OH237795   3.609   0.682  14.280 -0.3384  0.0314 -0.3763
 5435TIP3    H137796   3.672   0.738  14.324  0.6487 -0.3768 -1.2413
 5435TIP3    H237797   3.579   0.621  14.347  0.4024  0.0498 -0.0286
 5436TIP3   OH237798   4.911   0.084   1.123  0.1825 -0.0946  0.3351
 5436TIP3    H137799   4.944  -0.006   1.130  0.6052 -0.0224 -0.6011
 5436TIP3    H237800   4.963   0.123   1.053  0.2407  0.9983  0.9794
 5437TIP3   OH237801   1.592   3.845   5.649  0.3622  0.1401 -0.0295
 5437TIP3    H137802   1.676   3.809   5.622  0.0913  1.0757 -2.1908
 5437TIP3    H237803   1.561   3.786   5.718  1.5199 -1.7533 -1.1003
 5438TIP3   OH237804   4.153   3.801  11.964  0.0730 -0.2944 -0.1196
 5438TIP3    H137805   4.184   3.764  11.881 -0.6759  0.1268 -0.6053
 5438TIP3    H237806   4.184   3.892  11.962 -1.6308  0.3018 -0.8825
 5439TIP3   OH237807   4.565   1.046  15.839  0.2155 -0.3293  0.2764
 5439TIP3    H137808   4.584   0.994  15.760  0.4415  0.7524 -0.3840
 5439TIP3    H237809   4.649   1.080  15.867 -0.2132  1.4487 -0.5354
 5440TIP3   OH237810   3.581   6.507  12.376 -0.5116 -0.0489  0.7738
 5440TIP3    H137811   3.588   6.414  12.355 -1.1188  0.0511  0.1284
 5440TIP3    H237812   3.497   6.535  12.339 -0.6891  0.5815  1.6292
 5441TIP3   OH237813   2.924   4.785  12.467  0.0096 -0.4849 -0.1797
 5441TIP3    H137814   2.880   4.722  12.524 -0.5898  0.5775  0.5566
 5441TIP3    H237815   2.912   4.869  12.511  0.9689  0.1169 -1.0497
 5442TIP3   OH237816   1.180   4.770  14.475  0.0344  0.3166  0.1252
 5442TIP3    H137817   1.268   4.807  14.481  0.0222  0.3712 -0.0386
 5442TIP3    H237818   1.122   4.846  14.475  0.1113  0.4005 -2.5033
 5443TIP3   OH237819   6.624   5.808   2.411 -0.6062  0.0201 -0.4516
 5443TIP3    H137820   6.617   5.719   2.445  1.0971  1.0785  2.8582
 5443TIP3    H237821   6.553   5.856   2.454  0.3787  0.9401  0.1777
 5444TIP3   OH237822   4.457   6.097  10.532  0.2363 -0.1705  0.1796
 5444TIP3    H137823   4.370   6.067  10.507  0.0796 -0.5990  1.2012
 5444TIP3    H237824   4.465   6.073  10.624  2.7961 -3.3226 -0.7919
 5445TIP3   OH237825   1.826   5.229   1.276  0.4612  0.1949  0.2270
 5445TIP3    H137826   1.805   5.320   1.257 -1.6828 -0.3988 -0.3916
 5445TIP3    H237827   1.866   5.196   1.195 -0.8259 -0.0078 -0.3382
 5446TIP3   OH237828   0.247   0.788  12.650  0.2973  0.5751 -0.4329
 5446TIP3    H137829   0.294   0.718  12.606 -0.4086 -0.5919  0.6375
 5446TIP3    H237830   0.162   0.750  12.671  0.2776  1.4189  1.0497
 5447TIP3   OH237831   0.235   4.029  17.038  0.2382  0.5293  0.0244
 5447TIP3    H137832   0.202   3.939  17.044  1.1351  0.2240  0.3671
 5447TIP3    H237833   0.169   4.074  16.985 -0.3202 -0.2764  0.0122
 5448TIP3   OH237834   4.287   3.000  14.585  0.6212  0.4581 -0.7376
 5448TIP3    H137835   4.273   2.938  14.656 -1.4235  0.2335 -1.3222
 5448TIP3    H237836   4.370   2.973  14.546  0.9028 -0.4681  0.4787
 5449TIP3   OH237837   0.714   3.068   3.765  0.2397  0.3653 -0.4318
 5449TIP3    H137838   0.727   3.013   3.842  0.9969 -1.5703 -1.8985
 5449TIP3    H237839   0.627   3.107   3.777 -1.1170 -2.6095 -0.2226
 5450TIP3   OH237840   3.558   6.798   3.341  0.2454 -0.1849  0.6150
 5450TIP3    H137841   3.485   6.797   3.403 -0.6208  0.0813 -0.3841
 5450TIP3    H237842   3.516   6.793   3.255  1.3909  0.3602  0.0183
 5451TIP3   OH237843   3.380   2.540  16.186  0.3396 -0.1741 -0.0102
 5451TIP3    H137844   3.410   2.595  16.114  0.6218  1.3960  1.2958
 5451TIP3    H237845   3.300   2.583  16.218  0.6205 -0.4626  1.0843
 5452TIP3   OH237846   3.052   2.625   3.902  0.1510  0.4174  0.0079
 5452TIP3    H137847   2.977   2.591   3.853  0.7108 -1.1246  0.2067
 5452TIP3    H237848   3.095   2.685   3.842 -0.6722  0.5569 -0.4525
 5453TIP3   OH237849   5.567   0.802  11.506  0.0953 -0.0294  1.0869
 5453TIP3    H137850   5.625   0.751  11.450 -0.9075 -0.0904  0.0870
 5453TIP3    H237851   5.617   0.882  11.526  0.6108 -0.1823  0.4303
 5454TIP3   OH237852   5.319   2.813   2.191 -0.1220  0.2180  0.1476
 5454TIP3    H137853   5.256   2.752   2.152 -0.4831  0.3232  0.5658
 5454TIP3    H237854   5.384   2.757   2.234 -0.3536  0.1239  0.3758
 5455TIP3   OH237855   5.110   5.135   2.033  0.2856  0.3318 -0.2341
 5455TIP3    H137856   5.090   5.094   2.117 -0.8807  0.6974 -0.3274
 5455TIP3    H237857   5.174   5.203   2.054 -0.1278  0.5328  0.3762
 5456TIP3   OH237858   1.981   4.162  12.938 -0.2978 -0.0005 -0.2684
 5456TIP3    H137859   1.925   4.099  12.892 -4.0912  0.3533  3.4917
 5456TIP3    H237860   2.005   4.117  13.020  1.8193  1.3045 -0.1459
 5457TIP3   OH237861   0.800   0.594  15.838 -0.4695  0.1090 -0.1001
 5457TIP3    H137862   0.740   0.649  15.889  0.0169  0.8400 -0.2927
 5457TIP3    H237863   0.876   0.651  15.823  0.2238 -0.7735  0.0631
 5458TIP3   OH237864   4.336   0.524   5.150  0.4914 -0.6517  0.9946
 5458TIP3    H137865   4.331   0.430   5.135 -0.6349 -0.2660 -1.3033
 5458TIP3    H237866   4.377   0.559   5.072  1.0552  0.7600  1.9047
 5459TIP3   OH237867   2.343   5.040   0.583  0.1051 -0.3487 -0.3061
 5459TIP3    H137868   2.408   5.108   0.596 -1.0746  0.4278  1.6181
 5459TIP3    H237869   2.380   4.962   0.625 -0.1875  0.0899  0.7739
 5460TIP3   OH237870   5.851   4.589   1.653 -0.1583  0.6340 -0.1024
 5460TIP3    H137871   5.922   4.620   1.597 -1.4164  0.0634 -2.0729
 5460TIP3    H237872   5.775   4.641   1.627 -1.4284 -1.5752 -0.9170
 5461TIP3   OH237873   0.529   5.397  15.838  1.0783 -0.3860 -0.0396
 5461TIP3    H137874   0.508   5.434  15.923  0.8729  1.6273 -0.9328
 5461TIP3    H237875   0.468   5.323  15.828 -0.1105  0.4573  0.8109
 5462TIP3   OH237876   0.152   3.768  14.016  0.0109 -0.0567 -0.7563
 5462TIP3    H137877   0.107   3.836  14.067  1.0689  0.6090 -0.6871
 5462TIP3    H237878   0.082   3.718  13.975 -0.7710  1.6310 -1.5131
 5463TIP3   OH237879   2.196   6.039  12.290  0.0097  0.1490 -0.2843
 5463TIP3    H137880   2.218   5.964  12.346  0.3546  0.8373  0.5152
 5463TIP3    H237881   2.128   6.005  12.231 -0.7287 -0.4619  0.8805
 5464TIP3   OH237882   5.767   2.235  16.600  0.8393  0.5225 -0.0691
 5464TIP3    H137883   5.803   2.146  16.607 -1.2785 -0.2299  1.6328
 5464TIP3    H237884   5.768   2.269  16.689  1.5931  2.2152 -0.7093
 5465TIP3   OH237885   5.103   6.363  14.623  0.2971 -0.2646  0.0618
 5465TIP3    H137886   5.171   6.313  14.579 -0.3236 -1.8346  0.8358
 5465TIP3    H237887   5.052   6.402  14.553 -0.6707 -2.7217 -0.6499
 5466TIP3   OH237888   4.125   4.703  14.847  0.3830 -0.0819  0.4411
 5466TIP3    H137889   4.172   4.634  14.799 -1.0869 -1.5952  1.1071
 5466TIP3    H237890   4.033   4.677  14.841 -0.3399  2.5273 -0.3574
 5467TIP3   OH237891   2.222   5.816  16.173  0.0548  0.0808 -0.1948
 5467TIP3    H137892   2.158   5.885  16.191  1.0154  0.9194  0.0248
 5467TIP3    H237893   2.223   5.762  16.252 -0.4913 -0.0278 -0.2616
 5468TIP3   OH237894   1.581   0.542  16.567 -0.6327 -0.3921  0.3790
 5468TIP3    H137895   1.576   0.593  16.648 -0.7246  1.2869 -0.6636
 5468TIP3    H237896   1.517   0.583  16.509  1.0562 -0.1072 -1.3308
 5469TIP3   OH237897   1.703   3.234  15.709  0.5785  0.3626  0.4129
 5469TIP3    H137898   1.629   3.251  15.650  0.8504 -1.3660 -0.4600
 5469TIP3    H237899   1.730   3.321  15.739 -1.4030  1.0609  0.2575
 5470TIP3   OH237900   0.315   3.939   3.991 -0.3478 -0.0162 -0.4059
 5470TIP3    H137901   0.389   3.995   3.967  0.4373 -0.0574  1.8146
 5470TIP3    H237902   0.356   3.859   4.026 -1.4145  0.0026  0.9346
 5471TIP3   OH237903   3.738   5.814   2.797  0.2987  0.3802  0.6241
 5471TIP3    H137904   3.656   5.813   2.748  0.5187  1.3979  0.2234
 5471TIP3    H237905   3.803   5.843   2.733  0.9644 -0.3881  0.9454
 5472TIP3   OH237906   2.924   2.522   0.948 -0.0916 -0.3535  0.4590
 5472TIP3    H137907   2.972   2.440   0.935 -0.5390 -0.3114 -1.5096
 5472TIP3    H237908   2.988   2.581   0.988  2.5724  0.7140 -5.0156
 5473TIP3   OH237909   5.002   1.725  15.297 -0.0132  0.2789  0.4510
 5473TIP3    H137910   4.915   1.693  15.271 -0.8419  1.5974  1.5094
 5473TIP3    H237911   5.058   1.705  15.222 -1.4178  0.1696 -0.6032
 5474TIP3   OH237912   0.499   1.289   3.463 -0.2066 -0.1515  0.5414
 5474TIP3    H137913   0.577   1.235   3.451 -0.2786 -0.5234  1.6726
 5474TIP3    H237914   0.429   1.240   3.418 -0.2692 -1.0141  1.5486
 5475TIP3   OH237915   1.619   0.080   0.163 -0.1978 -0.4956  0.6185
 5475TIP3    H137916   1.685   0.040   0.107 -0.2663  1.9248 -1.2952
 5475TIP3    H237917   1.542   0.023   0.155  0.3239 -1.0533 -0.4660
 5476TIP3   OH237918   0.026   0.180  17.222  0.5255 -0.5604 -0.4482
 5476TIP3    H137919   0.033   0.252  17.159 -2.2088  2.1587  2.1994
 5476TIP3    H237920  -0.024   0.113  17.176 -0.2498  0.8349 -1.6902
 5477TIP3   OH237921   3.394   0.087  16.196 -0.0866 -0.4498  0.1815
 5477TIP3    H137922   3.308   0.045  16.195 -0.8856  1.1271 -1.4441
 5477TIP3    H237923   3.446   0.038  16.133 -0.2497 -0.5192  0.1004
 5478TIP3   OH237924   0.473   4.223  12.362 -0.9922  0.6986 -0.7498
 5478TIP3    H137925   0.460   4.318  12.373  0.5434  0.7420  0.7538
 5478TIP3    H237926   0.408   4.183  12.419  0.9517  0.8947  1.6918
 5479TIP3   OH237927   0.487   0.846   0.338 -0.2378 -0.2645 -0.4959
 5479TIP3    H137928   0.490   0.864   0.432 -1.0723  1.2929 -0.7524
 5479TIP3    H237929   0.449   0.759   0.332  0.0192 -0.4631  0.6202
 5480TIP3   OH237930   6.258   4.282   0.757 -0.0180  0.1713  0.2703
 5480TIP3    H137931   6.333   4.244   0.803 -0.0453  0.3556  0.4673
 5480TIP3    H237932   6.281   4.276   0.664 -0.3773 -1.1071  0.2474
 5481TIP3   OH237933   1.127   4.074   3.157  0.3191 -0.0549 -0.6721
 5481TIP3    H137934   1.196   4.020   3.118  1.0903  1.3348 -1.2826
 5481TIP3    H237935   1.054   4.068   3.095 -1.5164 -4.4175  1.7026
 5482TIP3   OH237936   0.540   1.356   5.601 -0.0190 -0.0921  0.3897
 5482TIP3    H137937   0.560   1.265   5.621  1.2903  0.5650  2.2014
 5482TIP3    H237938   0.508   1.392   5.683  0.0997  1.2449 -0.1401
 5483TIP3   OH237939   3.796   4.059   1.249 -0.5539  0.1414  0.1671
 5483TIP3    H137940   3.815   3.968   1.228 -0.3354  0.1788  0.2020
 5483TIP3    H237941   3.751   4.055   1.334 -1.4097 -0.0068 -0.2874
 5484TIP3   OH237942   6.764   2.833   5.547 -1.0239 -0.3459  0.1210
 5484TIP3    H137943   6.823   2.880   5.606  0.1358  0.5753 -1.7054
 5484TIP3    H237944   6.688   2.891   5.538 -1.8481 -1.1260  1.7670
 5485TIP3   OH237945   2.725   2.709  10.762  0.5703  0.3673 -0.3621
 5485TIP3    H137946   2.745   2.769  10.834  0.2204 -1.1909  1.0740
 5485TIP3    H237947   2.630   2.698  10.766  0.6487 -0.3906 -0.5234
 5486TIP3   OH237948   0.910   4.219   1.867  0.2360  0.0059 -0.1721
 5486TIP3    H137949   0.956   4.224   1.950  1.8774 -0.3976 -1.0307
 5486TIP3    H237950   0.972   4.254   1.803 -0.6699 -0.5055 -1.3559
 5487TIP3   OH237951   0.244   1.209   1.064 -0.3361 -0.4059 -0.7248
 5487TIP3    H137952   0.260   1.285   1.120  0.6399 -1.8093  0.9451
 5487TIP3    H237953   0.330   1.186   1.028 -0.8055 -0.0699 -2.0734
 5488TIP3   OH237954   6.262   1.751   4.776 -0.0370  0.0969 -0.4297
 5488TIP3    H137955   6.203   1.699   4.722 -0.9245  2.2016 -1.5456
 5488TIP3    H237956   6.327   1.688   4.808 -2.0076 -1.9966 -0.3785
 5489TIP3   OH237957   1.617   0.928  12.610 -0.1694 -0.3990 -0.3426
 5489TIP3    H137958   1.709   0.947  12.628  0.3492 -1.3333 -1.9111
 5489TIP3    H237959   1.618   0.888  12.523 -2.1411  0.3447 -0.7282
 5490TIP3   OH237960   1.490   3.299  15.513  0.5690 -0.1121  0.3743
 5490TIP3    H137961   1.547   3.229  15.483 -0.3817 -1.2499  1.1816
 5490TIP3    H237962   1.460   3.342  15.433  1.9229  0.0124 -0.0856
 5491TIP3   OH237963   3.943   5.533  16.897  0.6768  0.3567  0.3578
 5491TIP3    H137964   3.964   5.440  16.898  0.8297  0.3924  1.2028
 5491TIP3    H237965   3.917   5.552  16.807 -0.8714 -0.8352  0.5393
 5492TIP3   OH237966   5.105   1.240   1.923 -0.9123 -0.2127  0.4764
 5492TIP3    H137967   5.068   1.240   2.011  1.5448 -1.3436  1.5651
 5492TIP3    H237968   5.063   1.166   1.880 -0.1995 -1.3054  1.6007
 5493TIP3   OH237969   3.092   6.631  12.169  0.4970  0.4152  0.0908
 5493TIP3    H137970   3.116   6.723  12.162 -1.1027  0.8960  0.7230
 5493TIP3    H237971   3.038   6.627  12.248  0.6729 -1.0992  0.1472
 5494TIP3   OH237972   1.992   3.259  15.166 -0.6688  0.3382 -0.0863
 5494TIP3    H137973   2.063   3.202  15.137  0.3909  0.5890  1.9128
 5494TIP3    H237974   2.018   3.347  15.139  0.2291  0.5481  1.4326
 5495TIP3   OH237975   0.961   6.312  14.604  0.2663 -0.8155  0.4119
 5495TIP3    H137976   0.939   6.227  14.568 -1.0942 -0.0633 -0.5515
 5495TIP3    H237977   1.057   6.317  14.597  0.1772 -1.3956 -1.4909
 5496TIP3   OH237978   3.757   5.681   5.354 -0.3740  0.5309 -0.0170
 5496TIP3    H137979   3.690   5.718   5.297  0.8403  0.3436 -1.6153
 5496TIP3    H237980   3.733   5.589   5.362 -1.3290  0.8670  0.9082
 5497TIP3   OH237981   5.668   3.584  16.089 -0.6629 -0.1848 -0.3406
 5497TIP3    H137982   5.754   3.542  16.084  0.4376  1.7034  1.9262
 5497TIP3    H237983   5.615   3.522  16.141  0.4192  0.3217  1.4130
 5498TIP3   OH237984   6.301   5.405  14.697  0.0417  0.6610  0.1181
 5498TIP3    H137985   6.290   5.325  14.646  0.7310  0.5662  0.1178
 5498TIP3    H237986   6.265   5.474  14.641 -1.2251  0.2507  0.4216
 5499TIP3   OH237987   5.189   1.806  11.982  0.3903  0.2068 -1.0118
 5499TIP3    H137988   5.201   1.830  12.074 -0.7555  1.2348 -1.1212
 5499TIP3    H237989   5.177   1.890  11.937 -0.9041 -0.4039 -1.8188
 5500TIP3   OH237990   1.276   1.422  15.415 -0.1676 -0.7846 -0.4922
 5500TIP3    H137991   1.359   1.430  15.368 -0.3636 -0.3881 -0.7827
 5500TIP3    H237992   1.277   1.334  15.453  0.7968 -0.4403  0.2995
 5501TIP3   OH237993   3.924   3.388  15.482  0.2786 -0.7221  0.2354
 5501TIP3    H137994   3.866   3.465  15.481  1.2266  0.0030 -0.6515
 5501TIP3    H237995   3.999   3.415  15.536  0.3078 -1.2578  0.4637
 5502TIP3   OH237996   3.085   1.368   2.823  0.4381 -0.1305 -0.1128
 5502TIP3    H137997   3.114   1.459   2.822  0.8396 -0.2568 -0.0270
 5502TIP3    H237998   2.994   1.372   2.852  0.6382  0.1944  0.4879
 5503TIP3   OH237999   1.065   2.780   0.939  0.0533 -0.6658 -0.5402
 5503TIP3    H138000   1.022   2.793   0.855  2.9332  1.0901 -1.8440
 5503TIP3    H238001   1.130   2.712   0.923  1.0054  0.0745  0.0744
 5504TIP3   OH238002   4.737   4.044   6.053 -0.0803  0.3037  0.0513
 5504TIP3    H138003   4.780   4.127   6.071  0.6897 -0.0576 -0.0766
 5504TIP3    H238004   4.755   3.990   6.130 -0.4341  0.1983  0.0626
 5505TIP3   OH238005   2.055   6.739   2.435  0.1054  0.5821  0.1558
 5505TIP3    H138006   2.011   6.663   2.475 -0.4690  0.8430  0.0226
 5505TIP3    H238007   2.143   6.707   2.413 -0.2156 -0.1273 -0.1289
 5506TIP3   OH238008   3.873   1.597  14.976 -0.0625  0.1698  0.5466
 5506TIP3    H138009   3.964   1.621  14.955 -0.2167  1.2109  1.0307
 5506TIP3    H238010   3.864   1.615  15.069 -1.0706  1.0881  0.2809
 5507TIP3   OH238011   3.858   1.215  11.861  0.2441  0.2400 -0.4502
 5507TIP3    H138012   3.892   1.292  11.907 -0.6090  0.1634  0.3242
 5507TIP3    H238013   3.781   1.189  11.911 -0.1734 -0.3990 -1.4073
 5508TIP3   OH238014   2.932   3.638  12.569 -0.0669 -0.2845  0.3997
 5508TIP3    H138015   2.948   3.558  12.618  1.1896 -0.8055 -0.8389
 5508TIP3    H238016   2.897   3.608  12.484  0.5983  0.4564 -0.1439
 5509TIP3   OH238017   2.286   1.600  16.530  0.2708 -0.1586 -0.3279
 5509TIP3    H138018   2.268   1.526  16.588 -1.7293  0.6887  0.1710
 5509TIP3    H238019   2.353   1.567  16.470  0.0282 -2.1008  0.4101
 5510TIP3   OH238020   2.036   2.600  10.623 -0.0815  0.3455  0.1253
 5510TIP3    H138021   1.992   2.630  10.543  3.0114 -1.0724 -2.2214
 5510TIP3    H238022   2.123   2.638  10.618  1.1706 -2.2560  1.2686
 5511TIP3   OH238023   0.182   6.727   6.504 -0.2621  0.4758  0.3144
 5511TIP3    H138024   0.105   6.734   6.561 -0.1985 -0.2625  0.4936
 5511TIP3    H238025   0.198   6.817   6.475 -1.3311  0.6010  0.0888
 5512TIP3   OH238026   2.264   1.338  12.592  0.4402 -0.1259  0.0251
 5512TIP3    H138027   2.204   1.268  12.615 -0.8603  0.7754 -0.5331
 5512TIP3    H238028   2.208   1.416  12.586  2.0949  1.2934  2.2494
 5513TIP3   OH238029   6.596   3.623  15.661 -0.0705 -0.2179 -0.3838
 5513TIP3    H138030   6.530   3.555  15.646 -1.9826  1.8913 -1.6931
 5513TIP3    H238031   6.633   3.602  15.747 -1.7297 -2.0093 -0.0774
 5514TIP3   OH238032   5.868   1.271   1.356  0.4639  0.5860 -0.7350
 5514TIP3    H138033   5.815   1.283   1.278 -0.3095 -1.3105 -0.5242
 5514TIP3    H238034   5.854   1.351   1.407 -0.3847  1.0812 -1.7344
 5515TIP3   OH238035   0.121   6.175  12.626  0.2518  0.3221  0.4409
 5515TIP3    H138036   0.184   6.231  12.671 -0.8269  0.9591  1.1781
 5515TIP3    H238037   0.164   6.089  12.620  0.7522  0.4724  1.8939
 5516TIP3   OH238038   3.446   5.126   4.638 -0.2743  0.0767  0.2556
 5516TIP3    H138039   3.352   5.113   4.625 -0.2536  0.0347  0.1500
 5516TIP3    H238040   3.477   5.164   4.556 -0.4826  1.6033  0.8759
 5517TIP3   OH238041   5.934   5.212   4.134  0.2478 -0.8409  0.0996
 5517TIP3    H138042   5.931   5.145   4.202  0.4366  0.4983  1.4455
 5517TIP3    H238043   5.917   5.295   4.180  0.8606  0.1394 -1.3902
 5518TIP3   OH238044   4.038   6.550   0.422  0.1918 -0.0017  0.0766
 5518TIP3    H138045   4.052   6.479   0.485 -0.5923  0.2264  0.5136
 5518TIP3    H238046   4.030   6.507   0.338 -1.4788 -0.5312  0.4972
 5519TIP3   OH238047   0.759   3.618  12.360  0.1517 -0.1697 -0.2873
 5519TIP3    H138048   0.824   3.551  12.338  0.4912 -0.1618  0.6628
 5519TIP3    H238049   0.752   3.614  12.455  0.9299  1.8593 -0.1327
 5520TIP3   OH238050   3.806   3.401  14.864 -0.4813  0.1053  0.0036
 5520TIP3    H138051   3.735   3.464  14.851 -0.8072 -0.4464 -0.9303
 5520TIP3    H238052   3.780   3.352  14.942 -0.6048  0.6157  0.2850
 5521TIP3   OH238053   6.574   2.928  12.318  0.2193 -0.0760  0.6805
 5521TIP3    H138054   6.632   3.003  12.307  0.0816 -0.0468  0.0923
 5521TIP3    H238055   6.506   2.959  12.378  0.0596  0.3366  0.2987
 5522TIP3   OH238056   3.598   1.814  13.786  0.9722  0.0138 -0.1349
 5522TIP3    H138057   3.567   1.758  13.858  0.0543 -0.3229 -0.7791
 5522TIP3    H238058   3.545   1.893  13.793  2.2838  0.8329  0.7872
 5523TIP3   OH238059   3.799   4.961   4.704 -0.4534  0.3459  0.0293
 5523TIP3    H138060   3.859   5.019   4.657 -0.2292  0.0092 -0.0988
 5523TIP3    H238061   3.848   4.879   4.715 -0.7148  0.2318  0.3439
 5524TIP3   OH238062   0.057   2.813  12.550 -0.4142  0.1057 -0.3903
 5524TIP3    H138063  -0.033   2.792  12.574 -0.0149 -2.3086 -0.8088
 5524TIP3    H238064   0.098   2.842  12.631 -1.4412  0.7914 -0.1101
 5525TIP3   OH238065   3.748   5.118  11.147 -0.5182  0.6090  0.5626
 5525TIP3    H138066   3.764   5.023  11.150 -1.6189  0.4281  0.8731
 5525TIP3    H238067   3.835   5.157  11.154  0.0949 -0.4032 -1.1149
 5526TIP3   OH238068   1.312   0.095   4.052  0.0959 -0.2777 -0.4585
 5526TIP3    H138069   1.367   0.048   3.989 -0.8182 -3.5679  1.0693
 5526TIP3    H238070   1.362   0.093   4.133 -0.5106  0.2883 -0.0654
 5527TIP3   OH238071   6.620   5.361   2.738  0.2308 -0.0879  0.3357
 5527TIP3    H138072   6.593   5.366   2.829  0.6838 -0.6444  0.5064
 5527TIP3    H238073   6.661   5.445   2.719  0.9176 -0.2954  0.9007
 5528TIP3   OH238074   1.970   4.120  11.729 -0.2858  0.1055 -0.0900
 5528TIP3    H138075   1.921   4.106  11.647  0.3623  2.4833 -0.9376
 5528TIP3    H238076   2.033   4.048  11.732  1.5070  1.4421 -3.1253
 5529TIP3   OH238077   1.967   4.657  14.598  0.0819 -0.0803  0.3151
 5529TIP3    H138078   2.010   4.576  14.625 -0.7868 -0.3527  0.9114
 5529TIP3    H238079   2.028   4.726  14.624  0.1427 -0.4581  1.2138
 5530TIP3   OH238080   3.623   0.343   1.060  0.3491  0.3190  0.4509
 5530TIP3    H138081   3.597   0.424   1.104 -0.0005  0.4536  0.0035
 5530TIP3    H238082   3.551   0.282   1.076 -0.0898  0.5787 -0.4855
 5531TIP3   OH238083   3.429   0.266  14.552 -0.0519  0.0792  0.6644
 5531TIP3    H138084   3.346   0.282  14.596 -1.2987  0.9594 -1.9401
 5531TIP3    H238085   3.405   0.244  14.462  2.3875 -2.3884  0.5353
 5532TIP3   OH238086   6.728   1.876   1.387 -0.2513  0.3757 -1.4534
 5532TIP3    H138087   6.754   1.822   1.313  1.3152 -1.6691  0.5343
 5532TIP3    H238088   6.652   1.831   1.424  0.3167  0.2039 -0.5032
 5533TIP3   OH238089   2.334   4.600  13.701  0.3164 -0.1067 -0.3538
 5533TIP3    H138090   2.315   4.581  13.793 -1.7009 -2.7362 -1.2647
 5533TIP3    H238091   2.389   4.679  13.704 -0.5628  0.4613  3.0326
 5534TIP3   OH238092   3.554   6.737   6.144  0.0618 -0.7245 -0.2922
 5534TIP3    H138093   3.476   6.766   6.192 -1.1762 -1.1347 -2.0167
 5534TIP3    H238094   3.610   6.696   6.211 -0.1667  1.5832  1.3651
 5535TIP3   OH238095   0.120   2.612   1.884 -0.5619  0.1901  0.1270
 5535TIP3    H138096   0.040   2.663   1.898 -1.6664 -1.7823  1.1706
 5535TIP3    H238097   0.093   2.540   1.827  1.3436  1.6154 -2.7286
 5536TIP3   OH238098   6.520   0.183   5.380  0.3656  0.1932  0.0816
 5536TIP3    H138099   6.589   0.229   5.331  1.3743 -0.0804  1.2440
 5536TIP3    H238100   6.476   0.252   5.430  2.3697 -0.1606  2.4187
 5537TIP3   OH238101   4.129   1.055   4.942 -0.6068  0.1520  0.3046
 5537TIP3    H138102   4.169   1.048   4.855  1.9142 -1.7628  1.5577
 5537TIP3    H238103   4.146   0.971   4.983 -1.3573  1.2120  2.8576
 5538TIP3   OH238104   3.903   5.906   4.759  0.2178 -0.0191  0.1230
 5538TIP3    H138105   3.813   5.910   4.727  0.2356 -0.3299  0.0328
 5538TIP3    H238106   3.922   5.995   4.789 -1.1190 -0.6090  2.8645
 5539TIP3   OH238107   5.548   6.006  13.250 -0.5859  0.2676 -0.0938
 5539TIP3    H138108   5.494   6.064  13.197  0.5494  3.3251  1.8947
 5539TIP3    H238109   5.636   6.014  13.214 -0.8338 -2.2348 -1.3596
 5540TIP3   OH238110   1.535   5.836  11.749 -0.2025 -0.1584  0.1509
 5540TIP3    H138111   1.611   5.779  11.755  0.3984  0.6541  0.2938
 5540TIP3    H238112   1.547   5.885  11.668  0.4568  1.4156  1.1699
 5541TIP3   OH238113   0.643   4.744  13.276  0.8365  0.2893 -0.3960
 5541TIP3    H138114   0.553   4.770  13.293  0.8889  0.0890  0.1901
 5541TIP3    H238115   0.640   4.698  13.192  0.5032  0.8704 -0.7025
 5542TIP3   OH238116   3.381   4.524  16.315 -0.0563 -0.1057 -0.0869
 5542TIP3    H138117   3.316   4.498  16.380  0.5803  1.2437  1.1046
 5542TIP3    H238118   3.337   4.591  16.263 -0.5007 -1.0533 -0.9641
 5543TIP3   OH238119   3.477   4.345  13.654 -0.1724 -0.5906  0.0237
 5543TIP3    H138120   3.515   4.431  13.634  1.8094 -1.5958 -0.7035
 5543TIP3    H238121   3.548   4.296  13.694 -1.0824 -2.1256 -0.2042
 5544TIP3   OH238122   4.319   5.063  14.140 -0.1580 -0.1006 -0.1416
 5544TIP3    H138123   4.319   5.157  14.158  0.8006 -0.3860  1.4488
 5544TIP3    H238124   4.244   5.029  14.190 -0.0335 -0.3014 -0.0926
 5545TIP3   OH238125   6.595   5.256   3.235 -0.9542 -0.0554 -0.7029
 5545TIP3    H138126   6.504   5.227   3.241 -1.5406  2.1399  2.4888
 5545TIP3    H238127   6.616   5.286   3.324  2.2125  1.4145 -1.8843
 5546TIP3   OH238128   4.321   0.893   4.523 -0.1417 -0.2229  0.3368
 5546TIP3    H138129   4.351   0.943   4.448 -1.5923  1.1464  0.6254
 5546TIP3    H238130   4.345   0.947   4.599 -0.5478 -0.5815  0.7268
 5547TIP3   OH238131   4.086   3.964  15.446  0.2289 -0.2528  0.1639
 5547TIP3    H138132   4.065   4.021  15.372  0.3551 -0.7427 -0.2520
 5547TIP3    H238133   4.078   3.875  15.411 -2.1852 -0.5613  1.3810
 5548TIP3   OH238134   5.923   5.527  12.652  0.4361  0.2646  0.3560
 5548TIP3    H138135   5.830   5.548  12.655  0.6925  1.6556 -0.6894
 5548TIP3    H238136   5.930   5.454  12.592  0.1047  0.7623 -0.2979
 5549TIP3   OH238137   0.556   6.231   4.660  0.0233 -0.1746 -0.2189
 5549TIP3    H138138   0.549   6.143   4.623  0.2034  0.9187 -2.9168
 5549TIP3    H238139   0.649   6.253   4.652 -0.2455  0.7807 -0.8135
 5550TIP3   OH238140   5.838   2.844  13.269  0.0073  0.1114  0.0287
 5550TIP3    H138141   5.844   2.805  13.182  0.9914  0.2911  0.0104
 5550TIP3    H238142   5.835   2.939  13.253 -2.5668  0.0920  0.0625
 5551TIP3   OH238143   1.591   2.687  16.418 -0.0554  0.4785 -0.5044
 5551TIP3    H138144   1.586   2.711  16.325 -1.0962  0.1967 -0.5297
 5551TIP3    H238145   1.501   2.666  16.442  0.2017  0.5966  0.5900
 5552TIP3   OH238146   1.990   4.346  14.321 -0.1755 -0.3986  0.0002
 5552TIP3    H138147   1.948   4.390  14.247 -0.5280 -2.5141 -1.0995
 5552TIP3    H238148   1.927   4.280  14.348  2.3424 -3.6179 -1.6607
 5553TIP3   OH238149   0.211   1.188  14.223  0.2087  0.7429 -0.3246
 5553TIP3    H138150   0.201   1.097  14.197 -0.6816  0.8262 -0.2730
 5553TIP3    H238151   0.285   1.188  14.284  0.5296  0.1365 -0.7182
 5554TIP3   OH238152   2.306   6.144  16.480 -0.1628 -1.1964  0.2785
 5554TIP3    H138153   2.258   6.109  16.405 -0.2474 -1.2765  0.3716
 5554TIP3    H238154   2.276   6.093  16.555 -0.8216 -0.4495  0.5302
 5555TIP3   OH238155   3.268   5.028   1.106  0.0812  0.4865  0.6759
 5555TIP3    H138156   3.233   5.108   1.068 -1.7189 -0.1672  0.8914
 5555TIP3    H238157   3.277   5.048   1.200  1.8419  1.1771  0.3743
 5556TIP3   OH238158   6.032   1.283  16.849  0.0929 -0.7369 -0.7416
 5556TIP3    H138159   6.016   1.293  16.756 -1.2714  1.7001 -0.2777
 5556TIP3    H238160   6.024   1.371  16.885  2.6301 -1.2925  1.3990
 5557TIP3   OH238161   6.776   5.155  12.198  0.4709 -0.0269 -0.0458
 5557TIP3    H138162   6.871   5.154  12.187  0.1908 -0.9151 -2.6401
 5557TIP3    H238163   6.746   5.235  12.155  0.0192  0.2322  0.7255
 5558TIP3   OH238164   0.036   4.518  10.569 -0.0621  0.0324  0.3688
 5558TIP3    H138165  -0.022   4.563  10.507  0.9386  1.1013  0.1855
 5558TIP3    H238166  -0.010   4.524  10.653  0.0873  1.4905  0.3647
 5559TIP3   OH238167   3.034   0.842  14.691  0.4163 -0.3422 -0.7019
 5559TIP3    H138168   3.120   0.853  14.730  0.3883  2.8494 -1.3852
 5559TIP3    H238169   3.051   0.810  14.603  0.8555 -0.8624 -0.4227
 5560TIP3   OH238170   1.116   1.988  12.143 -0.1066 -0.6929  0.7768
 5560TIP3    H138171   1.046   1.924  12.132  0.8959 -1.9233  1.4149
 5560TIP3    H238172   1.192   1.947  12.100  0.3065  0.4767  0.3789
 5561TIP3   OH238173   3.492   6.723   3.076  1.1310  0.0875  0.2173
 5561TIP3    H138174   3.454   6.641   3.109  1.5564 -0.0074  0.4738
 5561TIP3    H238175   3.452   6.735   2.990 -1.7672  1.5539  1.7198
 5562TIP3   OH238176   6.777   6.185  16.444 -0.1256 -0.2628  0.3644
 5562TIP3    H138177   6.719   6.255  16.476 -0.7620 -0.1921 -0.9324
 5562TIP3    H238178   6.801   6.137  16.523 -0.5496  0.7709  1.1378
 5563TIP3   OH238179   0.983   2.496  10.954  1.0073 -0.2316  0.8633
 5563TIP3    H138180   0.975   2.535  10.867 -0.3356 -1.6740  0.3100
 5563TIP3    H238181   1.045   2.424  10.942 -0.0479 -1.1441  0.8367
 5564TIP3   OH238182   6.528   1.329   4.719 -0.0417 -0.6650 -0.1978
 5564TIP3    H138183   6.547   1.380   4.797 -0.4665  1.1824 -1.2759
 5564TIP3    H238184   6.555   1.385   4.646 -0.7298 -1.8869 -1.4172
 5565TIP3   OH238185   3.922   3.857  15.633  0.0153  0.0045 -0.2923
 5565TIP3    H138186   3.957   3.923  15.573 -0.2718  0.4480  0.0215
 5565TIP3    H238187   3.992   3.793  15.642  0.7401  0.8782  0.3315
 5566TIP3   OH238188   3.779   5.237  11.482 -0.0682 -0.3311  0.1303
 5566TIP3    H138189   3.699   5.206  11.524 -0.7467  1.9920  0.6139
 5566TIP3    H238190   3.749   5.282  11.403  0.9569 -1.6602 -1.0403
 5567TIP3   OH238191   1.304   4.749  10.514 -0.3724 -0.4849 -0.0922
 5567TIP3    H138192   1.244   4.798  10.570 -1.0601 -0.6479 -0.6799
 5567TIP3    H238193   1.273   4.766  10.425  1.5002  0.8515 -0.5268
 5568TIP3   OH238194   1.412   3.189  12.387 -0.0384  0.0107 -0.5999
 5568TIP3    H138195   1.436   3.249  12.317  0.8584 -0.2016 -0.4812
 5568TIP3    H238196   1.321   3.166  12.369 -0.1539  0.8184 -1.0635
 5569TIP3   OH238197   5.622   5.696   3.373 -0.0839 -0.2599  0.3917
 5569TIP3    H138198   5.537   5.739   3.356  0.2843  0.2714 -0.1500
 5569TIP3    H238199   5.599   5.614   3.417 -0.9686 -0.6717 -0.7866
 5570TIP3   OH238200   0.712   2.015  11.569 -0.2782 -0.5747 -0.0527
 5570TIP3    H138201   0.774   2.012  11.497  0.0999 -3.3878  0.3587
 5570TIP3    H238202   0.764   1.995  11.647 -1.0085  0.7586  0.8100
 5571TIP3   OH238203   6.511   2.262  16.441  0.4898 -0.3750 -0.3103
 5571TIP3    H138204   6.547   2.282  16.354  0.5972 -1.5714 -0.5446
 5571TIP3    H238205   6.482   2.347  16.475  0.8192  0.1601 -1.3428
 5572TIP3   OH238206   1.463   3.471  12.247 -0.5075 -0.3016  0.4328
 5572TIP3    H138207   1.485   3.564  12.245 -0.4587 -0.2719  2.1664
 5572TIP3    H238208   1.389   3.463  12.186 -2.1352  1.3182  2.1389
 5573TIP3   OH238209   3.386   6.323   3.037 -0.4914 -0.2722 -0.4168
 5573TIP3    H138210   3.462   6.363   3.079 -0.8762  0.7135 -0.6520
 5573TIP3    H238211   3.339   6.279   3.108  0.0882 -0.5454 -0.2041
 5574TIP3   OH238212   4.566   5.662  12.151 -0.2004  0.1606 -0.1272
 5574TIP3    H138213   4.644   5.689  12.103  0.1846 -0.1118  0.3492
 5574TIP3    H238214   4.521   5.744  12.172  0.6850  0.4108  0.8308
 5575TIP3   OH238215   2.841   6.650  11.129 -0.1238  0.4993 -0.4655
 5575TIP3    H138216   2.770   6.674  11.069 -0.2702 -0.5927 -0.7464
 5575TIP3    H238217   2.914   6.707  11.104  0.5481 -1.4575 -3.2100
 5576TIP3   OH238218   4.521   3.860  13.421  0.1257 -0.2090 -0.4109
 5576TIP3    H138219   4.485   3.798  13.485  1.8905 -1.0484 -0.2017
 5576TIP3    H238220   4.489   3.828  13.336 -3.2837  1.6398  0.0866
 5577TIP3   OH238221   4.644   0.210   2.957 -0.1728 -0.2262  0.0300
 5577TIP3    H138222   4.714   0.184   3.017 -0.1017  1.0638  0.5052
 5577TIP3    H238223   4.586   0.134   2.954  2.0686 -1.9505 -1.6274
 5578TIP3   OH238224   3.800   4.701  10.798  0.7383  0.1584 -0.6134
 5578TIP3    H138225   3.856   4.625  10.813  1.0803  0.6354  0.6228
 5578TIP3    H238226   3.837   4.769  10.855 -2.0520  0.0027  1.4978
 5579TIP3   OH238227   3.515   1.559  17.193  0.0336 -0.3530 -0.0994
 5579TIP3    H138228   3.431   1.515  17.183 -0.3096 -0.3439  2.4082
 5579TIP3    H238229   3.579   1.488  17.193 -0.1584 -0.5251  0.0627
 5580TIP3   OH238230   6.723   4.908   1.408  0.0965 -0.0833  0.7642
 5580TIP3    H138231   6.676   4.831   1.441 -1.2663  0.4757  0.1529
 5580TIP3    H238232   6.695   4.916   1.317  3.7262 -1.5337 -0.5696
 5581TIP3   OH238233   0.832   3.874  17.239 -0.2258  0.3668  0.2592
 5581TIP3    H138234   0.902   3.924  17.196 -0.3828  0.6148  0.2899
 5581TIP3    H238235   0.771   3.854  17.168 -1.1009  1.8381  0.5845
 5582TIP3   OH238236   6.221   0.781   3.135  0.0081 -0.2382  0.2302
 5582TIP3    H138237   6.268   0.863   3.152 -0.9053 -0.1377  2.5091
 5582TIP3    H238238   6.278   0.732   3.076  1.5799  1.1356  0.5656
 5583TIP3   OH238239   3.297   2.158   3.035  0.0271 -0.4954 -0.0054
 5583TIP3    H138240   3.210   2.188   3.009  0.0865 -1.6292 -1.5777
 5583TIP3    H238241   3.288   2.064   3.048  0.5600 -0.3064  1.8098
 5584TIP3   OH238242   1.269   4.625  13.284 -0.0079 -0.1299 -0.5623
 5584TIP3    H138243   1.278   4.542  13.236  1.2894 -0.9352  1.0277
 5584TIP3    H238244   1.236   4.687  13.218 -1.1133 -1.9193 -1.7458
 5585TIP3   OH238245   5.542   6.070  17.216  0.5126 -0.5552  0.0506
 5585TIP3    H138246   5.466   6.082  17.160  1.6584  0.2310 -1.3870
 5585TIP3    H238247   5.614   6.053  17.155  1.8394  0.6177  1.2534
 5586TIP3   OH238248   1.173   3.891   6.510 -0.4127  0.0741 -0.2079
 5586TIP3    H138249   1.101   3.910   6.450  2.3731 -0.7069 -3.9759
 5586TIP3    H238250   1.152   3.804   6.545 -0.7429 -0.6599 -2.1637
 5587TIP3   OH238251   5.412   6.686   4.308 -0.2465  0.6166  0.0911
 5587TIP3    H138252   5.430   6.707   4.400 -0.0364  2.9945 -0.4714
 5587TIP3    H238253   5.330   6.732   4.289 -1.2258 -1.2983 -0.4382
 5588TIP3   OH238254   3.386   5.080   3.897  0.3400  0.4137  0.4624
 5588TIP3    H138255   3.444   5.067   3.972  0.4619 -0.5655  0.2071
 5588TIP3    H238256   3.317   5.137   3.930  1.5471  1.7720  0.7176
 5589TIP3   OH238257   3.352   2.459  16.940  0.2501 -0.7775  0.5267
 5589TIP3    H138258   3.386   2.408  17.014 -0.0601 -0.7359  0.6998
 5589TIP3    H238259   3.431   2.491  16.895  0.4391  0.6302  1.8168
 5590TIP3   OH238260   6.240   3.099  16.690 -0.3548  0.1810  0.0971
 5590TIP3    H138261   6.292   3.086  16.769  0.3141  1.1088 -0.1878
 5590TIP3    H238262   6.166   3.152  16.719 -0.1142  0.5149  0.0945
 5591TIP3   OH238263   0.133   3.722  17.021  0.2472  0.3487 -0.2623
 5591TIP3    H138264   0.046   3.735  17.059 -0.2238 -0.2788 -1.1209
 5591TIP3    H238265   0.174   3.656  17.077  0.3384  0.9621  0.4015
 5592TIP3   OH238266   1.872   3.457   3.007 -0.4453 -0.0596 -0.0084
 5592TIP3    H138267   1.847   3.537   2.962  3.1863  0.5082 -1.1473
 5592TIP3    H238268   1.910   3.486   3.090 -0.9489 -0.7483  0.4796
 5593TIP3   OH238269   1.459   0.792  11.000 -0.6281  0.5316 -0.2172
 5593TIP3    H138270   1.392   0.860  10.991 -0.0938  1.1060  0.1461
 5593TIP3    H238271   1.541   0.837  10.984 -0.2058  0.1328  0.8408
 5594TIP3   OH238272   1.209   1.706   1.066  0.1042  0.2058  0.6631
 5594TIP3    H138273   1.267   1.732   0.994  0.4219 -1.7770  0.1872
 5594TIP3    H238274   1.262   1.718   1.145  0.1813  1.1333  0.4861
 5595TIP3   OH238275   3.175   4.461  12.154 -0.0411 -0.1374  0.0644
 5595TIP3    H138276   3.154   4.521  12.226  1.2681  1.7854 -1.1092
 5595TIP3    H238277   3.265   4.483  12.131 -0.2794 -1.0817 -1.8250
 5596TIP3   OH238278   5.478   1.587  12.091  0.1601  0.1145  0.7927
 5596TIP3    H138279   5.449   1.607  12.180  0.3938 -1.0541  1.1492
 5596TIP3    H238280   5.569   1.559  12.102 -0.3659 -1.8326  0.4433
 5597TIP3   OH238281   5.119   2.233  13.453 -0.0224  0.4234  0.4800
 5597TIP3    H138282   5.050   2.277  13.502 -0.4962 -0.3639  0.5435
 5597TIP3    H238283   5.183   2.207  13.519 -0.0473  0.4703  0.5232
 5598TIP3   OH238284   4.338   0.267   4.975 -0.3403  0.1098 -0.0571
 5598TIP3    H138285   4.263   0.236   5.025 -0.0405 -1.1191 -0.3370
 5598TIP3    H238286   4.301   0.293   4.890 -0.5591  0.2676  0.0854
 5599TIP3   OH238287   1.958   5.127  11.922 -0.4047 -0.3517  0.4035
 5599TIP3    H138288   1.934   5.136  11.830 -0.6319  0.0738  0.5047
 5599TIP3    H238289   2.008   5.206  11.942 -1.1306 -0.0100  0.8888
 5600TIP3   OH238290   5.159   3.210   4.365  0.4685  0.1151 -0.1278
 5600TIP3    H138291   5.094   3.154   4.407  1.1059 -0.4086  0.1789
 5600TIP3    H238292   5.118   3.240   4.284 -0.0643 -0.3861 -0.0401
 5601TIP3   OH238293   0.278   5.846   4.722  0.2104  0.2900 -0.2462
 5601TIP3    H138294   0.254   5.755   4.704  1.4354 -0.0616 -0.0962
 5601TIP3    H238295   0.239   5.864   4.808 -0.8497  0.2148 -0.7060
 5602TIP3   OH238296   2.248   1.390  16.722  0.4477 -0.3046  0.0873
 5602TIP3    H138297   2.339   1.377  16.747 -0.2134 -3.6826  1.0054
 5602TIP3    H238298   2.201   1.400  16.805 -0.3400 -0.9616 -0.2744
 5603TIP3   OH238299   0.901   4.957   0.582 -0.0545 -0.0118  0.1896
 5603TIP3    H138300   0.943   5.039   0.610 -0.0965 -0.0121  0.2534
 5603TIP3    H238301   0.916   4.897   0.655 -0.6715  0.1623  0.4619
 5604TIP3   OH238302   2.828   0.936   4.883 -0.4845  0.1713 -0.0539
 5604TIP3    H138303   2.757   0.924   4.820  1.2860 -1.5643 -1.8214
 5604TIP3    H238304   2.886   1.000   4.841 -0.1295  0.2709  0.5851
 5605TIP3   OH238305   2.714   1.348  13.391  0.0847 -0.1430 -0.1277
 5605TIP3    H138306   2.773   1.347  13.316  0.3126  0.4957  0.0411
 5605TIP3    H238307   2.631   1.314  13.357  0.2754 -0.1441 -0.5965
 5606TIP3   OH238308   3.475   4.912   1.382 -0.5188 -0.1180  0.0905
 5606TIP3    H138309   3.423   4.849   1.432  0.8524 -0.8438  0.6211
 5606TIP3    H238310   3.525   4.859   1.321  0.1407  0.5079  0.0721
 5607TIP3   OH238311   5.024   0.222  15.577 -0.1244 -0.2613 -0.2519
 5607TIP3    H138312   5.026   0.317  15.566 -0.9561 -0.3022 -0.8128
 5607TIP3    H238313   5.065   0.188  15.497 -0.4515 -0.3897 -0.3662
 5608TIP3   OH238314   3.378   6.046   1.384  0.1838  0.3157 -0.1952
 5608TIP3    H138315   3.318   5.993   1.332 -0.1991  1.3921 -0.8528
 5608TIP3    H238316   3.323   6.114   1.423  0.4589 -0.4648  1.6377
 5609TIP3   OH238317   2.478   3.149   1.318 -0.6868  0.2783  0.0198
 5609TIP3    H138318   2.493   3.139   1.224 -1.8511  2.3109 -0.4202
 5609TIP3    H238319   2.384   3.132   1.329 -0.9903  2.0928  0.4671
 5610TIP3   OH238320   3.699   6.638   1.628  0.0988  0.4769 -0.0415
 5610TIP3    H138321   3.643   6.682   1.692 -1.2261 -0.5673 -0.4644
 5610TIP3    H238322   3.688   6.689   1.548 -1.9344 -0.9342 -0.7077
 5611TIP3   OH238323   5.897   5.240  16.916  0.2797 -0.6272  0.3744
 5611TIP3    H138324   5.945   5.244  16.833  0.1972 -3.2640  0.1794
 5611TIP3    H238325   5.965   5.241  16.983  0.3584  1.1779  0.3049
 5612TIP3   OH238326   5.784   4.093   4.664 -0.0240  0.0577  0.1029
 5612TIP3    H138327   5.821   4.023   4.718  1.6935 -0.9880 -2.3208
 5612TIP3    H238328   5.806   4.173   4.711  0.6543 -0.8603  1.4011
 5613TIP3   OH238329   0.963   1.090  17.262 -0.5193  0.4638 -0.0633
 5613TIP3    H138330   0.896   1.153  17.289 -0.6835  0.5369 -0.6507
 5613TIP3    H238331   0.981   1.039  17.341 -2.0395 -0.2656 -0.1779
 5614TIP3   OH238332   5.194   1.294  15.852  0.3217 -0.1970  0.5585
 5614TIP3    H138333   5.286   1.317  15.863  0.5154 -0.9614  0.5952
 5614TIP3    H238334   5.177   1.231  15.922 -0.2025 -0.1327  0.4901
 5615TIP3   OH238335   0.826   0.250  11.162 -0.2142 -0.0754  0.1098
 5615TIP3    H138336   0.759   0.189  11.132  0.1234 -0.1719 -0.4599
 5615TIP3    H238337   0.779   0.316  11.212 -0.8226  0.3013 -0.9630
 5616TIP3   OH238338   3.953   2.846  16.805  0.5703 -0.4830 -0.3667
 5616TIP3    H138339   4.025   2.896  16.844  0.9843  0.2990 -2.0875
 5616TIP3    H238340   3.992   2.805  16.728 -0.5607 -0.9314 -0.6996
 5617TIP3   OH238341   0.015   5.904  10.850  0.6408  0.2125 -0.2769
 5617TIP3    H138342  -0.024   5.888  10.764 -0.1239 -1.4420  0.3760
 5617TIP3    H238343   0.045   5.819  10.880  1.0227  0.7937  1.0521
 5618TIP3   OH238344   4.047   0.753   2.992  0.5243 -0.5532  0.2802
 5618TIP3    H138345   4.018   0.841   3.020  0.2527 -0.1341 -1.2869
 5618TIP3    H238346   4.140   0.764   2.972  0.5186 -0.6623  0.1999
 5619TIP3   OH238347   1.782   2.432   1.284 -0.2272 -0.1475  0.7463
 5619TIP3    H138348   1.865   2.471   1.313 -0.8551  1.1809  0.7992
 5619TIP3    H238349   1.805   2.381   1.206  1.3214 -2.9701  2.9182
 5620TIP3   OH238350   0.453   1.059  17.183 -0.0565 -0.0026  0.1245
 5620TIP3    H138351   0.361   1.036  17.170  0.0667 -1.2302  1.3146
 5620TIP3    H238352   0.486   0.992  17.243  1.4982  0.6896  0.0580
 5621TIP3   OH238353   6.676   5.618  16.711 -0.4090 -0.5279 -0.3457
 5621TIP3    H138354   6.641   5.588  16.795  2.3976  0.6358  1.2931
 5621TIP3    H238355   6.748   5.558  16.693  1.0695  1.1889 -0.2726
 5622TIP3   OH238356   6.329   2.386   5.010 -0.4398 -0.0244  0.0596
 5622TIP3    H138357   6.349   2.395   5.103  0.7103  0.9874 -0.2654
 5622TIP3    H238358   6.382   2.311   4.982 -0.5741 -0.1581  0.1631
 5623TIP3   OH238359   2.740   2.937   1.081  0.1438 -0.5429 -0.4498
 5623TIP3    H138360   2.660   2.989   1.077  1.5981  1.6701 -2.2313
 5623TIP3    H238361   2.736   2.880   1.005  0.5870  0.1304 -0.9916
 5624TIP3   OH238362   5.609   1.212  12.227  0.5880 -0.1199 -0.3915
 5624TIP3    H138363   5.517   1.214  12.254  0.3165 -2.5791 -1.0124
 5624TIP3    H238364   5.656   1.184  12.306  1.0409  2.6274  0.3801
 5625TIP3   OH238365   3.703   4.514  16.578 -0.0859  0.0988 -0.3423
 5625TIP3    H138366   3.764   4.583  16.606 -1.3109  0.9974  0.1216
 5625TIP3    H238367   3.656   4.552  16.504  1.6587 -1.5121 -2.3702
 5626TIP3   OH238368   2.956   1.726  10.850  0.7810  0.6616 -0.0291
 5626TIP3    H138369   2.920   1.638  10.834 -0.7818  1.1520  0.6878
 5626TIP3    H238370   3.035   1.710  10.902  1.0264 -0.3746 -0.6940
 5627TIP3   OH238371   0.384   3.559   4.719  0.6005 -0.2021  0.0630
 5627TIP3    H138372   0.317   3.612   4.762  0.4281  0.7643 -1.3558
 5627TIP3    H238373   0.461   3.568   4.775  0.1651  0.4208  0.5753
 5628TIP3   OH238374   5.196   2.276   2.599  0.7182  0.1340 -0.0436
 5628TIP3    H138375   5.279   2.232   2.582  0.6417 -0.2775  0.6473
 5628TIP3    H238376   5.212   2.328   2.678 -0.6776 -2.6362  2.1346
 5629TIP3   OH238377   0.030   1.471   4.457 -0.2117 -0.7997 -0.3185
 5629TIP3    H138378   0.016   1.437   4.369 -2.7947  0.6525 -0.5139
 5629TIP3    H238379   0.122   1.497   4.458  0.1922 -2.0511 -2.1438
 5630TIP3   OH238380   6.361   3.195   1.377 -0.6310 -0.0868 -0.0874
 5630TIP3    H138381   6.353   3.121   1.437 -0.7095 -1.4106 -1.7050
 5630TIP3    H238382   6.443   3.178   1.330 -0.2513  1.2660  0.0734
 5631TIP3   OH238383   5.849   0.544   6.448 -0.5401 -0.0672 -0.3479
 5631TIP3    H138384   5.756   0.524   6.438 -1.1440  2.2019  0.3648
 5631TIP3    H238385   5.851   0.621   6.504  1.8596 -0.9318  0.8204
 5632TIP3   OH238386   6.798   6.299  14.706 -0.6554  0.5321  0.0821
 5632TIP3    H138387   6.866   6.366  14.704  0.6067 -0.6586  1.4104
 5632TIP3    H238388   6.721   6.345  14.740 -0.8244  2.1150 -2.3255
 5633TIP3   OH238389   2.464   1.020   1.857 -0.0076  0.4160 -0.3234
 5633TIP3    H138390   2.497   0.981   1.937 -0.1718 -1.7101 -1.2669
 5633TIP3    H238391   2.378   1.055   1.881  0.0255 -0.0436  0.4756
 5634TIP3   OH238392   0.321   1.719  12.579 -0.0295  0.1087  0.1650
 5634TIP3    H138393   0.305   1.657  12.508  0.2645  1.5311 -1.1669
 5634TIP3    H238394   0.415   1.734  12.578 -0.1275  0.7485  0.3453
 5635TIP3   OH238395   3.887   3.091   2.929  0.2384  0.3178 -0.0462
 5635TIP3    H138396   3.952   3.023   2.945  0.7267  0.9482  0.6526
 5635TIP3    H238397   3.842   3.062   2.849 -0.5893 -1.5929  1.0890
 5636TIP3   OH238398   0.111   3.789   3.619  0.1012  0.2618 -0.7074
 5636TIP3    H138399   0.131   3.744   3.537 -0.5999  1.6103 -1.6366
 5636TIP3    H238400   0.196   3.816   3.653  0.5193 -1.6226 -0.2112
 5637TIP3   OH238401   1.856   3.574  14.619 -0.0270 -0.6159 -0.4045
 5637TIP3    H138402   1.891   3.503  14.672  0.0672  1.3910  2.3179
 5637TIP3    H238403   1.920   3.585  14.548  2.5567  0.0011  1.9399
 5638TIP3   OH238404   0.476   6.175  13.597  0.2421  0.3069 -0.1013
 5638TIP3    H138405   0.432   6.185  13.682  0.1858 -1.2619  0.0692
 5638TIP3    H238406   0.411   6.205  13.533 -0.8568 -1.3989  0.1948
 5639TIP3   OH238407   1.621   0.994  14.532 -0.0725 -0.3960  0.4118
 5639TIP3    H138408   1.564   0.929  14.493 -0.1805  0.5024 -0.9715
 5639TIP3    H238409   1.709   0.959  14.522  0.1766  1.0266 -3.1951
 5640TIP3   OH238410   0.388   5.720  14.603  0.3165 -0.6867 -0.0469
 5640TIP3    H138411   0.342   5.646  14.643  0.0328 -0.2605  0.4213
 5640TIP3    H238412   0.335   5.797  14.627 -0.0136 -0.4582 -1.4662
 5641TIP3   OH238413   4.595   1.381  15.241 -0.7344 -0.2388  0.1260
 5641TIP3    H138414   4.664   1.365  15.305  0.4378  1.4259 -0.6943
 5641TIP3    H238415   4.630   1.350  15.158 -0.2789  2.1238 -0.6014
 5642TIP3   OH238416   5.428   1.430   3.358  0.7815 -0.1138  0.1160
 5642TIP3    H138417   5.420   1.386   3.443  0.7218  0.8944  0.6423
 5642TIP3    H238418   5.365   1.385   3.301  1.1973 -1.1349  0.4581
 5643TIP3   OH238419   2.736   2.200   4.937  0.0127 -0.5767 -0.1366
 5643TIP3    H138420   2.664   2.146   4.904 -2.3382  2.3957 -0.1274
 5643TIP3    H238421   2.783   2.229   4.859 -2.1788  1.8886 -0.6477
 5644TIP3   OH238422   2.859   6.068  12.636 -0.1231  0.0346 -0.1431
 5644TIP3    H138423   2.844   6.061  12.730 -1.6045  0.2876 -0.3465
 5644TIP3    H238424   2.937   6.015  12.620 -1.0283 -1.6540  0.9246
 5645TIP3   OH238425   4.367   0.310   3.222  0.2480  0.4048  0.0300
 5645TIP3    H138426   4.400   0.263   3.299  1.2513  0.1678 -0.5325
 5645TIP3    H238427   4.388   0.253   3.148  1.1537  1.5628 -0.6236
 5646TIP3   OH238428   6.020   5.990   2.361 -0.2446 -0.5126  0.0132
 5646TIP3    H138429   6.084   5.921   2.343 -0.0206 -0.3450  0.1609
 5646TIP3    H238430   5.935   5.946   2.354 -0.1289 -0.6334 -0.6129
 5647TIP3   OH238431   6.184   5.751  13.003 -0.0751 -0.3352 -0.0513
 5647TIP3    H138432   6.270   5.738  13.042 -1.0423 -1.1987  1.8816
 5647TIP3    H238433   6.164   5.843  13.017 -0.8026 -0.8216  2.4415
 5648TIP3   OH238434   6.258   6.305  17.102  0.7222 -0.1278  0.0199
 5648TIP3    H138435   6.289   6.227  17.148 -1.5049 -1.6140 -0.9242
 5648TIP3    H238436   6.222   6.361  17.170 -0.6474 -1.3904  0.3515
 5649TIP3   OH238437   3.077   2.558   1.748 -0.2036 -0.2919 -0.4325
 5649TIP3    H138438   3.132   2.546   1.671  2.0347  1.4720  0.8250
 5649TIP3    H238439   3.020   2.481   1.749  1.1456 -1.3764 -2.6767
 5650TIP3   OH238440   2.385   5.259  16.386  0.0243  0.1092 -0.5101
 5650TIP3    H138441   2.481   5.261  16.385  0.0891 -0.3285  1.8417
 5650TIP3    H238442   2.362   5.262  16.479 -2.2630  0.6021 -1.0623
 5651TIP3   OH238443   5.994   4.184  11.341 -0.0484  0.4740  0.2213
 5651TIP3    H138444   5.912   4.168  11.388  0.9885  1.4620  2.4104
 5651TIP3    H238445   5.968   4.186  11.249 -2.5003  0.8693  0.8879
 5652TIP3   OH238446   3.530   4.086   4.060 -0.9170  0.2871 -0.1752
 5652TIP3    H138447   3.581   4.030   4.119 -1.2441 -0.0537 -0.2109
 5652TIP3    H238448   3.527   4.036   3.978 -0.9082  0.5203 -0.3159
 5653TIP3   OH238449   5.414   0.389   0.533 -0.4109  0.0644  0.1021
 5653TIP3    H138450   5.487   0.354   0.482 -1.6113  0.4357 -1.9538
 5653TIP3    H238451   5.416   0.483   0.516  0.1059  0.4186  2.0202
 5654TIP3   OH238452   4.254   6.698  10.767 -0.4856 -0.2384 -0.3316
 5654TIP3    H138453   4.330   6.720  10.820 -0.9962 -0.3310  0.4423
 5654TIP3    H238454   4.212   6.783  10.750 -0.1411 -0.1720 -0.8767
 5655TIP3   OH238455   4.936   5.228   4.128  0.2606  0.3208 -0.0007
 5655TIP3    H138456   4.906   5.266   4.211 -0.5345 -2.3316  0.9592
 5655TIP3    H238457   4.866   5.251   4.066 -0.7968 -0.5769  0.8408
 5656TIP3   OH238458   0.491   1.668  13.088 -0.2242  0.0698  0.3280
 5656TIP3    H138459   0.435   1.709  13.154 -0.2053  0.5895  0.0257
 5656TIP3    H238460   0.433   1.654  13.012  0.4617  2.2427 -0.6337
 5657TIP3   OH238461   6.482   3.285   3.908 -0.1200  0.1090 -0.5086
 5657TIP3    H138462   6.418   3.277   3.838 -0.3028  0.2148 -0.3535
 5657TIP3    H238463   6.553   3.225   3.883 -1.1551 -1.5039  0.2939
 5658TIP3   OH238464   5.252   2.936   3.832  0.1061 -0.3604 -0.0554
 5658TIP3    H138465   5.299   2.879   3.893  0.8173  0.8976  0.5738
 5658TIP3    H238466   5.320   2.970   3.774 -0.4329 -0.7808 -0.9449
 5659TIP3   OH238467   2.159   2.475   1.685 -0.4427  0.1922 -0.2055
 5659TIP3    H138468   2.184   2.393   1.728 -1.1939  0.5618  0.9707
 5659TIP3    H238469   2.123   2.448   1.600  1.8763 -0.4890 -1.0127
 5660TIP3   OH238470   2.468   5.845  16.897 -0.3981  0.3331 -0.1429
 5660TIP3    H138471   2.461   5.922  16.954 -1.5302  0.0079  0.1660
 5660TIP3    H238472   2.550   5.858  16.850  0.5046  0.6569  1.4957
 5661TIP3   OH238473   2.934   6.622   0.246  0.4608 -0.1641  0.1038
 5661TIP3    H138474   2.925   6.717   0.249 -1.0874 -0.3250  2.4499
 5661TIP3    H238475   2.995   6.602   0.317  0.5648 -0.9215 -0.2016
 5662TIP3   OH238476   6.021   4.062   0.612 -0.0436  0.7649  0.4921
 5662TIP3    H138477   5.999   4.098   0.526  0.2086  0.9664  0.5102
 5662TIP3    H238478   6.117   4.056   0.612 -0.0900 -0.1685  0.3856
 5663TIP3   OH238479   3.233   6.820   0.089 -0.3054 -0.2214  0.2458
 5663TIP3    H138480   3.275   6.739   0.120 -1.4918 -0.4243  1.3719
 5663TIP3    H238481   3.164   6.836   0.153  1.4142  2.9840  1.3995
 5664TIP3   OH238482   0.816   3.464   1.018 -0.1982  0.0870  0.1521
 5664TIP3    H138483   0.806   3.495   1.108 -2.3873  0.0219 -0.0382
 5664TIP3    H238484   0.865   3.382   1.026  0.7760  0.7591  1.1532
 5665TIP3   OH238485   0.617   5.921  16.697  0.3324  0.2900 -0.4032
 5665TIP3    H138486   0.707   5.954  16.700 -0.0536  1.2575  0.8916
 5665TIP3    H238487   0.617   5.859  16.624  1.8655  0.8194 -0.8767
 5666TIP3   OH238488   1.098   1.718  11.581  0.8357  0.1108  0.6233
 5666TIP3    H138489   1.152   1.779  11.632  1.4061 -0.1252  0.3122
 5666TIP3    H238490   1.141   1.633  11.594 -0.9130 -0.5333  2.4134
 5667TIP3   OH238491   0.825   0.567   3.320 -0.3726 -0.2334 -0.1886
 5667TIP3    H138492   0.753   0.505   3.308 -0.1147 -0.5302 -0.2000
 5667TIP3    H238493   0.827   0.616   3.238 -1.1850  0.4356  0.1748
 5668TIP3   OH238494   0.409   0.926   2.584  0.0543 -0.5061  0.0711
 5668TIP3    H138495   0.386   0.956   2.672  1.1303 -0.6249  0.3991
 5668TIP3    H238496   0.353   0.977   2.525 -1.0751 -0.8233  0.8457
 5669TIP3   OH238497   5.760   6.661  13.945 -0.1607  0.2060  0.4564
 5669TIP3    H138498   5.834   6.648  13.886 -0.5278  0.6672 -0.1112
 5669TIP3    H238499   5.691   6.604  13.911 -0.3665  0.4615  0.4398
 5670TIP3   OH238500   5.737   5.482  12.096  0.6546  0.2189  0.4471
 5670TIP3    H138501   5.725   5.528  12.012 -2.5471 -0.6661  0.3487
 5670TIP3    H238502   5.810   5.527  12.138  0.5303  2.4601 -1.6223
 5671TIP3   OH238503   2.231   2.700  11.950  0.6823 -0.4414 -0.2659
 5671TIP3    H138504   2.141   2.676  11.968  0.6122 -0.1473 -0.2259
 5671TIP3    H238505   2.255   2.648  11.873  0.9546 -1.6166  0.5943
 5672TIP3   OH238506   2.591   1.351   3.169 -0.6826  0.2647  0.4027
 5672TIP3    H138507   2.626   1.263   3.181  1.0180  0.5951 -1.7930
 5672TIP3    H238508   2.496   1.341   3.178 -0.4096 -1.5523  1.4470
 5673TIP3   OH238509   5.830   5.668  15.472 -0.1335  0.2440  0.2616
 5673TIP3    H138510   5.774   5.616  15.414 -1.9143  1.7539  0.6092
 5673TIP3    H238511   5.841   5.613  15.549 -1.2496 -0.0192  0.2480
 5674TIP3   OH238512   1.903   5.456  14.982  0.2592 -0.0973  0.5442
 5674TIP3    H138513   1.818   5.496  14.962 -0.5810 -2.6542 -1.3026
 5674TIP3    H238514   1.899   5.439  15.076 -1.4254 -0.4472  0.4348
 5675TIP3   OH238515   3.982   1.310   5.016  0.7309  0.5401  0.0933
 5675TIP3    H138516   3.933   1.293   4.936  1.4124 -1.0194  0.0028
 5675TIP3    H238517   4.038   1.234   5.027  0.1507  0.4046  2.4343
 5676TIP3   OH238518   5.515   1.094   5.450  0.2647 -0.2293 -0.1982
 5676TIP3    H138519   5.506   0.999   5.455  0.0469 -0.2899 -1.5350
 5676TIP3    H238520   5.426   1.126   5.440  0.4556  0.0217 -1.0989
 5677TIP3   OH238521   6.678   1.866  16.900 -0.6194  0.2153  0.0717
 5677TIP3    H138522   6.597   1.916  16.909  0.0470  1.5449 -1.0401
 5677TIP3    H238523   6.668   1.792  16.959 -2.1179  1.0473  0.8768
 5678TIP3   OH238524   2.265   3.666   0.614  0.1830  0.2839  0.0349
 5678TIP3    H138525   2.275   3.715   0.696  1.5767  0.4638 -0.2195
 5678TIP3    H238526   2.279   3.575   0.638 -0.0047  0.2754  0.1065
 5679TIP3   OH238527   5.168   4.317   2.165 -0.4133 -0.5377  0.3073
 5679TIP3    H138528   5.192   4.336   2.256  0.3721  0.1852 -0.0548
 5679TIP3    H238529   5.074   4.333   2.162 -0.7462 -2.0912  1.3859
 5680TIP3   OH238530   6.771   3.131   2.154  0.1224 -0.5692 -0.6720
 5680TIP3    H138531   6.752   3.224   2.160 -1.2699 -0.9765  1.7387
 5680TIP3    H238532   6.692   3.092   2.116  0.5205 -0.8411 -1.2365
 5681TIP3   OH238533   4.869   4.973   6.173  0.3210 -0.3275  0.2958
 5681TIP3    H138534   4.901   4.884   6.153 -0.5928 -0.7311  0.6198
 5681TIP3    H238535   4.925   5.003   6.244 -0.6579 -1.4157  1.5286
 5682TIP3   OH238536   1.482   4.208   3.266  0.4859 -0.1194 -0.4453
 5682TIP3    H138537   1.429   4.156   3.206  3.2850 -2.3712 -1.0776
 5682TIP3    H238538   1.517   4.279   3.212  0.3008 -0.2028 -0.6733
 5683TIP3   OH238539   3.410   0.150  10.610 -0.1233  0.4101 -0.2397
 5683TIP3    H138540   3.336   0.208  10.631 -0.2015  0.5433 -0.8749
 5683TIP3    H238541   3.378   0.095  10.539 -0.1342 -0.6034  0.5481
 5684TIP3   OH238542   6.641   0.417  16.107  0.0815  0.0781  0.0458
 5684TIP3    H138543   6.701   0.463  16.049  0.3666  2.1710  1.9158
 5684TIP3    H238544   6.659   0.324  16.093  2.0879  0.6317 -1.1441
 5685TIP3   OH238545   6.142   1.613   1.648  0.4061 -0.4106  0.2147
 5685TIP3    H138546   6.159   1.696   1.692  1.8498 -0.6571  0.1635
 5685TIP3    H238547   6.064   1.629   1.595 -1.7310 -0.2842  3.2840
 5686TIP3   OH238548   3.436   4.945  10.870 -0.2084  0.2971  0.6840
 5686TIP3    H138549   3.423   4.930  10.777  2.6173 -3.6171  0.8238
 5686TIP3    H238550   3.488   5.026  10.874  3.1976 -1.6618 -1.4625
 5687TIP3   OH238551   4.244   0.995   0.166 -0.7540  0.3122  0.3428
 5687TIP3    H138552   4.268   0.995   0.073  1.0991  2.1781  0.7766
 5687TIP3    H238553   4.277   1.079   0.199 -1.4590 -0.2887  2.6697
 5688TIP3   OH238554   0.106   3.651  14.810 -0.0237 -0.2294  0.2561
 5688TIP3    H138555   0.125   3.650  14.903  0.2794  2.3230  0.2664
 5688TIP3    H238556   0.190   3.664  14.767 -0.3978  0.5418 -0.2627
 5689TIP3   OH238557   5.355   5.989   2.782  0.3376  0.1776  0.0003
 5689TIP3    H138558   5.392   6.047   2.715  1.6975 -0.6517  0.0253
 5689TIP3    H238559   5.344   5.905   2.739 -0.5176  0.1313  0.3001
 5690TIP3   OH238560   3.345   4.141   0.980 -0.3214  0.1207  0.2491
 5690TIP3    H138561   3.402   4.069   0.953  0.0685  0.2832  0.6293
 5690TIP3    H238562   3.261   4.100   1.000 -0.3655 -0.1073 -0.4057
 5691TIP3   OH238563   1.130   5.670   2.600 -0.3886  0.2657  0.0570
 5691TIP3    H138564   1.218   5.653   2.634  0.6377  0.8245 -2.1955
 5691TIP3    H238565   1.123   5.766   2.602 -0.2438  0.3222 -1.3635
 5692TIP3   OH238566   3.794   3.941   6.048 -0.5508 -0.0183  0.7247
 5692TIP3    H138567   3.718   3.886   6.067 -0.9826  0.3522  0.0856
 5692TIP3    H238568   3.757   4.027   6.030 -0.2969 -0.6841 -3.2805
 5693TIP3   OH238569   6.738   5.287   2.427  0.2765  0.0142 -0.2136
 5693TIP3    H138570   6.816   5.284   2.483 -0.5247  0.6963  0.9704
 5693TIP3    H238571   6.717   5.195   2.410  0.2588 -0.2190  1.0161
 5694TIP3   OH238572   0.753   3.429  10.481 -0.3185 -0.2599 -0.4872
 5694TIP3    H138573   0.693   3.379  10.537  1.5592 -1.8584  0.1526
 5694TIP3    H238574   0.794   3.363  10.425  0.3989  0.8951 -1.3429
 5695TIP3   OH238575   4.788   5.488  12.136  0.5085 -0.2208  0.3606
 5695TIP3    H138576   4.738   5.412  12.167  1.5772 -0.8014  0.6681
 5695TIP3    H238577   4.841   5.514  12.211 -1.4578  2.2196  0.9813
 5696TIP3   OH238578   6.110   2.511   2.475  0.1165  0.1745  0.1193
 5696TIP3    H138579   6.081   2.533   2.386  0.1595  0.4837  0.1822
 5696TIP3    H238580   6.125   2.416   2.472 -0.2971  0.1130 -0.0851
 5697TIP3   OH238581   6.326   0.175   1.800 -0.3573  0.3606 -0.4483
 5697TIP3    H138582   6.299   0.085   1.814 -1.3155  0.6324 -0.5419
 5697TIP3    H238583   6.380   0.173   1.721  1.2803 -0.4424  0.6479
 5698TIP3   OH238584   6.747   0.996  17.137  0.1301  0.1222  0.0772
 5698TIP3    H138585   6.699   0.998  17.220  0.1338 -2.0888  0.1731
 5698TIP3    H238586   6.690   1.040  17.075 -1.8418 -1.9976  0.3180
 5699TIP3   OH238587   2.000   2.995   5.225  0.8582  0.4638 -0.2252
 5699TIP3    H138588   2.038   2.935   5.289  0.8801 -0.5445 -1.1735
 5699TIP3    H238589   2.071   3.055   5.203  0.5527  1.4711  1.4645
 5700TIP3   OH238590   6.622   4.988  11.292 -0.5580  0.0217  0.3491
 5700TIP3    H138591   6.634   4.980  11.197  1.5009  5.1188  0.0314
 5700TIP3    H238592   6.708   4.963  11.328 -0.5155  0.6191  0.6655
 5701TIP3   OH238593   3.094   1.375  15.526 -0.3198  0.2846  0.8175
 5701TIP3    H138594   3.043   1.303  15.490 -0.4121 -0.5538  2.5485
 5701TIP3    H238595   3.183   1.340  15.535 -0.2188  0.5957  1.0517
 5702TIP3   OH238596   6.423   5.031   5.430  0.3806 -0.0132 -0.4238
 5702TIP3    H138597   6.339   5.006   5.391  0.9253  0.0454 -1.6378
 5702TIP3    H238598   6.463   4.947   5.454 -0.5120  0.0072  1.2112
 5703TIP3   OH238599   1.709   3.397   4.022 -0.2482  0.0114  0.6148
 5703TIP3    H138600   1.762   3.357   3.953 -1.8728 -1.8402  0.3962
 5703TIP3    H238601   1.692   3.326   4.084 -2.1446  0.6385  0.8648
 5704TIP3   OH238602   6.249   6.271   0.180 -0.4446  0.0211  0.2946
 5704TIP3    H138603   6.189   6.345   0.169 -0.1940  0.2855  0.6864
 5704TIP3    H238604   6.232   6.239   0.268  0.1571  0.2472  0.4950
 5705TIP3   OH238605   0.381   3.127  15.759  0.1172  0.7048  0.4180
 5705TIP3    H138606   0.363   3.212  15.800 -0.4337  0.2694  1.0835
 5705TIP3    H238607   0.469   3.104  15.790  0.0829  0.8249  0.6099
 5706TIP3   OH238608   1.982   5.214   1.993 -0.2937  0.5565  0.3576
 5706TIP3    H138609   1.992   5.129   1.950 -0.7092  0.8409 -0.2979
 5706TIP3    H238610   1.995   5.194   2.086  2.1210  0.2076 -0.0149
 5707TIP3   OH238611   4.932   1.981   4.384 -0.0342  0.6685  0.5887
 5707TIP3    H138612   4.890   1.904   4.344 -0.8665  0.5594  1.6476
 5707TIP3    H238613   4.970   2.028   4.310 -1.0374  0.1549 -0.2792
 5708TIP3   OH238614   3.048   4.762  15.015  0.4468  0.5253  0.2723
 5708TIP3    H138615   2.966   4.725  14.981  1.4050  0.7174 -2.3645
 5708TIP3    H238616   3.083   4.695  15.074  0.4197 -1.3211 -1.7520
 5709TIP3   OH238617   5.541   5.402  16.396 -0.0488  0.9685  0.1849
 5709TIP3    H138618   5.464   5.426  16.344 -1.1943  0.4035  1.5746
 5709TIP3    H238619   5.534   5.307  16.407  0.5220  0.9949  0.8042
 5710TIP3   OH238620   6.388   3.310   5.369  0.1684 -0.4598  0.3251
 5710TIP3    H138621   6.364   3.377   5.305  0.4525 -1.6829 -1.0915
 5710TIP3    H238622   6.312   3.251   5.372 -0.6471  0.6255  2.5767
 5711TIP3   OH238623   3.090   0.627   0.281 -0.0482 -0.0060  0.1185
 5711TIP3    H138624   2.996   0.635   0.293 -0.0161  0.3513  0.1185
 5711TIP3    H238625   3.100   0.562   0.211 -0.2780 -0.5069  0.5413
 5712TIP3   OH238626   0.442   4.483  17.201  0.2382  0.3483 -0.0941
 5712TIP3    H138627   0.447   4.523  17.115 -2.8450  1.4013  0.1681
 5712TIP3    H238628   0.433   4.389  17.183 -0.4312  0.5666 -0.8998
 5713TIP3   OH238629   1.489   6.593  16.732 -0.2418  0.2939  0.0242
 5713TIP3    H138630   1.422   6.530  16.705  1.1741 -0.7679 -1.0988
 5713TIP3    H238631   1.479   6.667  16.672 -0.0725 -0.0880 -0.4778
 5714TIP3   OH238632   0.056   1.197   0.698  0.3205 -0.6147  0.1405
 5714TIP3    H138633   0.098   1.137   0.636  1.3369 -0.7988  0.9940
 5714TIP3    H238634  -0.037   1.190   0.679  0.5014 -1.8283 -0.3485
 5715TIP3   OH238635   2.683   2.640  11.676 -0.3557 -0.2250  0.6370
 5715TIP3    H138636   2.749   2.588  11.630 -0.6941 -1.9373  2.0183
 5715TIP3    H238637   2.697   2.730  11.645  2.2106 -0.6513  0.4477
 5716TIP3   OH238638   2.728   1.728   1.509 -0.0069  0.7956  0.6291
 5716TIP3    H138639   2.677   1.654   1.541 -0.8991  1.2238  0.2397
 5716TIP3    H238640   2.690   1.748   1.423  0.3131  1.6028  0.6664
 5717TIP3   OH238641   0.273   6.465   6.548  0.5069  0.2028 -0.2703
 5717TIP3    H138642   0.267   6.494   6.638  2.1550 -0.3501  0.0307
 5717TIP3    H238643   0.261   6.544   6.496 -0.1031  0.5775  0.4335
 5718TIP3   OH238644   6.194   0.012   4.715  0.3530 -0.3130 -0.2981
 5718TIP3    H138645   6.218  -0.052   4.782  2.1514  1.1412  0.4677
 5718TIP3    H238646   6.135   0.073   4.761  0.3539 -0.1966 -0.4518
 5719TIP3   OH238647   5.664   2.232   2.023 -0.1011  0.6278  0.3816
 5719TIP3    H138648   5.694   2.165   2.084  0.8625 -0.1244 -0.8644
 5719TIP3    H238649   5.573   2.211   2.005  0.1488 -0.2635  0.1417
 5720TIP3   OH238650   1.813   2.050  15.439 -0.2827 -0.4366 -0.0645
 5720TIP3    H138651   1.747   2.028  15.374 -0.5557  0.8038 -0.2100
 5720TIP3    H238652   1.768   2.106  15.502  0.0143 -1.5008  1.1312
 5721TIP3   OH238653   1.601   1.373   4.379 -0.5569  0.4149 -0.1842
 5721TIP3    H138654   1.539   1.302   4.398  1.3659 -1.0034  1.0213
 5721TIP3    H238655   1.611   1.419   4.462  1.2755 -0.4471  0.1098
 5722TIP3   OH238656   5.934   5.663   6.658 -0.1452 -0.2001 -0.1733
 5722TIP3    H138657   5.995   5.604   6.614 -0.7533 -1.0627  0.1232
 5722TIP3    H238658   5.908   5.616   6.738  1.4017  1.5990  1.4165
 5723TIP3   OH238659   1.868   1.057  11.967  0.0993 -0.2621  0.5837
 5723TIP3    H138660   1.913   1.140  11.978  0.8050 -0.6104  0.3475
 5723TIP3    H238661   1.929   0.991  12.001  1.0919 -1.0393 -2.5318
 5724TIP3   OH238662   1.650   3.630   3.282 -0.0400  0.2068  0.0509
 5724TIP3    H138663   1.612   3.645   3.195  1.6602 -0.9520 -0.9320
 5724TIP3    H238664   1.586   3.666   3.343 -0.3983  2.8060 -1.7700
 5725TIP3   OH238665   4.355   0.113  12.067  0.3089 -0.3329 -0.1713
 5725TIP3    H138666   4.360   0.060  12.147 -2.0997 -1.5040 -0.7458
 5725TIP3    H238667   4.392   0.057  11.999 -0.5907 -0.5910 -0.4528
 5726TIP3   OH238668   4.123   5.697   2.553 -0.1692  0.3369  0.3848
 5726TIP3    H138669   4.147   5.674   2.643  1.2527 -1.9656 -0.5506
 5726TIP3    H238670   4.070   5.624   2.523  2.2774 -0.6191 -1.7976
 5727TIP3   OH238671   2.688   1.673   4.733 -0.2223  0.2503  0.3931
 5727TIP3    H138672   2.601   1.635   4.744 -0.3489 -0.0365 -1.5181
 5727TIP3    H238673   2.671   1.758   4.692  0.4064  0.1368 -0.1037
 5728TIP3   OH238674   3.847   3.625   2.668  0.4220  0.4280 -0.1546
 5728TIP3    H138675   3.917   3.687   2.692 -0.0606  0.1019  2.2717
 5728TIP3    H238676   3.873   3.543   2.711  0.6448 -0.8565 -2.6779
 5729TIP3   OH238677   6.472   0.727  16.553  0.4657 -0.4028 -0.3115
 5729TIP3    H138678   6.544   0.789  16.541  2.1159 -2.3202 -0.6885
 5729TIP3    H238679   6.420   0.734  16.473  1.2844 -0.3178 -0.8347
 5730TIP3   OH238680   3.260   3.206  13.939 -0.7815  0.1562 -0.1667
 5730TIP3    H138681   3.215   3.249  14.012  0.2421 -1.1939  1.2985
 5730TIP3    H238682   3.196   3.144  13.905 -0.3180 -1.2772  1.4834
 5731TIP3   OH238683   5.210   2.330   3.928  0.2669  0.7439  0.5638
 5731TIP3    H138684   5.226   2.402   3.868  0.1729  0.6990  0.4846
 5731TIP3    H238685   5.278   2.266   3.909  0.0562  0.5980  0.2988
 5732TIP3   OH238686   4.748   0.659  14.937  0.2275 -0.2424  0.3001
 5732TIP3    H138687   4.783   0.652  14.848  0.1274 -1.7520  0.3684
 5732TIP3    H238688   4.808   0.607  14.990  0.8246  1.4298  1.2930
 5733TIP3   OH238689   6.565   5.072   3.506  0.6396  0.2105 -0.1154
 5733TIP3    H138690   6.596   5.060   3.596  1.5495  0.6034 -0.3672
 5733TIP3    H238691   6.610   5.151   3.476  0.2800  0.1212 -0.8904
 5734TIP3   OH238692   3.780   5.827   0.768  0.3103  0.2729 -0.2710
 5734TIP3    H138693   3.783   5.855   0.860  2.5584  1.3979 -0.6555
 5734TIP3    H238694   3.713   5.882   0.729 -1.1908 -0.7101  0.8174
 5735TIP3   OH238695   4.691   5.210  12.183 -0.2162 -0.0503 -0.6691
 5735TIP3    H138696   4.631   5.230  12.111  1.2177 -0.4868 -2.0097
 5735TIP3    H238697   4.633   5.192  12.257 -1.7824 -1.0988 -2.0984
 5736TIP3   OH238698   1.225   2.783  13.725 -0.5913  0.0882 -0.4200
 5736TIP3    H138699   1.307   2.744  13.692  0.0411  2.4567 -1.7401
 5736TIP3    H238700   1.251   2.826  13.807 -0.9278 -0.7619  0.1386
 5737TIP3   OH238701   2.956   1.379  17.094  0.2695 -0.3406 -0.3509
 5737TIP3    H138702   2.927   1.341  17.011  2.0989 -1.2350 -0.5952
 5737TIP3    H238703   3.020   1.317  17.128 -0.5351 -0.0434  1.7999
 5738TIP3   OH238704   5.336   1.671  12.340 -0.1245 -1.0109  0.0273
 5738TIP3    H138705   5.302   1.760  12.327 -1.5223 -1.8288 -2.1817
 5738TIP3    H238706   5.414   1.683  12.394 -0.4325  1.5392 -0.0350
 5739TIP3   OH238707   1.133   5.614   0.187  0.3030 -0.4203  0.2196
 5739TIP3    H138708   1.061   5.632   0.248 -0.5429 -0.7498 -0.6856
 5739TIP3    H238709   1.091   5.585   0.107  1.5099 -3.4793  0.6005
 5740TIP3   OH238710   2.400   6.024   4.881  0.6781 -0.2630 -0.2849
 5740TIP3    H138711   2.426   6.108   4.844 -0.3593 -0.5322 -1.6708
 5740TIP3    H238712   2.306   6.033   4.899  1.1885 -0.0904  2.4593
 5741TIP3   OH238713   1.299   6.088   0.719  0.0229  0.2801 -0.8970
 5741TIP3    H138714   1.206   6.095   0.697 -0.6683  0.1831  1.8823
 5741TIP3    H238715   1.325   6.178   0.741  0.6179  0.3072 -1.6640
 5742TIP3   OH238716   5.692   2.353  16.362 -0.5553  0.3263 -0.0245
 5742TIP3    H138717   5.781   2.330  16.334 -0.1966  2.0328 -0.3206
 5742TIP3    H238718   5.680   2.305  16.444  0.6235  0.0421 -0.0113
 5743TIP3   OH238719   5.719   5.313  16.662 -0.2600  0.1107 -0.0393
 5743TIP3    H138720   5.792   5.295  16.722 -0.4256 -0.2863  0.0441
 5743TIP3    H238721   5.734   5.254  16.589  0.3794  1.1424 -0.7663
 5744TIP3   OH238722   3.855   4.704  16.313 -0.2429  0.2145 -0.2417
 5744TIP3    H138723   3.761   4.706  16.329 -0.2583  0.7300 -0.3815
 5744TIP3    H238724   3.877   4.794  16.289  0.2334  0.0341 -0.4912
 5745TIP3   OH238725   4.021   0.481   4.217  0.1877  0.5322 -0.0350
 5745TIP3    H138726   3.998   0.431   4.139  1.5688 -0.2223  0.0187
 5745TIP3    H238727   3.958   0.454   4.283 -0.4285  0.4956 -0.6372
 5746TIP3   OH238728   3.163   0.178   5.497  0.3388  0.0285  0.2678
 5746TIP3    H138729   3.197   0.263   5.467 -0.4142  0.3397  0.3032
 5746TIP3    H238730   3.242   0.130   5.525  1.0451 -0.1871 -1.9730
 5747TIP3   OH238731   3.923   6.210  14.071  0.1791 -0.0571  0.0500
 5747TIP3    H138732   3.883   6.189  13.986  1.1572 -0.6728 -0.2695
 5747TIP3    H238733   3.849   6.226  14.129 -0.5539 -1.8294 -0.3681
 5748TIP3   OH238734   3.646   0.919   5.302 -0.1294  0.3302  0.2997
 5748TIP3    H138735   3.668   0.960   5.218  1.0043  1.6624  1.2406
 5748TIP3    H238736   3.554   0.893   5.292 -0.0371  0.5449 -1.3129
 5749TIP3   OH238737   5.860   5.433   4.256 -0.4615  0.4863 -0.9017
 5749TIP3    H138738   5.876   5.520   4.292 -1.1917 -0.1410  0.9736
 5749TIP3    H238739   5.772   5.438   4.217 -0.4158  0.6442 -0.9844
 5750TIP3   OH238740   3.780   3.048  14.024  0.0844 -0.0914 -0.4572
 5750TIP3    H138741   3.759   2.967  14.070  1.3625  0.5619  1.3435
 5750TIP3    H238742   3.771   3.117  14.090  1.9300  0.8798 -1.1568
 5751TIP3   OH238743   5.658   2.838   5.389 -0.4610  0.6530  0.1631
 5751TIP3    H138744   5.624   2.761   5.344 -1.0535  0.9331  0.1198
 5751TIP3    H238745   5.691   2.895   5.319 -0.1745  0.5125  0.1830
 5752TIP3   OH238746   3.964   0.862   2.700 -0.1560  0.4819 -0.2083
 5752TIP3    H138747   3.871   0.868   2.719  0.1125  0.9786  1.0304
 5752TIP3    H238748   3.975   0.907   2.616 -1.2960 -1.2067 -1.2850
 5753TIP3   OH238749   0.491   5.867   1.357  0.8428 -0.2507 -0.0411
 5753TIP3    H138750   0.413   5.868   1.301  1.5855 -1.9631 -1.1868
 5753TIP3    H238751   0.519   5.775   1.356  1.5434 -0.0730  2.2268
 5754TIP3   OH238752   3.490   2.967   3.422  0.3172  0.2042  0.2136
 5754TIP3    H138753   3.487   2.996   3.513  0.9764  0.0735  0.2797
 5754TIP3    H238754   3.403   2.930   3.405 -0.3721  1.7531  0.2794
 5755TIP3   OH238755   4.961   3.308   2.057 -0.4740  0.5504 -0.6762
 5755TIP3    H138756   4.947   3.310   1.963  0.6046 -2.6733 -0.9676
 5755TIP3    H238757   4.886   3.259   2.091  1.0946 -1.6344 -0.3120
 5756TIP3   OH238758   3.369   1.426  14.491  0.6535 -0.8533 -0.2529
 5756TIP3    H138759   3.389   1.348  14.438  1.0300 -0.8565 -0.1048
 5756TIP3    H238760   3.273   1.432  14.488  0.7243 -0.3791 -1.6010
 5757TIP3   OH238761   3.141   2.149  11.716  0.3981  0.1513  0.0192
 5757TIP3    H138762   3.138   2.149  11.812 -0.1412  2.3684  0.0061
 5757TIP3    H238763   3.116   2.059  11.692 -1.1737  0.0459  1.8990
 5758TIP3   OH238764   0.564   4.981  12.225  0.0170 -0.4994  0.2764
 5758TIP3    H138765   0.521   4.897  12.242 -0.5190 -0.4262 -0.6809
 5758TIP3    H238766   0.519   5.043  12.283 -0.0775 -0.7304  0.4503
 5759TIP3   OH238767   4.591   5.584  10.751 -0.4911 -0.2455 -0.3842
 5759TIP3    H138768   4.564   5.601  10.660 -0.3259  1.4986 -0.1234
 5759TIP3    H238769   4.576   5.667  10.796 -0.4385 -1.0695  1.1642
 5760TIP3   OH238770   4.251   2.682  13.539  0.0727  0.5301  0.5248
 5760TIP3    H138771   4.157   2.679  13.520  0.3460 -1.3881 -0.7362
 5760TIP3    H238772   4.293   2.662  13.455  1.5274 -1.2704  1.6270
 5761TIP3   OH238773   0.472   4.013  12.821 -0.5320  0.2834  0.0922
 5761TIP3    H138774   0.550   4.061  12.794  0.0816 -0.0626  1.1971
 5761TIP3    H238775   0.402   4.046  12.765  0.0243  1.9589  0.3577
 5762TIP3   OH238776   3.111   5.332  14.859 -0.4796  0.2463  0.3015
 5762TIP3    H138777   3.173   5.267  14.891  0.2148  0.1912 -1.1148
 5762TIP3    H238778   3.036   5.281  14.827 -0.5304  0.2190  0.4648
 5763TIP3   OH238779   2.200   5.753   1.254  0.4166  0.0813  0.3208
 5763TIP3    H138780   2.120   5.734   1.303  1.2416  0.0237  1.6606
 5763TIP3    H238781   2.181   5.725   1.165 -1.4430  1.0651  0.3801
 5764TIP3   OH238782   4.136   4.040   5.298 -0.7490 -0.2025  0.2899
 5764TIP3    H138783   4.096   4.124   5.275 -1.0185 -0.1446  0.9645
 5764TIP3    H238784   4.063   3.985   5.325 -0.5002 -0.4516  0.4611
 5765TIP3   OH238785   6.637   1.826   4.592 -0.3481  0.4268 -0.2253
 5765TIP3    H138786   6.581   1.900   4.619  0.4396  0.9507 -0.0211
 5765TIP3    H238787   6.614   1.811   4.501 -0.8569  0.6092 -0.1306
 5766TIP3   OH238788   1.526   2.097  16.478  0.6129  0.3729 -0.3863
 5766TIP3    H138789   1.480   2.113  16.561 -0.6479  0.5719 -1.1023
 5766TIP3    H238790   1.588   2.027  16.498 -1.1621 -1.0695  0.2325
 5767TIP3   OH238791   3.003   1.627  16.108 -0.1171 -0.0933  0.3034
 5767TIP3    H138792   2.976   1.559  16.046 -0.1513  0.9395 -0.8480
 5767TIP3    H238793   3.059   1.685  16.055  0.4883  0.3788  1.4515
 5768TIP3   OH238794   1.740   0.708   4.416  0.2274 -0.2994  0.4143
 5768TIP3    H138795   1.662   0.660   4.386  1.3960 -0.8661 -1.8281
 5768TIP3    H238796   1.717   0.800   4.407 -0.2730 -0.4649 -0.0426
 5769TIP3   OH238797   3.017   3.746   5.649  0.8036  0.1613  0.1083
 5769TIP3    H138798   2.979   3.703   5.725 -1.0438  0.1723 -0.7906
 5769TIP3    H238799   3.043   3.833   5.681 -0.2943  0.2933  0.6351
 5770TIP3   OH238800   1.630   0.433  15.118 -0.0411  0.1276  0.6047
 5770TIP3    H138801   1.704   0.401  15.169  1.6131  1.9618 -0.5753
 5770TIP3    H238802   1.590   0.354  15.082  0.0857 -1.0315  2.9082
 5771TIP3   OH238803   0.069   4.589   5.518 -0.1793 -0.2249  0.2902
 5771TIP3    H138804   0.128   4.522   5.482 -0.2072 -0.5445  0.8359
 5771TIP3    H238805   0.088   4.591   5.611 -1.0556 -0.3664  0.4836
 5772TIP3   OH238806   0.795   2.481   0.032 -0.2247  0.8094  0.5222
 5772TIP3    H138807   0.823   2.410  -0.024  0.5114  1.2333  0.3492
 5772TIP3    H238808   0.752   2.438   0.106  2.6032  0.0625  1.7713
 5773TIP3   OH238809   0.665   3.293   3.383  0.0935 -0.3013  0.2786
 5773TIP3    H138810   0.700   3.299   3.472 -1.3664 -0.7396  0.9084
 5773TIP3    H238811   0.656   3.384   3.354 -0.1265 -0.1303  0.8737
 5774TIP3   OH238812   3.185   6.113   3.899  0.5113  0.3977 -0.0697
 5774TIP3    H138813   3.155   6.135   3.811  1.7730  1.9015 -0.1409
 5774TIP3    H238814   3.249   6.044   3.885 -1.7432 -1.7797 -0.0321
 5775TIP3   OH238815   3.210   5.882   1.904  0.2608 -0.2001  0.1243
 5775TIP3    H138816   3.128   5.905   1.859  0.5960 -1.1620 -0.9945
 5775TIP3    H238817   3.208   5.935   1.984  0.0586  2.1910 -1.4012
 5776TIP3   OH238818   4.026   2.184  11.507 -0.0760  0.3570 -0.0828
 5776TIP3    H138819   4.118   2.184  11.532 -0.3837 -0.2020  1.1127
 5776TIP3    H238820   4.008   2.094  11.479 -0.7012 -0.0192  1.4608
 5777TIP3   OH238821   1.515   5.519  16.449 -0.2139  0.0284  0.7793
 5777TIP3    H138822   1.543   5.536  16.359 -0.7655 -1.7821  0.2319
 5777TIP3    H238823   1.525   5.603  16.494 -1.9461  1.5282 -1.5030
 5778TIP3   OH238824   5.864   3.356   0.510  0.3255 -0.2735  0.1332
 5778TIP3    H138825   5.929   3.409   0.463  0.3676  1.1418  1.7130
 5778TIP3    H238826   5.910   3.274   0.529  1.2563  0.2501  0.1963
 5779TIP3   OH238827   6.256   3.384  16.210  0.3428 -0.3097  0.2888
 5779TIP3    H138828   6.254   3.325  16.285 -1.3106 -0.1875  0.3526
 5779TIP3    H238829   6.317   3.343  16.148  2.1327 -0.1467  1.8820
 5780TIP3   OH238830   2.430   3.222  12.607  0.0454 -0.1405  0.6949
 5780TIP3    H138831   2.505   3.275  12.633 -0.2692  0.7400 -0.1761
 5780TIP3    H238832   2.413   3.246  12.516 -0.3665 -1.4310  0.4109
 5781TIP3   OH238833   0.222   5.828   1.987 -0.3693  0.3143 -0.2930
 5781TIP3    H138834   0.314   5.801   1.984 -0.4850 -0.1091 -0.1032
 5781TIP3    H238835   0.221   5.904   2.046 -0.0395  0.7446 -0.8403
 5782TIP3   OH238836   3.664   5.833  15.246  0.3564  0.2928  1.0707
 5782TIP3    H138837   3.710   5.917  15.249 -0.1188  0.5121  3.3274
 5782TIP3    H238838   3.594   5.846  15.182  1.9646  0.7150 -0.6354
 5783TIP3   OH238839   1.626   0.152  15.372 -0.3110 -0.2345  0.2513
 5783TIP3    H138840   1.720   0.169  15.377 -0.2064 -0.3386 -1.1849
 5783TIP3    H238841   1.591   0.189  15.453  1.0593 -0.8813  1.1618
 5784TIP3   OH238842   2.277   3.849  16.733  0.2893  0.2159 -0.2062
 5784TIP3    H138843   2.304   3.805  16.814  0.2102 -2.0341 -1.3627
 5784TIP3    H238844   2.342   3.824  16.669  1.1315  3.1261 -0.5654
 5785TIP3   OH238845   6.638   1.089  12.616 -0.0707 -0.4377 -0.1033
 5785TIP3    H138846   6.666   1.110  12.527  0.2105 -2.3057 -0.4690
 5785TIP3    H238847   6.542   1.089  12.612 -0.0574 -0.5397 -0.4065
 5786TIP3   OH238848   1.069   4.366   1.691  0.6111  0.2413 -0.4347
 5786TIP3    H138849   1.098   4.458   1.691 -1.6630  0.9948  0.8159
 5786TIP3    H238850   1.030   4.354   1.605 -0.5160  0.9430 -0.0356
 5787TIP3   OH238851   3.571   2.562  16.784 -0.2877  0.0701  0.2117
 5787TIP3    H138852   3.560   2.614  16.705  3.6854  0.5133 -0.1860
 5787TIP3    H238853   3.626   2.616  16.841 -0.1546 -1.6697  1.8149
 5788TIP3   OH238854   2.011   2.288   0.788 -0.5557  0.2373 -0.4078
 5788TIP3    H138855   1.997   2.383   0.782 -0.0868  0.3029 -0.4672
 5788TIP3    H238856   2.043   2.263   0.701 -0.1956  0.1049 -0.2371
 5789TIP3   OH238857   5.150   2.037   3.247  0.2560  0.5855 -0.0333
 5789TIP3    H138858   5.169   2.083   3.165 -1.8472 -2.2755 -2.2378
 5789TIP3    H238859   5.215   1.967   3.251 -0.6460 -0.2669 -0.1046
 5790TIP3   OH238860   3.910   1.394  12.066 -0.6914 -0.7205  0.3583
 5790TIP3    H138861   3.990   1.369  12.112 -0.1116  1.5009  0.5995
 5790TIP3    H238862   3.848   1.417  12.136 -0.0321  1.9878  0.1156
 5791TIP3   OH238863   3.665   6.235  12.517  0.0959 -0.2141 -0.5039
 5791TIP3    H138864   3.621   6.150  12.509  0.0715 -0.2191 -0.3336
 5791TIP3    H238865   3.747   6.224  12.470  0.0842 -0.3262 -0.4997
 5792TIP3   OH238866   3.945   6.729  15.833  0.2512  0.5518  0.1118
 5792TIP3    H138867   3.860   6.692  15.807  0.5323  0.6303 -0.9527
 5792TIP3    H238868   3.940   6.735  15.928 -0.6819 -0.0748  0.1143
 5793TIP3   OH238869   4.555   2.028   1.750  0.4176  0.0200  0.0236
 5793TIP3    H138870   4.518   2.116   1.753 -0.5731 -0.3916 -0.2809
 5793TIP3    H238871   4.558   2.000   1.842  1.6288  0.7319  0.2205
 5794TIP3   OH238872   1.860   5.329   3.971 -0.3549  0.3994 -0.1432
 5794TIP3    H138873   1.785   5.324   3.911 -0.8796  2.0943  0.3267
 5794TIP3    H238874   1.867   5.422   3.992  1.5335  0.1834  0.2879
 5795TIP3   OH238875   0.656   5.157  15.142 -0.8858  0.7518  0.6826
 5795TIP3    H138876   0.658   5.211  15.063  1.6580 -1.7545 -1.0659
 5795TIP3    H238877   0.567   5.123  15.146 -1.8594  3.1786  0.5637
 5796TIP3   OH238878   2.467   0.897  14.054 -0.2449  0.6694  0.0262
 5796TIP3    H138879   2.380   0.930  14.075 -0.9284 -1.2107  0.2870
 5796TIP3    H238880   2.518   0.974  14.029 -1.8936  1.8168  0.1937
 5797TIP3   OH238881   3.626   6.247   4.813 -0.1422 -0.1892 -0.0996
 5797TIP3    H138882   3.622   6.155   4.789  1.5463 -0.5841  1.0645
 5797TIP3    H238883   3.584   6.251   4.899 -0.4564  0.1710 -0.2685
 5798TIP3   OH238884   5.730   3.792  16.342  0.5146  0.0853 -0.3486
 5798TIP3    H138885   5.650   3.740  16.339  0.7031 -0.2211 -0.1495
 5798TIP3    H238886   5.801   3.728  16.338  0.7558  0.4329 -1.8438
 5799TIP3   OH238887   2.936   3.082  12.393 -0.0586  0.4268  0.2484
 5799TIP3    H138888   2.926   3.029  12.314  1.2869  0.8062 -0.2005
 5799TIP3    H238889   2.907   3.026  12.465  0.7155 -0.6793 -0.2940
 5800TIP3   OH238890   3.090   5.083   3.459 -0.0481  0.1041 -0.4552
 5800TIP3    H138891   3.118   5.174   3.455 -0.0061  0.2237  1.8691
 5800TIP3    H238892   3.147   5.043   3.525 -0.0369 -1.6231 -1.4700
 5801TIP3   OH238893   6.096   4.238  14.095  0.4420  0.3175  0.2222
 5801TIP3    H138894   6.184   4.241  14.132  0.1720 -0.0512  0.9018
 5801TIP3    H238895   6.039   4.269  14.165 -0.2443 -1.8527  0.6711
 5802TIP3   OH238896   2.245   2.293  12.016 -0.0249 -0.2981  0.1104
 5802TIP3    H138897   2.259   2.289  12.111  0.5741 -0.7680  0.0073
 5802TIP3    H238898   2.313   2.353  11.985 -0.5021  0.2001  0.0316
 5803TIP3   OH238899   0.608   1.286  16.731 -0.1452  0.4998 -0.1811
 5803TIP3    H138900   0.533   1.259  16.677 -0.4738 -0.1711  0.6030
 5803TIP3    H238901   0.574   1.287  16.820  1.0457 -0.7779  0.2907
 5804TIP3   OH238902   0.803   3.105  13.656  0.2282 -0.7170 -0.6034
 5804TIP3    H138903   0.787   3.075  13.567  1.4332  0.7456 -1.3396
 5804TIP3    H238904   0.722   3.086  13.703 -0.3255 -1.7310 -1.9460
 5805TIP3   OH238905   1.855   4.183   4.342 -0.4753 -0.0782  0.1229
 5805TIP3    H138906   1.790   4.123   4.305 -1.6246  0.2377  1.5683
 5805TIP3    H238907   1.839   4.179   4.436  0.6388  1.1443  0.3701
 5806TIP3   OH238908   2.199   0.931   6.048  0.4747 -0.1254  0.4970
 5806TIP3    H138909   2.181   0.883   6.129 -0.7958  0.7210  0.7319
 5806TIP3    H238910   2.233   1.015   6.078  0.3832  0.0338  0.1508
 5807TIP3   OH238911   2.285   3.229   3.771  0.0641 -0.4882 -0.1720
 5807TIP3    H138912   2.197   3.260   3.749  0.1979 -0.6143 -0.9035
 5807TIP3    H238913   2.333   3.308   3.797 -0.4264 -0.5002  0.7628
 5808TIP3   OH238914   3.764   1.782   1.383  0.0211 -0.3402  0.1039
 5808TIP3    H138915   3.670   1.801   1.388  0.2452  0.6191  0.7756
 5808TIP3    H238916   3.797   1.842   1.316 -0.2748 -2.4713 -2.0390
 5809TIP3   OH238917   5.096   4.243   3.732  1.1078 -0.2723 -0.1372
 5809TIP3    H138918   5.133   4.157   3.749  1.1709 -0.3592 -0.6933
 5809TIP3    H238919   5.127   4.266   3.644 -1.0373 -0.8443 -1.0855
 5810TIP3   OH238920   4.801   1.510  13.449 -0.6167  0.0181  0.7514
 5810TIP3    H138921   4.846   1.529  13.531  0.4885 -0.0537  0.1588
 5810TIP3    H238922   4.794   1.595  13.405 -0.4618 -0.0764  0.5416
 5811TIP3   OH238923   2.983   1.448   5.553  0.3732  0.1706  0.3962
 5811TIP3    H138924   3.056   1.507   5.535 -0.1969  0.3463 -1.4448
 5811TIP3    H238925   2.908   1.506   5.566  0.0402 -0.0957 -0.3082
 5812TIP3   OH238926   0.764   2.880   3.394  0.0822 -0.2570 -0.1978
 5812TIP3    H138927   0.816   2.857   3.317  1.4929 -0.6218  0.8436
 5812TIP3    H238928   0.674   2.860   3.369  0.7722 -2.5757 -0.9519
 5813TIP3   OH238929   5.575   5.452   3.833 -0.7200  0.3779  0.8825
 5813TIP3    H138930   5.551   5.365   3.804  1.1202 -0.9113  3.0374
 5813TIP3    H238931   5.647   5.478   3.775  0.1601 -0.4483  1.5914
 5814TIP3   OH238932   2.692   3.887  13.607 -0.0449 -0.2191 -0.1335
 5814TIP3    H138933   2.740   3.882  13.524 -0.0853 -1.7074 -0.0754
 5814TIP3    H238934   2.676   3.981  13.619 -0.2031 -0.0013 -1.8970
 5815TIP3   OH238935   1.966   6.338   4.754 -0.2957 -0.2530  0.5041
 5815TIP3    H138936   1.870   6.346   4.758 -0.1056  2.1562  0.4955
 5815TIP3    H238937   1.997   6.425   4.729  1.9093 -1.0339  0.4215
 5816TIP3   OH238938   5.277   5.309   3.490 -0.5579 -0.5343  0.3962
 5816TIP3    H138939   5.263   5.219   3.462 -1.7430 -1.0198  2.4674
 5816TIP3    H238940   5.289   5.303   3.585  1.1985  1.2928  0.3367
 5817TIP3   OH238941   5.745   3.365  13.734  0.2628 -0.6919 -0.1062
 5817TIP3    H138942   5.801   3.297  13.697  0.8391 -0.4906  0.3765
 5817TIP3    H238943   5.681   3.317  13.787  0.3603 -0.8934 -0.1687
 5818TIP3   OH238944   2.452   0.554  14.291 -0.2125 -0.1037 -0.1061
 5818TIP3    H138945   2.453   0.623  14.225 -0.3903  0.2697  0.2764
 5818TIP3    H238946   2.497   0.481  14.250  1.3968  0.7707  0.0492
 5819TIP3   OH238947   2.083   3.677   4.317 -0.1783  0.0632 -0.0921
 5819TIP3    H138948   2.148   3.607   4.326  0.8509  1.1371  1.1295
 5819TIP3    H238949   2.022   3.662   4.389 -1.0870 -0.7114 -1.0042
 5820TIP3   OH238950   1.715   2.547  15.830  0.0367  0.0005  0.6706
 5820TIP3    H138951   1.751   2.489  15.763 -1.3337 -0.8022  0.5980
 5820TIP3    H238952   1.782   2.551  15.897 -0.0115 -2.0281  0.8763
 5821TIP3   OH238953   6.226   2.266   3.455  0.1735  0.4251  0.0506
 5821TIP3    H138954   6.297   2.330   3.457 -0.1786  0.8678 -1.0001
 5821TIP3    H238955   6.179   2.279   3.537  1.3017  0.1202  0.7582
 5822TIP3   OH238956   3.374   4.725   1.002  0.4028 -0.0203  0.3915
 5822TIP3    H138957   3.383   4.667   1.078 -0.5493 -2.1233 -1.0366
 5822TIP3    H238958   3.451   4.707   0.948  0.6448  0.8262  0.4553
 5823TIP3   OH238959   5.763   1.451   1.570 -0.4567  0.1780 -0.1355
 5823TIP3    H138960   5.800   1.457   1.658  0.5395 -1.2651 -0.4483
 5823TIP3    H238961   5.739   1.541   1.548 -0.5589  0.5735  1.5422
 5824TIP3   OH238962   1.159   3.981   4.646  0.2816 -0.3182 -0.2139
 5824TIP3    H138963   1.160   4.064   4.694  2.1473 -0.6675  0.3776
 5824TIP3    H238964   1.068   3.952   4.651 -0.4231  1.7535 -0.5575
 5825TIP3   OH238965   4.298   4.096   1.457  0.8353  0.4197  0.0320
 5825TIP3    H138966   4.246   4.174   1.439 -1.2500 -1.3031 -1.6769
 5825TIP3    H238967   4.364   4.094   1.388 -0.5278 -0.5173 -1.2592
 5826TIP3   OH238968   2.859   0.704   1.761  0.0181  0.2506 -0.0695
 5826TIP3    H138969   2.790   0.644   1.789 -0.2706  0.3484 -0.5634
 5826TIP3    H238970   2.814   0.787   1.746  0.3363  0.4634  0.1358
 5827TIP3   OH238971   4.651   2.286   0.913 -0.3337  0.2001 -0.0390
 5827TIP3    H138972   4.631   2.195   0.890  0.6192  0.4332 -1.8907
 5827TIP3    H238973   4.645   2.334   0.830  0.5066  1.5844  0.6756
 5828TIP3   OH238974   5.420   5.719  14.192 -0.3248 -0.2287 -0.2074
 5828TIP3    H138975   5.354   5.748  14.129 -0.0244  1.1643  0.1096
 5828TIP3    H238976   5.501   5.760  14.162  0.1213 -0.7947  0.2178
 5829TIP3   OH238977   1.275   1.975  13.041 -0.0313 -0.1493  0.0343
 5829TIP3    H138978   1.279   2.061  13.083 -0.9762  0.2724 -0.7062
 5829TIP3    H238979   1.181   1.957  13.034  0.1856 -2.4541  2.6253
 5830TIP3   OH238980   4.335   3.314  12.889  0.0247  0.2759  0.2795
 5830TIP3    H138981   4.248   3.349  12.908  1.0514  2.1384  1.7476
 5830TIP3    H238982   4.382   3.388  12.849  1.4069 -0.2392  0.9329
 5831TIP3   OH238983   6.681   5.853  16.879  0.6109 -0.2874 -0.2238
 5831TIP3    H138984   6.771   5.886  16.882  1.0369 -1.5113  3.8230
 5831TIP3    H238985   6.683   5.785  16.812  2.8050 -0.5630  0.0757
 5832TIP3   OH238986   2.057   4.939  14.395 -0.2551  0.1764  0.1203
 5832TIP3    H138987   2.076   5.031  14.413 -2.4801  0.4075  1.3457
 5832TIP3    H238988   1.968   4.925  14.427  0.7442 -2.9023  1.8093
 5833TIP3   OH238989   6.484   1.096  13.060 -0.7555  0.0025 -0.0382
 5833TIP3    H138990   6.418   1.083  12.992 -1.3799  1.5151  0.2627
 5833TIP3    H238991   6.493   1.011  13.102  2.2700 -1.9967 -4.3445
 5834TIP3   OH238992   5.781   5.430   1.088  0.7182 -0.1775 -0.4111
 5834TIP3    H138993   5.737   5.410   1.005 -2.4296  1.1142  0.8598
 5834TIP3    H238994   5.825   5.348   1.111 -1.6063 -1.8089 -1.4735
 5835TIP3   OH238995   3.654   3.731   1.918  0.6971 -0.0271  0.3927
 5835TIP3    H138996   3.614   3.645   1.934 -0.2506  0.7349  2.3058
 5835TIP3    H238997   3.698   3.752   2.000  3.6111 -0.0523 -1.1157
 5836TIP3   OH238998   0.508   4.938   3.322 -0.4628 -0.1049 -0.0183
 5836TIP3    H138999   0.441   4.973   3.264 -1.1511 -0.4326  0.5744
 5836TIP3    H239000   0.538   4.858   3.279 -1.0536 -0.4088  0.1371
 5837TIP3   OH239001   0.422   2.600  15.131  0.1321 -0.1357 -0.2340
 5837TIP3    H139002   0.386   2.638  15.051  0.4827 -0.5260 -0.5813
 5837TIP3    H239003   0.478   2.528  15.100  1.2986  0.5393  0.2790
 5838TIP3   OH239004   0.521   0.869   3.775 -0.6251 -0.4732  0.7835
 5838TIP3    H139005   0.507   0.835   3.864 -2.5124 -0.0483  0.6613
 5838TIP3    H239006   0.446   0.926   3.759  0.5386  0.7299 -0.4855
 5839TIP3   OH239007   0.551   1.656   3.319  0.0186  0.6868 -0.1825
 5839TIP3    H139008   0.496   1.656   3.397 -0.6670 -0.0547 -0.6594
 5839TIP3    H239009   0.622   1.717   3.339 -0.4551  0.9118  0.8046
 5840TIP3   OH239010   0.925   3.694   0.915 -0.1862  0.5610 -0.0888
 5840TIP3    H139011   0.928   3.669   0.823 -0.9265 -1.3724  0.3940
 5840TIP3    H239012   0.910   3.612   0.962 -1.9082  1.8116  1.6202
 5841TIP3   OH239013   5.687   3.638  14.066 -0.6865 -0.2168  0.1860
 5841TIP3    H139014   5.748   3.607  13.999  0.8469  0.1137  1.4023
 5841TIP3    H239015   5.738   3.638  14.147 -2.5227 -0.6434  1.3749
 5842TIP3   OH239016   3.177   5.311  16.261  0.2380 -0.4686 -0.4671
 5842TIP3    H139017   3.237   5.312  16.186 -0.7483  0.1377 -1.2537
 5842TIP3    H239018   3.221   5.364  16.327  0.9065 -0.6311 -0.7723
 5843TIP3   OH239019   0.278   6.267   1.094  0.0525  0.0807 -0.4286
 5843TIP3    H139020   0.192   6.307   1.107  0.3704  0.8860 -0.7475
 5843TIP3    H239021   0.323   6.326   1.033  0.9460 -0.1545 -0.0073
 5844TIP3   OH239022   2.279   6.280   2.669 -0.1539  0.4563  0.6872
 5844TIP3    H139023   2.364   6.235   2.663  0.1791  1.0805  0.6078
 5844TIP3    H239024   2.259   6.304   2.579  0.5637  2.0683  0.9338
 5845TIP3   OH239025   2.089   4.021   5.618  0.5310  0.1709 -0.4099
 5845TIP3    H139026   2.129   4.108   5.617 -0.4958  0.7225  2.4684
 5845TIP3    H239027   2.067   4.004   5.526  2.6591  2.0336 -1.2928
 5846TIP3   OH239028   4.577   3.125   3.658 -0.2013  0.0560  0.1027
 5846TIP3    H139029   4.668   3.154   3.662 -0.4632  0.7942  1.1663
 5846TIP3    H239030   4.528   3.196   3.700 -1.3763  0.0858 -1.2647
 5847TIP3   OH239031   1.040   0.915   5.076 -0.2053  0.2053  0.2136
 5847TIP3    H139032   1.108   0.856   5.044  1.0743  0.4924  2.3125
 5847TIP3    H239033   1.016   0.968   5.000 -0.5995 -2.2341 -1.4393
 5848TIP3   OH239034   5.646   2.299  14.557 -0.0683 -0.4250  0.5862
 5848TIP3    H139035   5.666   2.393  14.548  1.0874 -0.6392  0.7930
 5848TIP3    H239036   5.652   2.283  14.652 -2.4577 -0.2486  0.7888
 5849TIP3   OH239037   5.734   5.223   1.957 -0.3146  0.4945 -0.0842
 5849TIP3    H139038   5.729   5.281   2.033  0.2121  1.2521 -0.6282
 5849TIP3    H239039   5.644   5.191   1.946 -0.6297  1.2866  0.1451
 5850TIP3   OH239040   3.894   1.983   3.229 -0.5930 -0.5306 -0.7234
 5850TIP3    H139041   3.810   1.979   3.184 -0.1341 -2.9429 -1.4237
 5850TIP3    H239042   3.959   1.980   3.159  0.1091  0.1429 -0.1164
 5851TIP3   OH239043   0.526   3.644   3.842  0.4739  0.0825  0.4229
 5851TIP3    H139044   0.545   3.644   3.936  0.9116  3.9208  0.4347
 5851TIP3    H239045   0.604   3.605   3.802  2.0590  2.1196  1.4313
 5852TIP3   OH239046   0.454   6.715  12.893  0.1992  0.2273  0.3540
 5852TIP3    H139047   0.460   6.645  12.958  0.2504  0.5213  0.6635
 5852TIP3    H239048   0.523   6.694  12.829  3.0736  2.2761  2.6415
 5853TIP3   OH239049   0.670   1.054  12.334 -0.2265  0.2108 -0.5099
 5853TIP3    H139050   0.678   0.982  12.396 -0.2155  1.3669  0.8643
 5853TIP3    H239051   0.731   1.033  12.263  1.2573 -0.1362  0.8649
 5854TIP3   OH239052   0.809   0.314   2.964 -0.7536 -0.0418 -0.7324
 5854TIP3    H139053   0.761   0.397   2.960 -0.1305  0.3269 -0.5745
 5854TIP3    H239054   0.859   0.312   2.882  0.7678  0.6775  0.1593
 5855TIP3   OH239055   0.705   0.925  15.123 -0.0976 -0.1271  0.1536
 5855TIP3    H139056   0.777   0.885  15.172 -0.4695 -1.5588 -0.4759
 5855TIP3    H239057   0.666   0.987  15.185  0.4441 -0.7588  1.1390
 5856TIP3   OH239058   1.690   5.776  17.264 -0.0149  0.1863  0.7746
 5856TIP3    H139059   1.653   5.801  17.349  0.0965  2.3751  0.2055
 5856TIP3    H239060   1.785   5.787  17.276  0.1453 -1.1084  0.8425
 5857TIP3   OH239061   2.619   6.250  15.606 -0.2909  0.2592 -0.3212
 5857TIP3    H139062   2.591   6.256  15.515  0.7761 -0.2744 -0.6901
 5857TIP3    H239063   2.594   6.334  15.644  0.6426  1.0941 -1.5002
 5858TIP3   OH239064   5.205   4.316   5.254  0.7434 -0.6698 -0.1055
 5858TIP3    H139065   5.214   4.261   5.331  0.3707 -0.2488  0.2417
 5858TIP3    H239066   5.275   4.382   5.262 -0.2727  0.3332  0.6879
 5859TIP3   OH239067   3.432   3.983  13.281  0.0747  0.4232  0.5051
 5859TIP3    H139068   3.446   4.037  13.359  2.2619  0.5606  0.0641
 5859TIP3    H239069   3.521   3.963  13.250 -0.7474 -0.8500 -1.1090
 5860TIP3   OH239070   1.257   3.253  14.956 -0.0499 -0.4364 -0.1388
 5860TIP3    H139071   1.322   3.277  15.023 -1.3222  1.9282  0.3041
 5860TIP3    H239072   1.172   3.266  15.000 -0.8539 -1.4751 -1.3683
 5861TIP3   OH239073   4.904   3.834   5.585  0.6833 -0.5707  0.1544
 5861TIP3    H139074   4.886   3.831   5.678  0.4343 -2.0718  0.0684
 5861TIP3    H239075   4.900   3.743   5.556  1.1671 -0.1729 -1.2418
 5862TIP3   OH239076   6.384   0.510  12.619  0.1266 -0.0325 -0.2641
 5862TIP3    H139077   6.424   0.563  12.688 -0.0856 -0.7571  0.4241
 5862TIP3    H239078   6.450   0.444  12.598 -0.7142 -1.2671  0.9152
 5863TIP3   OH239079   3.299   2.907   1.213  0.3217  0.0560 -0.0646
 5863TIP3    H139080   3.328   2.816   1.220  0.3659 -0.0499 -1.4390
 5863TIP3    H239081   3.217   2.910   1.263 -0.0667 -0.9168 -0.6381
 5864TIP3   OH239082   3.463   6.231  16.349 -0.0359  0.6398  0.2918
 5864TIP3    H139083   3.392   6.199  16.293  1.1212  2.4227 -2.2723
 5864TIP3    H239084   3.543   6.201  16.305  0.8645  0.4980  1.9951
 5865TIP3   OH239085   5.012   6.104   1.384 -0.0237  0.3705  0.1581
 5865TIP3    H139086   5.011   6.053   1.303  0.3367  1.0246 -0.2664
 5865TIP3    H239087   5.050   6.188   1.358 -0.5602  0.8315  0.8611
 5866TIP3   OH239088   5.316   3.077  16.900 -0.2240 -0.3724 -0.5290
 5866TIP3    H139089   5.406   3.068  16.933 -0.1655 -1.1225 -0.8873
 5866TIP3    H239090   5.309   3.011  16.831 -1.0932 -0.4151 -0.4052
 5867TIP3   OH239091   2.014   0.965   2.175 -0.3369  0.3960  0.2265
 5867TIP3    H139092   1.968   0.976   2.258 -0.7828  0.1316  0.0181
 5867TIP3    H239093   1.972   1.027   2.116  0.5505  1.1916  0.4260
 5868TIP3   OH239094   4.762   5.023  15.862 -0.0410  0.5740 -0.2096
 5868TIP3    H139095   4.758   5.091  15.929  0.2543 -0.3561  0.7718
 5868TIP3    H239096   4.707   4.952  15.897  0.8584 -0.2829 -0.5096
 5869TIP3   OH239097   5.790   5.878   0.309 -0.3354  0.2001  0.4053
 5869TIP3    H139098   5.730   5.869   0.383  0.7219  0.1004  1.2726
 5869TIP3    H239099   5.735   5.868   0.231 -1.6137  1.1719  1.1646
 5870TIP3   OH239100   4.357   4.030   4.436  0.1647 -0.0469 -0.6653
 5870TIP3    H139101   4.274   3.999   4.472  0.7328  0.4794  1.1836
 5870TIP3    H239102   4.336   4.115   4.398 -0.4451 -0.5918 -1.5533
 5871TIP3   OH239103   0.820   5.801  12.198 -0.4725 -0.7249 -0.8209
 5871TIP3    H139104   0.735   5.803  12.242 -0.1025  0.1862 -0.1329
 5871TIP3    H239105   0.804   5.836  12.111 -0.8304 -0.7264 -0.7535
 5872TIP3   OH239106   4.335   3.228   2.794  0.1796  0.6193  0.3499
 5872TIP3    H139107   4.313   3.135   2.783  0.8759  0.1461  2.6771
 5872TIP3    H239108   4.306   3.249   2.883  2.4576  1.9111  0.8218
 5873TIP3   OH239109   1.545   2.565   1.287 -0.0382  0.1803 -0.0560
 5873TIP3    H139110   1.638   2.541   1.288  0.5950  2.4796 -0.4091
 5873TIP3    H239111   1.545   2.660   1.278 -2.4489  0.1993 -0.2136
 5874TIP3   OH239112   1.051   5.576   6.075 -0.4550 -0.4076  0.5825
 5874TIP3    H139113   1.123   5.533   6.121  0.3395  0.6545  0.3380
 5874TIP3    H239114   1.093   5.635   6.012 -1.5371 -0.6686 -0.3980
 5875TIP3   OH239115   4.497   0.302   1.194  0.3763  0.1426 -0.1384
 5875TIP3    H139116   4.519   0.352   1.115  0.7277  0.5919  0.2384
 5875TIP3    H239117   4.556   0.336   1.261 -0.7012  0.5787  0.6080
 5876TIP3   OH239118   2.772   1.006  16.432  0.1487  0.7020 -0.0886
 5876TIP3    H139119   2.707   1.004  16.502 -1.8606  0.9283 -1.9124
 5876TIP3    H239120   2.835   1.073  16.460  1.5118 -1.8599  3.2952
 5877TIP3   OH239121   5.766   6.394  15.382  0.2380  0.7025 -0.1902
 5877TIP3    H139122   5.785   6.305  15.411  1.0031  0.7746 -0.4616
 5877TIP3    H239123   5.704   6.382  15.309 -2.3951  0.5626  1.9688
 5878TIP3   OH239124   2.164   0.116   4.312 -0.6057  0.2174 -0.1652
 5878TIP3    H139125   2.131   0.050   4.372 -2.4318  0.4477 -0.8737
 5878TIP3    H239126   2.139   0.199   4.352 -0.2625  0.4117 -0.3560
 5879TIP3   OH239127   4.419   2.552   0.431  0.1517  0.3010 -0.2075
 5879TIP3    H139128   4.353   2.490   0.399 -0.6062  1.1814 -0.3738
 5879TIP3    H239129   4.497   2.534   0.378 -0.4276  0.2780 -1.0529
 5880TIP3   OH239130   4.664   6.758  15.657 -0.7717 -0.3348  0.6449
 5880TIP3    H139131   4.682   6.844  15.619  2.7564  0.4203  3.7073
 5880TIP3    H239132   4.604   6.776  15.729 -0.6975 -0.5622  0.7622
 5881TIP3   OH239133   2.007   1.944   0.152  0.4209  0.1241  0.1760
 5881TIP3    H139134   1.966   1.917   0.234 -0.2272  0.1028 -0.1574
 5881TIP3    H239135   1.939   1.933   0.085  1.1215 -0.4223 -0.4641
 5882TIP3   OH239136   6.092   4.866  14.332  0.1119 -0.0932 -0.3395
 5882TIP3    H139137   6.186   4.850  14.331 -0.0948 -1.3346 -0.6204
 5882TIP3    H239138   6.081   4.947  14.282  1.0600  0.2651  0.0217
 5883TIP3   OH239139   6.243   0.199  11.892 -0.1094  0.4209 -0.9175
 5883TIP3    H139140   6.149   0.193  11.872  0.0111  1.0610 -1.7454
 5883TIP3    H239141   6.279   0.248  11.818  0.2516  3.6078  1.2528
 5884TIP3   OH239142   6.228   3.433  12.310  0.9859 -0.2469 -0.4867
 5884TIP3    H139143   6.318   3.410  12.333  0.9004  0.1253  0.2394
 5884TIP3    H239144   6.226   3.432  12.214  2.4288  2.2610 -0.5879
 5885TIP3   OH239145   2.012   2.352   4.751  0.3971 -0.3038 -0.0834
 5885TIP3    H139146   2.028   2.268   4.795  0.6815 -0.8479 -1.1851
 5885TIP3    H239147   2.100   2.385   4.731  0.2762  0.1037  0.0560
 5886TIP3   OH239148   0.277   3.597  10.783 -0.0900  0.1614  0.7861
 5886TIP3    H139149   0.194   3.644  10.783 -2.0031 -3.0204  1.8542
 5886TIP3    H239150   0.287   3.565  10.693  0.8960  1.9760  0.2223
 5887TIP3   OH239151   3.951   0.451  15.163  0.0158  0.4364 -0.0089
 5887TIP3    H139152   3.974   0.544  15.156 -0.2817  0.4566 -0.7174
 5887TIP3    H239153   3.862   0.445  15.129 -0.2096 -0.0103  0.6442
 5888TIP3   OH239154   4.504   1.963  12.973  0.4657  0.1709 -0.1133
 5888TIP3    H139155   4.551   1.911  12.908  0.0299  0.3492 -0.5808
 5888TIP3    H239156   4.566   2.032  12.998  1.1964 -0.8111  0.8263
 5889TIP3   OH239157   3.379   0.880  14.045  0.0806  0.5233  0.1659
 5889TIP3    H139158   3.290   0.898  14.015  0.5784  4.5351  0.7262
 5889TIP3    H239159   3.370   0.861  14.138 -0.3780 -1.1490 -0.2108
 5890TIP3   OH239160   6.605   3.408  15.449  0.1959 -1.1201  0.9703
 5890TIP3    H139161   6.608   3.312  15.458  1.0781 -1.0125  2.0297
 5890TIP3    H239162   6.522   3.433  15.490 -1.0908 -1.6094 -1.2770
 5891TIP3   OH239163   2.740   3.570  13.266 -0.1577 -0.0012 -0.3681
 5891TIP3    H139164   2.726   3.491  13.318 -0.4119 -0.6504 -1.4140
 5891TIP3    H239165   2.797   3.625  13.320  0.0551 -0.9124  0.3386
 5892TIP3   OH239166   0.064   6.468  13.724  0.1716  0.4334 -0.4654
 5892TIP3    H139167   0.036   6.423  13.645  2.4890 -0.2310 -0.9535
 5892TIP3    H239168  -0.001   6.443  13.790 -0.0145 -1.5828 -1.3632
 5893TIP3   OH239169   0.539   5.064   3.805 -0.0765 -0.0289 -0.0494
 5893TIP3    H139170   0.477   5.075   3.877  1.3734 -0.8705  1.3433
 5893TIP3    H239171   0.497   4.998   3.748 -1.0742  0.4071  0.1605
 5894TIP3   OH239172   6.569   2.328  15.034 -0.0609  0.2552 -0.4017
 5894TIP3    H139173   6.608   2.263  14.975 -0.2097  0.0819 -0.3089
 5894TIP3    H239174   6.626   2.404  15.026 -0.8340  0.6943 -1.7866
 5895TIP3   OH239175   6.814   0.562   1.795  0.2916  0.1824  0.2352
 5895TIP3    H139176   6.872   0.522   1.730 -2.7739 -3.0253 -0.6877
 5895TIP3    H239177   6.794   0.648   1.759  2.0237  0.1398 -0.9162
 5896TIP3   OH239178   5.682   2.700   2.830  0.0498  0.1249 -0.3440
 5896TIP3    H139179   5.604   2.744   2.794 -0.4048 -0.0198  0.4561
 5896TIP3    H239180   5.720   2.764   2.890 -1.9551 -1.3945  2.6568
 5897TIP3   OH239181   1.238   3.043   0.325  0.6389  0.2288  0.0540
 5897TIP3    H139182   1.287   2.987   0.264  0.1136  1.3816 -1.4637
 5897TIP3    H239183   1.204   3.113   0.270 -3.8743 -1.2264  0.7569
 5898TIP3   OH239184   6.412   6.048   4.115  0.0222  0.6327  0.7864
 5898TIP3    H139185   6.406   6.078   4.024  1.3073 -1.4402 -0.0176
 5898TIP3    H239186   6.360   6.111   4.164 -0.0997  2.2099 -1.2862
 5899TIP3   OH239187   1.695   1.790   4.091 -0.0593  0.9577 -0.5964
 5899TIP3    H139188   1.672   1.859   4.152 -1.0197  0.3929 -0.3028
 5899TIP3    H239189   1.656   1.817   4.008  0.6820  1.4044 -0.7981
 5900TIP3   OH239190   5.995   6.637   3.100 -0.1166  0.2610  0.8392
 5900TIP3    H139191   5.935   6.706   3.128 -0.0727  0.7304 -0.1811
 5900TIP3    H239192   5.938   6.569   3.064 -0.0473  0.8852 -0.5147
 5901TIP3   OH239193   2.612   0.913   4.718 -0.3354  0.7692  0.2768
 5901TIP3    H139194   2.617   0.933   4.625 -0.1308  1.6498  0.4698
 5901TIP3    H239195   2.565   0.830   4.723 -0.4593  0.7870 -0.6017
 5902TIP3   OH239196   0.617   2.405  11.970  0.4055 -0.0604 -0.4579
 5902TIP3    H139197   0.528   2.371  11.965 -0.3222  1.9371 -2.0229
 5902TIP3    H239198   0.663   2.364  11.897  0.2143  0.4154 -0.8465
 5903TIP3   OH239199   1.096   4.269   6.492 -0.1810 -0.1029 -0.2066
 5903TIP3    H139200   1.177   4.311   6.521  0.1706 -0.5488 -0.5473
 5903TIP3    H239201   1.112   4.244   6.401 -0.9572  0.4624 -0.5081
 5904TIP3   OH239202   0.699   2.647   5.364  0.6029 -0.0302 -0.0530
 5904TIP3    H139203   0.761   2.594   5.314  0.3197  0.4256 -0.9010
 5904TIP3    H239204   0.730   2.640   5.455  2.2434  0.6845 -0.5391
 5905TIP3   OH239205   1.583   2.885   0.544 -0.2149  0.2787 -0.4615
 5905TIP3    H139206   1.492   2.886   0.514  0.3659  1.4657 -2.2395
 5905TIP3    H239207   1.586   2.951   0.614 -0.3098  1.6117 -1.6960
 5906TIP3   OH239208   4.674   2.473   5.006  0.1070  0.4635  0.8916
 5906TIP3    H139209   4.602   2.473   5.070 -1.4400  0.6149 -0.8216
 5906TIP3    H239210   4.737   2.411   5.041 -1.3099 -0.4232  1.9286
 5907TIP3   OH239211   1.184   5.535   4.214 -0.0955 -0.0325  0.0084
 5907TIP3    H139212   1.278   5.523   4.226 -0.1252  0.8857  1.3047
 5907TIP3    H239213   1.143   5.470   4.271 -0.2458 -0.7384 -0.9043
 5908TIP3   OH239214   0.976   4.108  12.000 -0.1545 -0.0438  0.3778
 5908TIP3    H139215   0.959   4.202  12.004  0.3772 -0.0072  2.2547
 5908TIP3    H239216   0.970   4.078  12.091  0.5264 -1.6673 -0.0900
 5909TIP3   OH239217   3.658   2.239   5.237 -0.3823 -0.3397 -0.8452
 5909TIP3    H139218   3.745   2.220   5.270 -1.3445 -0.9576  1.4463
 5909TIP3    H239219   3.646   2.180   5.163  1.3152  0.1232 -1.5104
 5910TIP3   OH239220   0.800   6.695   4.752  0.4534  0.2625  0.1602
 5910TIP3    H139221   0.795   6.605   4.783 -0.9248  0.2026 -0.2014
 5910TIP3    H239222   0.721   6.707   4.700  3.1185  0.1008 -4.1503
 5911TIP3   OH239223   1.140   0.366   2.471 -0.5041 -0.3646 -0.2670
 5911TIP3    H139224   1.073   0.385   2.537 -0.8019 -0.9561 -0.3930
 5911TIP3    H239225   1.212   0.326   2.522 -0.2699  0.2075 -0.1421
 5912TIP3   OH239226   4.054   2.828   2.180 -0.2807 -0.0014 -0.6444
 5912TIP3    H139227   4.136   2.860   2.142  0.2147 -1.5870 -0.9295
 5912TIP3    H239228   4.047   2.738   2.150 -1.0918 -0.5291  1.0693
 5913TIP3   OH239229   2.410   5.858   2.836 -0.0351  0.0958 -0.2956
 5913TIP3    H139230   2.401   5.941   2.882  0.4386 -0.4630  0.8032
 5913TIP3    H239231   2.453   5.881   2.753  0.0105  0.9513 -0.0332
 5914TIP3   OH239232   2.867   3.111  13.547 -0.3125 -0.5182 -0.6217
 5914TIP3    H139233   2.787   3.092  13.598  0.1272 -0.4313  0.1031
 5914TIP3    H239234   2.920   3.165  13.605  1.3320 -2.5682 -0.1530
 5915TIP3   OH239235   3.559   3.547  13.837  0.1841  0.2320 -0.1519
 5915TIP3    H139236   3.607   3.624  13.806  2.7561 -0.4718  1.9713
 5915TIP3    H239237   3.560   3.555  13.932 -0.7959 -1.6869  0.0348
 5916TIP3   OH239238   0.679   0.469   2.057  0.5080  0.3836 -0.1367
 5916TIP3    H139239   0.707   0.466   1.966 -1.3259  0.4846 -0.7337
 5916TIP3    H239240   0.629   0.389   2.070  0.1447  0.7098  0.5648
 5917TIP3   OH239241   1.091   2.370  11.564 -0.2416 -0.0153  0.4735
 5917TIP3    H139242   1.079   2.282  11.528  0.0222  0.9147 -1.9701
 5917TIP3    H239243   1.028   2.424  11.518  0.0596  1.2289  1.4785
 5918TIP3   OH239244   2.312   3.686  13.557 -0.1883  0.4797  0.4406
 5918TIP3    H139245   2.220   3.684  13.583 -0.2408  0.0800  0.2267
 5918TIP3    H239246   2.361   3.674  13.638 -0.3451 -0.4184  0.4092
 5919TIP3   OH239247   0.582   2.987  11.667  0.0158 -0.2387  0.8223
 5919TIP3    H139248   0.510   3.027  11.717 -1.0068 -0.0829 -0.7190
 5919TIP3    H239249   0.541   2.963  11.583  2.3205  2.1485 -1.0658
 5920TIP3   OH239250   5.508   2.621  12.969 -0.1241  0.6225  0.0575
 5920TIP3    H139251   5.442   2.651  12.907 -0.6436  0.6467  0.6234
 5920TIP3    H239252   5.459   2.573  13.036  0.4580  0.4055  0.3333
 5921TIP3   OH239253   6.697   0.803   1.369 -0.7719  0.0999 -0.0701
 5921TIP3    H139254   6.761   0.735   1.347 -0.0222  1.0128 -0.7516
 5921TIP3    H239255   6.707   0.816   1.463 -0.2549 -0.0711 -0.0983
 5922TIP3   OH239256   6.713   2.843   3.237  0.1255  0.1303  0.5133
 5922TIP3    H139257   6.673   2.890   3.309 -1.1243 -0.7332  0.3926
 5922TIP3    H239258   6.732   2.910   3.172 -0.4992  0.6471  0.8605
 5923TIP3   OH239259   4.379   0.282  15.869 -0.0763  1.0178  0.2768
 5923TIP3    H139260   4.461   0.328  15.849 -0.8041  1.9904 -0.5527
 5923TIP3    H239261   4.311   0.335  15.827 -1.3786  1.5111  2.8818
 5924TIP3   OH239262   2.507   1.445   2.506  0.1970  0.5746  0.5855
 5924TIP3    H139263   2.507   1.442   2.602 -0.4487  0.1646  0.5757
 5924TIP3    H239264   2.520   1.354   2.479 -1.2309  0.4518  0.2859
 5925TIP3   OH239265   4.247   3.929  15.174 -0.2395 -0.4823 -0.0407
 5925TIP3    H139266   4.280   3.921  15.085 -0.8801  0.5105 -0.3735
 5925TIP3    H239267   4.261   4.021  15.197  1.3795 -1.0710  1.4629
 5926TIP3   OH239268   3.201   5.454  11.432  0.5700  0.2674 -0.4703
 5926TIP3    H139269   3.110   5.480  11.443  0.0420 -1.0397 -1.5066
 5926TIP3    H239270   3.249   5.503  11.498 -0.9800  0.4884  0.5068
 5927TIP3   OH239271   1.575   5.513   5.132 -0.0422 -0.1932 -0.2196
 5927TIP3    H139272   1.660   5.503   5.089 -0.5785  2.3164 -2.0217
 5927TIP3    H239273   1.594   5.510   5.225  1.6681 -2.1627 -0.6063
 5928TIP3   OH239274   3.954   0.984   1.479 -0.1110 -0.0456 -0.0407
 5928TIP3    H139275   4.016   0.973   1.407  0.2694 -1.8534  0.5505
 5928TIP3    H239276   3.920   1.073   1.467 -0.7170 -0.6269 -2.9561
 5929TIP3   OH239277   2.462   3.097  11.583  0.1062 -0.4935  0.3311
 5929TIP3    H139278   2.495   3.183  11.559  0.3512 -0.7534 -0.2916
 5929TIP3    H239279   2.370   3.111  11.603  0.0516 -0.1524 -0.1515
 5930TIP3   OH239280   3.079   3.818   1.091  0.1454  0.1690  0.3779
 5930TIP3    H139281   3.033   3.736   1.072  0.4399 -0.4469  2.2072
 5930TIP3    H239282   3.048   3.879   1.025 -1.4807 -0.9067  0.1239
 5931TIP3   OH239283   6.540   5.523   0.993 -0.3906  0.1864 -0.2384
 5931TIP3    H139284   6.496   5.449   0.951 -0.7110 -1.6957  3.2567
 5931TIP3    H239285   6.490   5.600   0.965 -3.1290 -1.4466  0.0424
 5932TIP3   OH239286   4.451   3.304  15.887 -0.4510 -0.4460  0.7871
 5932TIP3    H139287   4.431   3.356  15.965 -0.1269 -1.4654  1.5626
 5932TIP3    H239288   4.440   3.365  15.814  0.1954  0.7820  1.6917
 5933TIP3   OH239289   0.635   0.544  12.536 -0.8872  0.6767 -0.5454
 5933TIP3    H139290   0.637   0.639  12.544 -1.1918  0.7058 -0.7937
 5933TIP3    H239291   0.642   0.527  12.442 -0.9426  0.4588 -0.5118
 5934TIP3   OH239292   3.650   0.645  15.920 -0.0513  0.0988 -0.1072
 5934TIP3    H139293   3.673   0.648  16.013  1.5585  1.5113 -0.5283
 5934TIP3    H239294   3.645   0.736  15.893 -1.8360 -0.2622 -1.1228
 5935TIP3   OH239295   6.525   3.602   5.032  0.3600  0.2605 -0.2378
 5935TIP3    H139296   6.452   3.659   5.053 -0.4346 -1.0833  0.7755
 5935TIP3    H239297   6.586   3.657   4.984  0.1534  2.2619  1.7184
 5936TIP3   OH239298   4.714   3.925   0.034 -0.0274 -0.0933  0.0441
 5936TIP3    H139299   4.651   3.981   0.080  0.6232  0.5283  0.1972
 5936TIP3    H239300   4.765   3.884   0.104  0.2751  0.0428 -0.0979
 5937TIP3   OH239301   2.438   3.845  13.747  0.1913 -0.0474  0.1453
 5937TIP3    H139302   2.374   3.902  13.704 -0.5083 -0.6194  0.4162
 5937TIP3    H239303   2.504   3.829  13.680 -0.2394  0.0931 -0.3193
 5938TIP3   OH239304   5.195   3.647  15.935 -0.2536 -0.7129 -0.1853
 5938TIP3    H139305   5.263   3.593  15.894  1.4666  0.7952  0.6022
 5938TIP3    H239306   5.208   3.734  15.897 -1.1414 -0.1969  0.6777
 5939TIP3   OH239307   4.141   2.610  11.114  0.3218 -0.0048 -0.0089
 5939TIP3    H139308   4.157   2.517  11.127  1.4446 -0.0340 -1.5359
 5939TIP3    H239309   4.214   2.653  11.158 -0.2511  0.1837  0.7852
 5940TIP3   OH239310   3.087   6.770  15.903  0.0912 -0.2244 -0.5991
 5940TIP3    H139311   3.168   6.797  15.859 -0.2454  0.4987 -0.7949
 5940TIP3    H239312   3.069   6.683  15.870  1.2017 -0.7012  0.0233
 5941TIP3   OH239313   1.704   6.756  11.782  0.4033 -0.7026  0.4478
 5941TIP3    H139314   1.701   6.804  11.866 -0.8226 -0.2879  0.1793
 5941TIP3    H239315   1.663   6.672  11.801 -1.1987 -0.0431 -0.0919
 5942TIP3   OH239316   1.929   1.772   6.179  0.5301  0.3595  0.4062
 5942TIP3    H139317   1.856   1.831   6.160  0.4379  0.8414  2.1725
 5942TIP3    H239318   1.890   1.701   6.229  0.5610 -1.4766 -2.1002
 5943TIP3   OH239319   3.629   5.948  11.395  0.0458  0.3437 -0.0172
 5943TIP3    H139320   3.545   5.923  11.433  0.3789 -2.0265 -0.7218
 5943TIP3    H239321   3.607   6.012  11.327 -0.8786  1.9219  1.7149
 5944TIP3   OH239322   3.846   2.310  15.922 -1.1703 -0.0632 -0.3803
 5944TIP3    H139323   3.900   2.252  15.976 -0.9882  0.3883 -0.0732
 5944TIP3    H239324   3.758   2.303  15.959 -0.9903  0.4632  0.1605
 5945TIP3   OH239325   4.089   1.127   5.551  0.7357  0.3645 -0.3015
 5945TIP3    H139326   4.026   1.140   5.480 -0.8210 -1.7478  0.6537
 5945TIP3    H239327   4.142   1.053   5.522  0.9383  0.3205  0.1750
 5946TIP3   OH239328   2.534   4.051   0.743  0.2284 -0.4109  0.0850
 5946TIP3    H139329   2.443   4.021   0.756  0.0909 -0.8479 -1.8058
 5946TIP3    H239330   2.525   4.142   0.717  0.1967 -1.0567 -2.2353
 5947TIP3   OH239331   6.622   5.132   1.587 -0.5060  0.2288  0.4853
 5947TIP3    H139332   6.635   5.057   1.529 -1.2828 -0.7263  1.5248
 5947TIP3    H239333   6.617   5.207   1.529  0.4798 -0.5039 -0.5584
 5948TIP3   OH239334   4.906   0.530  13.301  0.1665  0.0130 -0.1205
 5948TIP3    H139335   4.904   0.626  13.300 -1.0779 -0.0014 -1.6811
 5948TIP3    H239336   4.890   0.505  13.209  0.9459 -1.6797  0.1890
 5949TIP3   OH239337   0.392   3.286  16.065  0.3935  0.1415  0.3252
 5949TIP3    H139338   0.410   3.329  15.982 -0.0081  0.6717  0.5110
 5949TIP3    H239339   0.445   3.333  16.129 -0.2042  0.4989  0.5615
 5950TIP3   OH239340   0.125   5.808  16.807 -0.0973 -0.4784  0.0127
 5950TIP3    H139341   0.110   5.720  16.773 -2.0048 -0.3380  0.4370
 5950TIP3    H239342   0.207   5.802  16.855  0.0523 -1.9005 -0.4004
 5951TIP3   OH239343   5.582   6.691  12.326  0.8122 -0.5238 -0.0091
 5951TIP3    H139344   5.594   6.596  12.335 -0.1102 -0.6706 -0.3596
 5951TIP3    H239345   5.556   6.704  12.234 -1.8090 -0.2123  0.7401
 5952TIP3   OH239346   2.627   3.389   3.037  0.2360 -0.1234  0.0936
 5952TIP3    H139347   2.687   3.345   2.976  0.0908 -2.2470  1.4296
 5952TIP3    H239348   2.599   3.320   3.097 -2.4901  1.1339  0.3373
 5953TIP3   OH239349   5.868   5.369  15.640  0.4001 -0.5519 -1.1402
 5953TIP3    H139350   5.890   5.277  15.651 -0.5391 -0.6724 -0.2074
 5953TIP3    H239351   5.949   5.416  15.660  0.4824 -1.1046 -0.1453
 5954TIP3   OH239352   6.411   6.675   3.929 -0.2555  0.4263  0.3137
 5954TIP3    H139353   6.354   6.743   3.894  1.0822  1.0142 -0.7793
 5954TIP3    H239354   6.384   6.665   4.020 -1.8184  0.9735 -0.0786
 5955TIP3   OH239355   1.431   2.055   3.367 -0.4200 -0.2041 -0.4944
 5955TIP3    H139356   1.522   2.056   3.340 -0.6987  0.7766 -1.4164
 5955TIP3    H239357   1.416   2.140   3.408 -0.7194 -0.6442  0.3182
 5956TIP3   OH239358   2.437   5.440  11.053  0.1498 -0.1013 -0.7015
 5956TIP3    H139359   2.461   5.396  11.136 -1.8227 -1.9927 -1.0812
 5956TIP3    H239360   2.494   5.398  10.988 -0.6175 -0.9862 -0.8129
 5957TIP3   OH239361   6.299   2.186  16.583 -0.4396  0.2369 -0.1662
 5957TIP3    H139362   6.379   2.200  16.533 -0.2884  1.5452  0.4240
 5957TIP3    H239363   6.232   2.238  16.538 -0.9610 -0.8396 -0.6501
 5958TIP3   OH239364   1.445   3.413   3.414  0.0850  0.6272 -0.1250
 5958TIP3    H139365   1.510   3.438   3.480 -0.0155 -0.4583  0.4003
 5958TIP3    H239366   1.363   3.407   3.463 -0.1423  0.5727 -0.5103
 5959TIP3   OH239367   5.702   0.171  15.182  0.5122  0.1016 -0.6924
 5959TIP3    H139368   5.688   0.080  15.207 -1.4641  0.3619 -0.7774
 5959TIP3    H239369   5.672   0.221  15.258  2.1075  0.6798 -0.4232
 5960TIP3   OH239370   0.643   6.800  17.243  0.3462 -0.5689 -0.1480
 5960TIP3    H139371   0.706   6.791  17.314 -0.3765 -1.5289  0.3895
 5960TIP3    H239372   0.674   6.875  17.192  0.1922  0.8874  1.8622
 5961TIP3   OH239373   4.780   1.604   6.107 -0.2294  0.3512  0.1501
 5961TIP3    H139374   4.783   1.535   6.173  0.9234  0.1437 -0.1146
 5961TIP3    H239375   4.785   1.557   6.024 -1.2622  0.6369 -0.0797
 5962TIP3   OH239376   5.294   5.758  16.143 -0.1722  0.9698 -0.1508
 5962TIP3    H139377   5.217   5.784  16.195 -0.2111  1.2076 -0.3256
 5962TIP3    H239378   5.300   5.824  16.074  0.3344  1.0880  0.0044
 5963TIP3   OH239379   0.473   0.191   3.661 -0.2257 -0.1077 -0.0585
 5963TIP3    H139380   0.491   0.258   3.596 -1.6073  1.3065  0.9954
 5963TIP3    H239381   0.390   0.152   3.634  0.2247 -0.9340 -0.2773
 5964TIP3   OH239382   3.746   5.562   6.245  0.1263  0.6798  0.3871
 5964TIP3    H139383   3.665   5.517   6.221 -0.5437  1.2438  1.5517
 5964TIP3    H239384   3.717   5.640   6.292  1.2465  2.6242 -1.9928
 5965TIP3   OH239385   6.302   1.215  12.350 -0.0408 -0.2199 -0.7916
 5965TIP3    H139386   6.377   1.274  12.355  0.5470 -0.9563 -0.8365
 5965TIP3    H239387   6.232   1.269  12.312  0.0091  0.9038  0.6760
 5966TIP3   OH239388   3.925   2.654  15.941  0.0194  0.0004  0.2577
 5966TIP3    H139389   3.939   2.728  15.882  2.1373  0.6836  1.5647
 5966TIP3    H239390   3.999   2.596  15.925 -1.0921 -1.3745 -0.0280
 5967TIP3   OH239391   2.621   5.499   4.539  0.0181 -0.5019 -0.4827
 5967TIP3    H139392   2.547   5.463   4.490  0.7084 -0.1814 -1.7825
 5967TIP3    H239393   2.584   5.569   4.592 -0.7184 -0.7849 -0.6271
 5968TIP3   OH239394   2.216   3.060  13.368 -0.2012  0.7604 -0.2198
 5968TIP3    H139395   2.142   3.000  13.364  0.1527  0.2106  1.1960
 5968TIP3    H239396   2.265   3.043  13.288 -1.8331  1.4593 -1.4070
 5969TIP3   OH239397   6.746   5.851   2.055 -0.1692 -0.5570 -0.2856
 5969TIP3    H139398   6.718   5.833   1.965  2.6871  2.5098 -1.9436
 5969TIP3    H239399   6.832   5.810   2.062 -0.5864 -1.1965  1.2345
 5970TIP3   OH239400   6.797   1.501  15.768  0.2227 -0.2989 -0.3185
 5970TIP3    H139401   6.799   1.526  15.676  0.3146 -0.0887 -0.2577
 5970TIP3    H239402   6.852   1.422  15.773  0.5172 -0.0951 -0.3759
 5971TIP3   OH239403   1.148   5.286  13.803 -0.0417 -0.1818  0.1293
 5971TIP3    H139404   1.182   5.197  13.798  0.2029 -0.2029  1.6879
 5971TIP3    H239405   1.203   5.336  13.743  1.8127 -0.5176  1.4822
 5972TIP3   OH239406   5.133   3.258  16.874  0.2598  0.3352  0.5185
 5972TIP3    H139407   5.215   3.214  16.854  1.1666  2.2125 -0.0045
 5972TIP3    H239408   5.072   3.228  16.806  1.0043  0.3156 -0.1391
 5973TIP3   OH239409   0.622   4.709   1.918 -0.1183  0.0154 -0.0630
 5973TIP3    H139410   0.673   4.774   1.871 -1.6003  1.0517 -0.2859
 5973TIP3    H239411   0.578   4.658   1.850 -0.4081 -0.0144  0.1421
 5974TIP3   OH239412   6.003   4.500   4.061 -0.0694 -0.1477  0.4612
 5974TIP3    H139413   6.087   4.469   4.095 -0.0150 -0.3411  0.1536
 5974TIP3    H239414   6.007   4.482   3.967 -0.2770  0.2494  0.3754
 5975TIP3   OH239415   3.494   1.368  16.931 -0.1735  0.1849  0.0447
 5975TIP3    H139416   3.492   1.276  16.905 -0.6164 -0.2534  1.5928
 5975TIP3    H239417   3.587   1.389  16.939 -0.0723 -0.0970 -0.4288
 5976TIP3   OH239418   2.024   5.326  10.746  0.0189  0.0144  0.0957
 5976TIP3    H139419   2.106   5.374  10.737  0.0948  0.2400  1.7380
 5976TIP3    H239420   2.007   5.289  10.659 -0.0105  2.9486 -1.1850
 5977TIP3   OH239421   4.775   0.146  13.542  0.5810  0.0829  0.1494
 5977TIP3    H139422   4.722   0.219  13.509  0.7332  0.0220 -0.2392
 5977TIP3    H239423   4.865   0.168  13.515  0.8765  0.6011  1.5442
 5978TIP3   OH239424   6.507   2.044  15.227  0.2290 -0.8885  0.3181
 5978TIP3    H139425   6.469   1.959  15.249 -1.3333 -0.3498 -0.1853
 5978TIP3    H239426   6.432   2.097  15.199  1.3367  0.2909 -0.4883
 5979TIP3   OH239427   1.274   2.313  17.041 -0.1273 -0.0500 -0.0064
 5979TIP3    H139428   1.182   2.340  17.039 -0.3407 -0.8596 -1.2783
 5979TIP3    H239429   1.323   2.396  17.046 -0.9041  0.3908  0.4578
 5980TIP3   OH239430   0.790   2.875  15.473  0.2584  0.0774 -0.2313
 5980TIP3    H139431   0.817   2.823  15.396 -1.3210 -1.7798  0.4262
 5980TIP3    H239432   0.706   2.837  15.498 -0.7410  2.7456  0.5366
 5981TIP3   OH239433   6.712   4.740   0.935 -0.2497 -0.3955  0.0353
 5981TIP3    H139434   6.699   4.819   0.883 -0.5098 -0.6063 -0.2184
 5981TIP3    H239435   6.736   4.673   0.871 -2.9656 -1.2719 -0.1319
 5982TIP3   OH239436   6.734   6.649  15.556  0.2401 -0.6407  0.4762
 5982TIP3    H139437   6.641   6.627  15.556 -0.2600  1.2108 -2.5059
 5982TIP3    H239438   6.768   6.613  15.474  1.3086  1.9068 -0.2597
 5983TIP3   OH239439   1.090   4.152  14.514 -0.0423  0.1709 -0.4620
 5983TIP3    H139440   1.165   4.207  14.538  1.4404 -2.2425  0.5442
 5983TIP3    H239441   1.087   4.157  14.418  1.0110  0.8030 -0.4696
 5984TIP3   OH239442   3.409   0.322  11.128  0.0339  0.6823 -0.0264
 5984TIP3    H139443   3.334   0.262  11.133  0.8689 -0.3427  0.3660
 5984TIP3    H239444   3.432   0.338  11.219  0.1022  1.2490 -0.1421
 5985TIP3   OH239445   5.805   1.617   6.367  0.3545 -0.2796  0.3264
 5985TIP3    H139446   5.771   1.529   6.383  0.1293 -0.0044  1.3967
 5985TIP3    H239447   5.893   1.616   6.406 -0.6144  0.7307  2.5933
 5986TIP3   OH239448   3.680   4.271  12.513  0.6516  0.0669 -0.0187
 5986TIP3    H139449   3.767   4.258  12.476  0.4782  0.0055 -0.4149
 5986TIP3    H239450   3.653   4.184  12.542  0.9875  0.2056  0.6936
 5987TIP3   OH239451   0.953   6.721  13.444  0.2674 -0.4439 -0.5775
 5987TIP3    H139452   1.033   6.676  13.471 -0.5415 -1.2984  0.4478
 5987TIP3    H239453   0.961   6.809  13.482  0.3291 -0.8025  0.2560
 5988TIP3   OH239454   4.889   6.225   1.075 -0.1287 -0.0491  0.1067
 5988TIP3    H139455   4.886   6.129   1.079  0.9360 -0.0413  1.7773
 5988TIP3    H239456   4.839   6.254   1.152  0.9910  0.6869  0.5710
 5989TIP3   OH239457   1.416   2.967   3.919 -0.1076  0.4025 -0.6353
 5989TIP3    H139458   1.343   2.979   3.857 -1.2564 -0.0066  0.6320
 5989TIP3    H239459   1.455   2.883   3.894 -0.3419  0.4071 -1.0283
 5990TIP3   OH239460   2.265   1.497  10.683  0.1108  0.2476  0.5868
 5990TIP3    H139461   2.219   1.580  10.690  0.3800  0.4616 -0.1913
 5990TIP3    H239462   2.307   1.499  10.597 -0.4142 -0.9681  0.2883
 5991TIP3   OH239463   0.652   1.959  14.376 -0.2419  0.3995 -0.6075
 5991TIP3    H139464   0.599   2.009  14.438  0.2397 -1.1363  1.0940
 5991TIP3    H239465   0.588   1.910  14.325 -0.5561 -0.6420  0.7388
 5992TIP3   OH239466   2.697   1.509  17.186 -0.2057  0.3529 -0.6287
 5992TIP3    H139467   2.611   1.467  17.180  0.6432 -1.2953 -1.4997
 5992TIP3    H239468   2.758   1.443  17.153  1.3530  1.6513 -0.3733
 5993TIP3   OH239469   4.684   2.338  14.277  0.4707 -0.9767 -0.2707
 5993TIP3    H139470   4.717   2.375  14.196 -0.9095 -0.5640 -0.6544
 5993TIP3    H239471   4.621   2.271  14.249 -1.4457  0.4920  0.4637
 5994TIP3   OH239472   0.963   0.007   6.295 -1.0508  0.6011 -0.2755
 5994TIP3    H139473   1.048  -0.026   6.326 -0.7457  1.2124 -0.4511
 5994TIP3    H239474   0.958   0.096   6.331 -2.6790 -0.2728  1.7241
 5995TIP3   OH239475   6.718   4.307   2.518  0.7849  0.2306 -0.3377
 5995TIP3    H139476   6.727   4.254   2.596  0.5602 -0.7877 -1.0016
 5995TIP3    H239477   6.624   4.322   2.508  0.9090  1.6713  0.4458
 5996TIP3   OH239478   1.306   4.635   3.548 -0.0980  0.7928  0.1479
 5996TIP3    H139479   1.256   4.678   3.479 -0.5134 -1.4984 -1.0223
 5996TIP3    H239480   1.270   4.547   3.553  1.4484  0.2101  1.7466
 5997TIP3   OH239481   1.447   2.995   1.561  0.1889 -0.1028 -0.2568
 5997TIP3    H139482   1.412   3.084   1.566  1.5671  0.4287  0.3108
 5997TIP3    H239483   1.401   2.946   1.628 -1.2148 -0.0541 -1.1665
 5998TIP3   OH239484   1.528   1.449  12.944 -0.1900 -0.0859  0.4315
 5998TIP3    H139485   1.505   1.430  13.035 -1.1632  0.0904  0.2313
 5998TIP3    H239486   1.503   1.371  12.895  0.0595 -0.0671  0.2721
 5999TIP3   OH239487   6.245   3.751  12.027  0.8629  0.0544  0.1949
 5999TIP3    H139488   6.287   3.712  12.103 -0.2337  1.2193  1.4152
 5999TIP3    H239489   6.268   3.844  12.030  0.8934  0.1008 -0.9579
 6000TIP3   OH239490   4.945   0.491  15.804 -0.1270  0.1212  0.5637
 6000TIP3    H139491   4.871   0.530  15.851  0.0734  1.2155 -0.0215
 6000TIP3    H239492   5.011   0.561  15.800  0.4592 -0.4538 -0.0013
 6001TIP3   OH239493   5.175   6.659   3.800 -0.8334 -0.0982  0.1740
 6001TIP3    H139494   5.237   6.619   3.861  0.1594 -1.0218 -1.4050
 6001TIP3    H239495   5.200   6.751   3.797  0.1101 -0.3550 -0.0156
 6002TIP3   OH239496   5.405   2.644  11.438 -0.2724  0.2718  0.2260
 6002TIP3    H139497   5.435   2.674  11.352  0.5591  1.6812  0.9945
 6002TIP3    H239498   5.485   2.618  11.483 -0.5150  1.2889  1.2408
 6003TIP3   OH239499   1.473   0.493  11.387 -0.4753 -0.3608 -0.1077
 6003TIP3    H139500   1.496   0.446  11.306 -0.1690 -0.3769 -0.0146
 6003TIP3    H239501   1.491   0.585  11.367  0.9933 -0.5162  0.4056
 6004TIP3   OH239502   6.487   5.499  15.054 -0.1927  0.2574  0.1406
 6004TIP3    H139503   6.436   5.424  15.083  0.0546 -0.3116 -0.8455
 6004TIP3    H239504   6.448   5.575  15.098 -2.5930 -0.0109 -1.4237
 6005TIP3   OH239505   4.089   3.358   2.527 -0.1894  0.5107  0.8626
 6005TIP3    H139506   4.062   3.274   2.564  2.1570 -0.0430  1.4377
 6005TIP3    H239507   4.135   3.335   2.446 -0.3235  1.2915  0.5661
 6006TIP3   OH239508   1.947   2.506   3.214 -0.1079 -0.0098 -0.5661
 6006TIP3    H139509   1.984   2.499   3.126  0.2930 -1.7412 -0.2858
 6006TIP3    H239510   1.873   2.445   3.214 -0.2757  0.1886  0.2034
 6007TIP3   OH239511   5.437   5.210   4.151  0.4808  0.9323  0.4031
 6007TIP3    H139512   5.526   5.215   4.185  0.1577  3.6074  0.9989
 6007TIP3    H239513   5.444   5.155   4.073  2.3011 -0.3672  1.4353
 6008TIP3   OH239514   4.248   4.046   3.409 -0.1117 -0.3129  0.4404
 6008TIP3    H139515   4.312   4.033   3.480  0.9834  3.6973  0.2894
 6008TIP3    H239516   4.291   4.010   3.332  1.0645  0.3529  0.7728
 6009TIP3   OH239517   4.797   1.255  14.093 -0.6946  0.4906 -0.7531
 6009TIP3    H139518   4.843   1.239  14.176  1.6674 -1.8090 -2.4330
 6009TIP3    H239519   4.706   1.269  14.119 -0.4108 -2.3962  2.1060
 6010TIP3   OH239520   0.181   2.718  10.876 -0.0428  0.3519  0.0807
 6010TIP3    H139521   0.205   2.804  10.839 -0.8429  1.4035  1.9333
 6010TIP3    H239522   0.142   2.671  10.802  3.0179  0.4845 -1.6876
 6011TIP3   OH239523   5.018   5.450   5.747  0.2485 -0.3229 -0.0442
 6011TIP3    H139524   4.965   5.444   5.826  0.1641 -0.7527 -0.1303
 6011TIP3    H239525   5.091   5.507   5.771  0.8959 -1.4517  0.7191
 6012TIP3   OH239526   3.325   1.918   3.921 -0.1298  0.5413 -0.2016
 6012TIP3    H139527   3.260   1.954   3.860  1.1140  1.2232 -1.1431
 6012TIP3    H239528   3.390   1.988   3.930  1.2398 -0.6851 -0.4274
 6013TIP3   OH239529   5.094   2.772  14.878  0.1762  0.6149  0.2273
 6013TIP3    H139530   5.029   2.834  14.846  1.9077  1.4992 -1.7320
 6013TIP3    H239531   5.163   2.773  14.811  1.9131 -0.7433  1.9179
 6014TIP3   OH239532   6.812   4.756   2.073 -0.0671 -0.0994  0.0131
 6014TIP3    H139533   6.885   4.728   2.128 -1.2353 -2.3020  0.5359
 6014TIP3    H239534   6.841   4.838   2.034  1.1389  1.1210  3.2703
 6015TIP3   OH239535   6.775   4.718  11.429 -0.1617 -0.3113 -0.5082
 6015TIP3    H139536   6.803   4.732  11.519  2.1326 -0.3780 -1.1744
 6015TIP3    H239537   6.834   4.773  11.376 -1.4827 -0.2568 -1.9580
 6016TIP3   OH239538   3.975   6.667  11.930  0.2450  0.2573  0.0041
 6016TIP3    H139539   4.070   6.668  11.922  0.4177 -0.4727  1.6581
 6016TIP3    H239540   3.946   6.606  11.862  0.9408  0.6120 -0.6184
 6017TIP3   OH239541   1.465   6.784   1.864  0.5294  0.2829 -0.0774
 6017TIP3    H139542   1.390   6.841   1.845  0.8135  0.5553 -0.3822
 6017TIP3    H239543   1.480   6.795   1.958  0.9122  1.1122 -0.2343
 6018TIP3   OH239544   3.871   4.096  13.377  0.6068  0.0754 -0.4805
 6018TIP3    H139545   3.843   4.034  13.310 -1.1754  0.1693  0.1624
 6018TIP3    H239546   3.800   4.096  13.442 -0.3133  4.0633 -1.3286
 6019TIP3   OH239547   1.448   1.461   3.172  0.2106 -0.7956 -0.1671
 6019TIP3    H139548   1.376   1.408   3.207 -2.1469  2.0952 -0.5049
 6019TIP3    H239549   1.428   1.472   3.079 -0.1422  1.9196  0.1957
 6020TIP3   OH239550   1.044   1.813  11.884 -0.3851  0.3526  0.0396
 6020TIP3    H139551   1.107   1.747  11.914 -0.0540 -0.4033 -2.2094
 6020TIP3    H239552   0.965   1.762  11.864 -0.8465  0.9432  0.3524
 6021TIP3   OH239553   5.414   6.794  15.909 -0.0464 -0.3752  0.4907
 6021TIP3    H139554   5.353   6.793  15.834 -2.3565 -2.1372  2.2945
 6021TIP3    H239555   5.419   6.886  15.934 -2.3121 -0.2319  0.5373
 6022TIP3   OH239556   6.383   3.188   2.308 -0.0760 -0.0591  0.0295
 6022TIP3    H139557   6.449   3.202   2.375 -0.2226 -0.2350  0.2116
 6022TIP3    H239558   6.300   3.187   2.356 -0.2753  0.9087 -0.2958
 6023TIP3   OH239559   2.837   5.524   5.217 -0.1983  0.2688  1.2160
 6023TIP3    H139560   2.778   5.575   5.272  1.1143  0.4880  2.4365
 6023TIP3    H239561   2.882   5.589   5.163 -4.4448 -0.1809 -3.2124
 6024TIP3   OH239562   1.031   5.696  13.680  0.0301 -0.0708 -0.0357
 6024TIP3    H139563   0.981   5.617  13.698 -0.7756  0.5113  0.3631
 6024TIP3    H239564   0.966   5.757  13.645  0.2927  0.9921  1.3018
 6025TIP3   OH239565   0.407   3.051  13.245  0.1713 -0.1895  0.3196
 6025TIP3    H139566   0.361   2.975  13.280 -1.1696  1.0423  1.3193
 6025TIP3    H239567   0.428   3.104  13.323  0.0588  1.0021 -0.4411
 6026TIP3   OH239568   4.062   6.770   3.514 -0.9537 -0.8126 -0.3135
 6026TIP3    H139569   4.023   6.854   3.537 -0.5517 -0.3395 -1.3403
 6026TIP3    H239570   3.989   6.717   3.483 -1.2802 -0.9946  0.7615
 6027TIP3   OH239571   6.408   4.877  15.479 -0.6850 -0.3676 -0.6572
 6027TIP3    H139572   6.370   4.871  15.567 -0.6033 -2.3135 -0.7381
 6027TIP3    H239573   6.362   4.951  15.439 -2.3263 -0.8570  0.2470
 6028TIP3   OH239574   0.611   0.594   3.692 -0.0796  0.4098 -0.1286
 6028TIP3    H139575   0.582   0.683   3.714  0.2577  0.5457 -0.2359
 6028TIP3    H239576   0.663   0.566   3.767  2.3207  1.4354 -1.3399
 6029TIP3   OH239577   2.544   6.678  11.249  0.5444  0.3409 -0.1542
 6029TIP3    H139578   2.522   6.751  11.192  1.0504  0.2262 -0.5056
 6029TIP3    H239579   2.637   6.661  11.231  1.1369  1.3204  1.8738
 6030TIP3   OH239580   5.111   6.089  16.404  0.1953  0.2148  0.2857
 6030TIP3    H139581   5.132   5.999  16.380  0.0414  0.3704 -0.4637
 6030TIP3    H239582   5.018   6.086  16.428 -0.1737  0.4146 -1.0493
 6031TIP3   OH239583   6.510   5.807   5.688 -0.1760 -0.0722 -0.2549
 6031TIP3    H139584   6.454   5.799   5.765  0.6668 -0.5348  0.3106
 6031TIP3    H239585   6.572   5.877   5.710  1.1074 -1.3090  0.1448
 6032TIP3   OH239586   1.723   2.019  17.104  0.2753  0.5275 -0.1914
 6032TIP3    H139587   1.751   2.082  17.037 -1.2317  0.1581 -1.1738
 6032TIP3    H239588   1.648   2.060  17.146 -1.0757 -0.8429 -1.2164
 6033TIP3   OH239589   6.223   4.368  10.555 -0.4586  0.0869 -0.3092
 6033TIP3    H139590   6.204   4.443  10.499 -1.4072  0.9454  1.1102
 6033TIP3    H239591   6.303   4.330  10.519  0.4885  2.2786 -0.5675
 6034TIP3   OH239592   2.749   3.154   2.835 -0.0829 -0.4587 -0.2073
 6034TIP3    H139593   2.706   3.069   2.828  0.5811 -0.7642 -0.6068
 6034TIP3    H239594   2.842   3.133   2.840  0.2862  0.3661 -2.9749
 6035TIP3   OH239595   5.699   1.148  12.490 -0.7159 -0.2727 -0.2189
 6035TIP3    H139596   5.624   1.107  12.533 -0.9159 -1.5317 -1.7474
 6035TIP3    H239597   5.716   1.227  12.542 -1.6111 -1.1983  1.5326
 6036TIP3   OH239598   4.116   1.186  12.531  0.1790 -0.7355 -0.0400
 6036TIP3    H139599   4.201   1.229  12.522  1.1033 -2.8275 -1.7778
 6036TIP3    H239600   4.132   1.095  12.505 -2.4555 -1.3328  0.2481
 6037TIP3   OH239601   5.195   5.827   2.193  0.3595  0.3644 -0.1166
 6037TIP3    H139602   5.156   5.746   2.158  2.3537 -1.0323  0.8321
 6037TIP3    H239603   5.121   5.888   2.198 -1.4622 -1.7956  0.3994
 6038TIP3   OH239604   2.396   2.407  12.852 -0.2224  0.1391  0.3427
 6038TIP3    H139605   2.409   2.372  12.940  0.8906  0.2192  0.2209
 6038TIP3    H239606   2.314   2.456  12.857 -1.6816 -2.2055  0.5998
 6039TIP3   OH239607   5.163   5.723  11.948 -0.5536  0.5283  0.4149
 6039TIP3    H139608   5.105   5.655  11.984  1.5542 -0.5322  1.9243
 6039TIP3    H239609   5.204   5.682  11.872 -2.6015  1.6704 -1.3358
 6040TIP3   OH239610   3.648   3.057  13.720 -0.4555 -0.5019 -0.0987
 6040TIP3    H139611   3.585   3.122  13.751 -0.2387  0.0654 -0.8274
 6040TIP3    H239612   3.639   3.059  13.625  3.4579  2.4804 -0.5395
 6041TIP3   OH239613   1.210   6.734  16.670 -0.0748 -0.8996 -0.1786
 6041TIP3    H139614   1.177   6.660  16.619 -1.3541  0.3164 -1.1656
 6041TIP3    H239615   1.276   6.774  16.613 -0.1385 -0.6544 -0.0780
 6042TIP3   OH239616   3.898   6.118   4.329 -0.0411 -0.1542  0.1109
 6042TIP3    H139617   3.932   6.043   4.379  0.4221  0.5243  0.8183
 6042TIP3    H239618   3.822   6.147   4.379 -0.9623 -0.8983 -0.8177
 6043TIP3   OH239619   2.820   4.142   2.578 -0.3439  0.0801  0.8721
 6043TIP3    H139620   2.782   4.086   2.510 -0.3933  1.6384 -0.4383
 6043TIP3    H239621   2.891   4.089   2.616 -1.1232 -1.2794  0.4580
 6044TIP3   OH239622   2.233   0.260   3.511  0.4581 -0.2755  0.2991
 6044TIP3    H139623   2.265   0.348   3.532  0.1810  0.3880 -1.9409
 6044TIP3    H239624   2.311   0.211   3.487  0.4287 -0.1656 -0.0274
 6045TIP3   OH239625   2.507   4.952   5.517  0.3863 -0.2210 -0.0232
 6045TIP3    H139626   2.574   4.894   5.481  0.5110 -2.3108  3.2723
 6045TIP3    H239627   2.551   4.998   5.588 -0.3464  2.3151 -1.1563
 6046TIP3   OH239628   1.264   5.822  11.394 -0.3654 -0.5193 -0.6106
 6046TIP3    H139629   1.291   5.866  11.474  0.0204 -0.8215 -0.5739
 6046TIP3    H239630   1.206   5.751  11.423 -0.1970 -0.6509 -0.5969
 6047TIP3   OH239631   2.720   1.824   0.396  0.4133 -0.3881 -0.2897
 6047TIP3    H139632   2.657   1.894   0.410  0.6251 -0.5750  1.6878
 6047TIP3    H239633   2.793   1.867   0.351  1.3238  1.0950  2.4884
 6048TIP3   OH239634   0.033   1.396  14.188  0.2363 -0.2081 -0.0285
 6048TIP3    H139635   0.107   1.337  14.203  1.8064  1.1340 -2.1987
 6048TIP3    H239636   0.049   1.470  14.246  0.2668 -0.1801 -0.0730
 6049TIP3   OH239637   4.866   3.325  15.092 -0.2413  0.6815  0.0181
 6049TIP3    H139638   4.920   3.262  15.140 -1.9817  0.7128  2.1040
 6049TIP3    H239639   4.822   3.273  15.025 -0.5308 -0.0515  0.7668
 6050TIP3   OH239640   2.100   1.111  11.792 -0.1329  0.3434 -0.2773
 6050TIP3    H139641   2.168   1.107  11.860  0.6286 -0.1339 -1.0530
 6050TIP3    H239642   2.080   1.020  11.773  1.4733  0.4096 -2.4657
 6051TIP3   OH239643   2.762   4.164  14.873  0.1247 -0.4430  0.1223
 6051TIP3    H139644   2.738   4.105  14.802  0.4578 -0.7436  0.2584
 6051TIP3    H239645   2.808   4.109  14.936  1.9447  0.2888 -0.5284
 6052TIP3   OH239646   4.951   5.162  12.366 -0.2672 -0.3494 -0.1347
 6052TIP3    H139647   4.914   5.086  12.320 -0.7046 -1.2669  1.6608
 6052TIP3    H239648   5.012   5.125  12.429 -0.2848  0.8182  0.5900
 6053TIP3   OH239649   5.196   3.137   5.887 -0.4459 -0.5067 -0.0366
 6053TIP3    H139650   5.258   3.096   5.826  0.4146 -0.1119  0.5664
 6053TIP3    H239651   5.218   3.100   5.972  0.0290  0.8573  0.4373
 6054TIP3   OH239652   2.074   3.913   2.101 -0.3738  0.6831  0.4942
 6054TIP3    H139653   1.991   3.891   2.142 -1.0877 -1.9046 -2.1485
 6054TIP3    H239654   2.138   3.859   2.147 -0.4775  1.0152  1.0412
 6055TIP3   OH239655   3.755   0.876  13.448 -0.4272  0.4661  0.2930
 6055TIP3    H139656   3.762   0.850  13.540 -0.7282  0.8541  0.4253
 6055TIP3    H239657   3.825   0.941  13.436  1.2974 -1.4384 -0.4161
 6056TIP3   OH239658   4.257   0.222   2.594  0.5979  0.4382 -0.0614
 6056TIP3    H139659   4.208   0.285   2.646 -2.5213 -2.8393  1.1928
 6056TIP3    H239660   4.289   0.158   2.658  1.6116 -0.5518 -1.5283
 6057TIP3   OH239661   5.484   4.062  16.553 -0.0341  0.4336  0.1868
 6057TIP3    H139662   5.487   4.153  16.583  0.3836  0.1588  0.9857
 6057TIP3    H239663   5.571   4.027  16.574 -0.5038 -0.4122  0.7195
 6058TIP3   OH239664   0.958   5.815  14.350 -0.0374  0.2834  0.7074
 6058TIP3    H139665   0.931   5.798  14.259  0.2485  0.9467  0.4996
 6058TIP3    H239666   0.943   5.731  14.394  3.4290 -1.2226 -0.8054
 6059TIP3   OH239667   2.637   0.712   4.966  0.1755 -0.0381  0.3114
 6059TIP3    H139668   2.712   0.771   4.960 -0.3611  0.9518  2.6939
 6059TIP3    H239669   2.603   0.707   4.877  2.5684  0.1388 -0.6487
 6060TIP3   OH239670   4.443   4.654  12.537  0.1783  0.0393 -0.1346
 6060TIP3    H139671   4.449   4.572  12.587  0.8246 -0.6678 -1.3294
 6060TIP3    H239672   4.400   4.715  12.596 -0.4110 -1.1959  0.7530
 6061TIP3   OH239673   0.381   6.781   1.628 -0.3762  0.2680 -0.0000
 6061TIP3    H139674   0.333   6.713   1.676 -1.6505  0.4004 -1.0674
 6061TIP3    H239675   0.405   6.845   1.696  2.1615 -1.9604  1.2745
 6062TIP3   OH239676   4.360   1.744   4.185 -0.0588 -0.2984  0.2950
 6062TIP3    H139677   4.418   1.783   4.250 -0.2378  1.2745 -0.4419
 6062TIP3    H239678   4.373   1.798   4.107  0.1776 -2.1633 -0.9889
 6063TIP3   OH239679   1.742   0.918  11.339 -0.2807 -0.0576 -0.3932
 6063TIP3    H139680   1.680   0.848  11.322 -0.8284  0.0442  1.1071
 6063TIP3    H239681   1.709   0.992  11.288  0.6408 -1.0401 -2.4666
 6064TIP3   OH239682   4.307   3.680  14.400 -0.7948  0.3209  0.0843
 6064TIP3    H139683   4.231   3.649  14.351 -0.6993 -1.0110  0.7426
 6064TIP3    H239684   4.332   3.605  14.455 -1.3846  2.0248  2.7364
 6065TIP3   OH239685   5.800   0.491   1.521  0.3124  0.3370 -0.1209
 6065TIP3    H139686   5.779   0.409   1.565  2.9971  0.1509  0.9628
 6065TIP3    H239687   5.834   0.547   1.591  2.0591  1.0144 -1.4735
 6066TIP3   OH239688   3.087   5.641  11.778  0.7323  0.4066 -0.1931
 6066TIP3    H139689   3.086   5.722  11.728 -0.2835  0.4158 -0.1587
 6066TIP3    H239690   3.004   5.640  11.825  0.0784 -1.3158 -1.2890
 6067TIP3   OH239691   0.132   3.279   4.721  0.9362  0.2946 -0.6510
 6067TIP3    H139692   0.185   3.203   4.700  1.0827 -0.5466  2.5293
 6067TIP3    H239693   0.075   3.250   4.792 -0.0390  2.7425 -0.3702
 6068TIP3   OH239694   5.602   4.702   4.895  0.1015  0.8812  0.8045
 6068TIP3    H139695   5.632   4.765   4.830 -0.8523  0.7449  0.2156
 6068TIP3    H239696   5.509   4.691   4.876 -0.0386  0.3457  1.7822
 6069TIP3   OH239697   2.624   3.021   4.328 -0.3669  0.4799 -0.0571
 6069TIP3    H139698   2.626   2.925   4.336  0.6097  0.4739 -0.3455
 6069TIP3    H239699   2.541   3.039   4.282 -1.0439 -0.1501  0.8958
 6070TIP3   OH239700   0.983   3.230   2.424  0.3212  0.1662 -0.2910
 6070TIP3    H139701   0.907   3.287   2.423 -1.7740 -2.4959  1.5340
 6070TIP3    H239702   1.056   3.287   2.448 -1.6855  2.0478  1.4865
 6071TIP3   OH239703   6.227   2.401   4.312 -0.0042  0.2201 -0.2379
 6071TIP3    H139704   6.271   2.323   4.276 -0.9075 -0.5463  0.3081
 6071TIP3    H239705   6.187   2.371   4.393 -2.6606  0.5604 -1.3633
 6072TIP3   OH239706   2.675   3.788  13.126 -0.5082 -0.3695 -0.0841
 6072TIP3    H139707   2.765   3.819  13.128 -0.8313  0.5995  0.0510
 6072TIP3    H239708   2.676   3.707  13.177  0.1448  0.0332  0.5545
 6073TIP3   OH239709   0.431   0.659   3.056 -0.4042  0.4378 -0.2494
 6073TIP3    H139710   0.427   0.661   3.152 -0.6121  0.5944 -0.2601
 6073TIP3    H239711   0.360   0.601   3.030 -0.0882  0.0697 -0.2936
 6074TIP3   OH239712   0.100   3.966  15.692 -0.6582  0.4527  0.1752
 6074TIP3    H139713   0.075   4.050  15.653  3.3393  2.1116  0.9047
 6074TIP3    H239714   0.060   3.900  15.636 -0.0494  2.8119 -3.1560
 6075TIP3   OH239715   4.675   1.428  12.014 -0.0668  0.2669  0.5877
 6075TIP3    H139716   4.589   1.466  11.996  0.2243  0.8487  0.3913
 6075TIP3    H239717   4.720   1.430  11.930  0.0751 -0.2000  0.6539
 6076TIP3   OH239718   0.742   5.192  11.842 -0.3642 -0.4569  0.0544
 6076TIP3    H139719   0.817   5.142  11.810  0.3903  0.5389  0.2224
 6076TIP3    H239720   0.779   5.278  11.864 -1.5288 -0.0108  0.2855
 6077TIP3   OH239721   5.608   1.638   2.015  0.3911 -0.3848 -0.6192
 6077TIP3    H139722   5.515   1.641   2.034  0.5534 -1.2049  0.3372
 6077TIP3    H239723   5.626   1.720   1.969 -0.6315  0.1493 -0.0733
 6078TIP3   OH239724   2.247   5.233   1.236 -0.1252 -0.0474  0.0945
 6078TIP3    H139725   2.255   5.141   1.212  0.5834  0.2133 -0.6907
 6078TIP3    H239726   2.182   5.268   1.175 -2.2761 -0.5857  2.0118
 6079TIP3   OH239727   6.088   1.484   3.071 -0.6765 -0.7979  0.6753
 6079TIP3    H139728   6.006   1.509   3.112 -0.4399  1.0179  0.0762
 6079TIP3    H239729   6.124   1.417   3.129 -2.5588 -1.6156  0.9431
 6080TIP3   OH239730   6.344   0.325   1.337 -0.9518  0.1257  0.2250
 6080TIP3    H139731   6.335   0.230   1.329  0.0474  0.0255  0.2053
 6080TIP3    H239732   6.282   0.361   1.274  0.2798 -0.5518 -1.3914
 6081TIP3   OH239733   1.040   0.715   1.004 -0.3755  0.2164  0.1506
 6081TIP3    H139734   1.013   0.729   0.913  0.7542 -1.4500 -0.4796
 6081TIP3    H239735   1.096   0.790   1.025 -0.4239  0.4773 -0.6378
 6082TIP3   OH239736   0.946   3.109   2.176 -0.7948  0.3835  0.5045
 6082TIP3    H139737   0.968   3.158   2.255 -1.5257  0.6429  0.5468
 6082TIP3    H239738   0.920   3.023   2.206 -1.8383  0.7327  0.6047
 6083TIP3   OH239739   2.629   2.265  15.760 -0.5458 -0.5073  0.0580
 6083TIP3    H139740   2.538   2.246  15.784 -1.0611  2.1910  0.4697
 6083TIP3    H239741   2.622   2.333  15.693  1.1320 -2.0556 -1.7398
 6084TIP3   OH239742   5.824   4.846   0.864  0.4316  0.4500  0.1490
 6084TIP3    H139743   5.741   4.799   0.865  0.0435  1.1257  1.8314
 6084TIP3    H239744   5.863   4.828   0.950  1.6680  0.7464 -0.3338
 6085TIP3   OH239745   6.761   6.152  13.218 -0.0929  0.2254  0.6849
 6085TIP3    H139746   6.822   6.187  13.282 -0.6597  0.2498  1.2186
 6085TIP3    H239747   6.803   6.166  13.133 -0.1228  1.7859  0.9282
 6086TIP3   OH239748   1.896   3.634  12.601  0.3943 -0.0068  0.0192
 6086TIP3    H139749   1.835   3.671  12.538  0.5285 -0.6612 -0.5069
 6086TIP3    H239750   1.857   3.653  12.686  0.7409  1.8158 -0.2047
 6087TIP3   OH239751   5.968   5.481   6.266 -0.5536  0.2203  0.7251
 6087TIP3    H139752   6.056   5.493   6.302 -0.4631  0.6354  0.3763
 6087TIP3    H239753   5.925   5.420   6.326  0.1814 -0.4731  0.5472
 6088TIP3   OH239754   2.690   6.777  15.256 -0.8577  0.7570  0.7881
 6088TIP3    H139755   2.717   6.774  15.164 -3.8987  0.2998 -0.1263
 6088TIP3    H239756   2.767   6.747  15.304 -0.0126 -1.3979 -1.7789
 6089TIP3   OH239757   5.730   5.629   6.387 -0.5264  0.0612  0.0108
 6089TIP3    H139758   5.654   5.603   6.440 -0.6067  1.9075  0.8199
 6089TIP3    H239759   5.802   5.575   6.420 -1.3356 -1.2743 -0.3597
 6090TIP3   OH239760   3.039   6.287  12.584 -0.2157  0.0685  0.4334
 6090TIP3    H139761   3.050   6.210  12.640  1.1525 -0.0790 -0.0323
 6090TIP3    H239762   2.980   6.257  12.514  2.3986 -1.3856 -1.2354
 6091TIP3   OH239763   5.495   3.322  17.116 -0.1807 -0.0863  0.4958
 6091TIP3    H139764   5.403   3.332  17.140 -0.7063 -0.6520 -1.1797
 6091TIP3    H239765   5.498   3.237  17.071  0.6676  1.0091 -1.5953
 6092TIP3   OH239766   0.411   4.004  13.340 -0.7877  0.4995  0.2401
 6092TIP3    H139767   0.374   3.950  13.271  1.6013 -1.3170  0.3054
 6092TIP3    H239768   0.451   4.078  13.294  2.5922 -1.7327 -0.6515
 6093TIP3   OH239769   3.702   1.648   3.308 -0.0997 -0.2319 -0.2769
 6093TIP3    H139770   3.744   1.632   3.224 -1.2316 -0.5996 -0.7904
 6093TIP3    H239771   3.673   1.562   3.338 -2.0016  0.2199 -0.7673
 6094TIP3   OH239772   0.100   5.919   0.829  0.4089 -0.1349 -0.0061
 6094TIP3    H139773   0.062   5.889   0.912 -0.9425 -0.5944 -0.7742
 6094TIP3    H239774   0.114   6.013   0.842  1.0719 -0.3661  1.0548
 6095TIP3   OH239775   3.513   5.649   5.745  0.2558 -0.4222 -0.0992
 6095TIP3    H139776   3.539   5.676   5.833 -1.6639 -1.3921  0.7979
 6095TIP3    H239777   3.500   5.555   5.752 -1.0331 -0.3345 -1.1105
 6096TIP3   OH239778   4.206   0.976   2.793  0.1228  0.6202  0.4822
 6096TIP3    H139779   4.113   0.957   2.785  0.4050 -0.9201  0.5038
 6096TIP3    H239780   4.249   0.891   2.780  1.6339  1.6417 -1.4230
 6097TIP3   OH239781   2.319   6.653   2.383  0.1132  0.3242  0.1361
 6097TIP3    H139782   2.372   6.718   2.429 -0.1630  0.1853  0.6589
 6097TIP3    H239783   2.340   6.570   2.426 -0.6323  0.2888  0.4524
 6098TIP3   OH239784   4.495   6.555  16.097 -0.1001  0.0603  0.5979
 6098TIP3    H139785   4.506   6.502  16.176 -1.4146  0.1920  0.8865
 6098TIP3    H239786   4.488   6.644  16.130 -0.5016  0.1291  0.3199
 6099TIP3   OH239787   2.834   0.855  11.661 -0.2263  0.3852  0.6640
 6099TIP3    H139788   2.860   0.819  11.576  0.4092 -2.0428  1.8290
 6099TIP3    H239789   2.900   0.922  11.680 -0.8336  1.5202 -1.0892
 6100TIP3   OH239790   3.078   5.145   5.813 -0.5454 -0.7995  0.2443
 6100TIP3    H139791   3.144   5.208   5.843 -0.5874 -0.6993  0.1266
 6100TIP3    H239792   3.088   5.071   5.873 -2.2583  0.3721  2.0388
 6101TIP3   OH239793   1.069   0.145   3.888  0.0581 -0.2425  0.2328
 6101TIP3    H139794   1.006   0.073   3.896  0.7966 -0.8630  0.4345
 6101TIP3    H239795   1.142   0.120   3.944  1.3466 -0.4235 -1.4945
 6102TIP3   OH239796   0.879   2.383  14.465  0.5969  0.4636 -0.0224
 6102TIP3    H139797   0.855   2.464  14.420 -0.6609  0.4632  0.6133
 6102TIP3    H239798   0.905   2.411  14.553  2.4018  0.4005 -0.5265
 6103TIP3   OH239799   3.300   6.027  15.197 -0.3868  0.2405  0.5822
 6103TIP3    H139800   3.237   6.099  15.189  2.3639  2.6768  0.1795
 6103TIP3    H239801   3.290   5.997  15.288 -3.0988 -0.3916  0.1147
 6104TIP3   OH239802   5.011   6.528  13.748  0.5891  0.0197  0.2716
 6104TIP3    H139803   5.021   6.620  13.773 -1.3959  0.7892 -1.6475
 6104TIP3    H239804   4.968   6.488  13.824 -1.3893  1.3856 -0.0801
 6105TIP3   OH239805   6.321   6.314  12.480 -0.0569 -0.2477 -0.4965
 6105TIP3    H139806   6.250   6.373  12.456 -0.5119 -1.3715 -2.0395
 6105TIP3    H239807   6.397   6.345  12.429  0.2848  0.3341  0.3670
 6106TIP3   OH239808   5.739   1.961  12.923 -0.1271  0.0762  0.5313
 6106TIP3    H139809   5.701   2.000  12.845  0.3138  0.3235  0.4391
 6106TIP3    H239810   5.833   1.978  12.916  0.2597 -2.2071 -0.2009
 6107TIP3   OH239811   1.094   5.675  15.664 -0.1538 -0.2579  0.1015
 6107TIP3    H139812   1.154   5.601  15.670  0.5441 -0.1071 -3.7023
 6107TIP3    H239813   1.007   5.634  15.658 -0.0898 -0.6162  1.4408
 6108TIP3   OH239814   2.873   2.751  12.346  0.5253 -0.3162 -0.5497
 6108TIP3    H139815   2.825   2.815  12.398  0.6569  0.6311 -1.5693
 6108TIP3    H239816   2.957   2.742  12.390  0.1603 -0.4859  0.1173
 6109TIP3   OH239817   6.585   5.551   3.700 -0.3095 -0.0082  0.5700
 6109TIP3    H139818   6.560   5.609   3.628 -1.3123  0.1962  1.0720
 6109TIP3    H239819   6.643   5.604   3.755  4.0623 -1.5074 -2.3407
 6110TIP3   OH239820   2.260   0.504  12.904  0.1202 -0.7859 -0.0023
 6110TIP3    H139821   2.231   0.470  12.819  0.5291  0.8042 -0.7933
 6110TIP3    H239822   2.203   0.461  12.968 -0.9542 -1.1400 -1.1791
 6111TIP3   OH239823   4.610   6.661   6.067  0.1625  0.1993  0.2115
 6111TIP3    H139824   4.654   6.582   6.100  0.0788 -0.1423 -0.4767
 6111TIP3    H239825   4.600   6.717   6.144 -0.3787 -0.7447  0.8507
 6112TIP3   OH239826   2.187   4.684   1.922  0.2181 -0.5797  0.4632
 6112TIP3    H139827   2.216   4.667   1.832 -0.9665  3.8660 -0.9082
 6112TIP3    H239828   2.259   4.734   1.961 -1.3509  1.9286  0.2591
 6113TIP3   OH239829   3.294   3.938  15.228 -0.1877 -0.0664 -0.0387
 6113TIP3    H139830   3.230   3.953  15.298  0.5661  2.0417  0.2360
 6113TIP3    H239831   3.241   3.935  15.148 -0.8471 -0.4693  0.4082
 6114TIP3   OH239832   1.121   3.278   5.005 -0.2031 -0.8579  0.4006
 6114TIP3    H139833   1.197   3.222   5.019  0.2969 -0.5910 -1.1150
 6114TIP3    H239834   1.061   3.224   4.952 -0.7674 -0.8186  0.9960
 6115TIP3   OH239835   4.916   1.356  12.650 -0.0936 -0.1369  0.0431
 6115TIP3    H139836   4.905   1.304  12.570 -1.1395  0.6078 -0.3182
 6115TIP3    H239837   4.859   1.432  12.637  0.9200  0.7848  0.8296
 6116TIP3   OH239838   2.662   2.376  15.301 -0.0613 -0.2643  0.5617
 6116TIP3    H139839   2.660   2.333  15.215  2.2094  1.6855 -0.5280
 6116TIP3    H239840   2.753   2.367  15.330  0.0487  2.2631  1.0798
 6117TIP3   OH239841   1.821   3.888  11.950 -0.1331 -0.3304 -0.6345
 6117TIP3    H139842   1.788   3.963  11.999  1.6746  0.4177 -0.5423
 6117TIP3    H239843   1.810   3.913  11.858 -0.7962 -0.5365 -0.6188
 6118TIP3   OH239844   6.045   2.057  16.076 -0.1624  0.0349  0.0495
 6118TIP3    H139845   6.043   2.134  16.019 -0.3282  0.5191  0.7025
 6118TIP3    H239846   6.074   1.986  16.019 -0.4874  0.4780 -0.6791
 6119TIP3   OH239847   0.955   1.796   4.798 -0.0361  0.4703 -1.0506
 6119TIP3    H139848   0.918   1.884   4.793  0.6483  0.8411  0.2902
 6119TIP3    H239849   0.886   1.739   4.762 -0.7505  1.4629 -1.2726
 6120TIP3   OH239850   6.133   3.632   2.688 -0.1546  0.1439 -0.3170
 6120TIP3    H139851   6.188   3.554   2.673  4.1521  2.7945  0.6131
 6120TIP3    H239852   6.138   3.681   2.607 -0.5101  0.7841  0.0445
 6121TIP3   OH239853   0.572   2.621   1.763 -0.4820  0.5278 -0.2235
 6121TIP3    H139854   0.554   2.697   1.818  0.0049 -1.1768  2.3426
 6121TIP3    H239855   0.658   2.640   1.725 -0.3942  1.2931  0.3271
 6122TIP3   OH239856   5.323   2.132  16.095 -0.3465  0.1135 -0.4085
 6122TIP3    H139857   5.276   2.110  16.176  1.4037 -0.9245  0.3580
 6122TIP3    H239858   5.255   2.161  16.035 -2.0009 -1.5805  0.6015
 6123TIP3   OH239859   2.746   6.090  16.020 -0.2296  0.4500 -0.2711
 6123TIP3    H139860   2.652   6.108  16.024 -0.8885 -2.3656 -1.6264
 6123TIP3    H239861   2.779   6.145  15.949 -0.6677  2.0720  0.7638
 6124TIP3   OH239862   0.171   1.992   2.892 -0.2984  0.4343 -0.4860
 6124TIP3    H139863   0.184   1.903   2.925  0.7356 -0.1273 -2.3311
 6124TIP3    H239864   0.083   1.991   2.856 -0.4597  0.2859 -0.0905
 6125TIP3   OH239865   1.090   2.650  16.202 -0.2107  0.4899  0.4200
 6125TIP3    H139866   1.010   2.601  16.221  0.3284  0.3047  2.3451
 6125TIP3    H239867   1.122   2.613  16.120 -0.1161 -2.0194  1.5378
 6126TIP3   OH239868   1.999   4.596   3.104 -0.0600  0.1543 -0.5558
 6126TIP3    H139869   2.060   4.651   3.154  0.3302  0.1095 -0.9733
 6126TIP3    H239870   2.055   4.548   3.043 -0.2604 -1.7880  0.7811
 6127TIP3   OH239871   3.336   2.728  15.774  0.3450  0.4728 -0.3778
 6127TIP3    H139872   3.363   2.713  15.864 -1.4877 -1.1378 -0.0595
 6127TIP3    H239873   3.328   2.641  15.736 -0.6409  1.0585 -1.5561
 6128TIP3   OH239874   1.547   1.479  16.727 -0.0648 -0.4125 -0.1839
 6128TIP3    H139875   1.477   1.532  16.688  0.8187 -0.0162 -1.2547
 6128TIP3    H239876   1.614   1.475  16.659 -0.0118 -2.7141 -0.0421
 6129TIP3   OH239877   3.127   1.483   0.387  0.0383 -0.2276  0.1981
 6129TIP3    H139878   3.047   1.534   0.397  1.8032  2.1996  2.7811
 6129TIP3    H239879   3.118   1.411   0.450 -0.0943  0.0555  0.5026
 6130TIP3   OH239880   6.491   4.488   5.256 -0.2331 -0.2930 -0.1020
 6130TIP3    H139881   6.416   4.429   5.258 -0.6688  0.2704  1.9600
 6130TIP3    H239882   6.513   4.497   5.164 -3.3057  0.2500 -0.8496
 6131TIP3   OH239883   1.825   6.448   3.642 -0.0282  0.4544 -0.1696
 6131TIP3    H139884   1.812   6.426   3.549  1.9347  1.7624 -0.7682
 6131TIP3    H239885   1.821   6.363   3.687 -1.9267 -0.0978 -1.3221
 6132TIP3   OH239886   2.505   1.414  13.600  0.3475 -0.6194 -0.8048
 6132TIP3    H139887   2.591   1.406  13.560  0.3660 -1.6245 -0.5677
 6132TIP3    H239888   2.449   1.448  13.530  0.5167 -1.7655 -1.5021
 6133TIP3   OH239889   2.655   5.063   6.218 -0.6136  0.3242 -0.2920
 6133TIP3    H139890   2.741   5.045   6.179 -0.4760  2.0662 -0.8551
 6133TIP3    H239891   2.602   4.986   6.196 -0.1362  0.6653 -2.7830
 6134TIP3   OH239892   0.498   5.305  11.761 -0.0722 -0.0714 -0.0010
 6134TIP3    H139893   0.527   5.360  11.688 -2.2400  1.0736 -0.0392
 6134TIP3    H239894   0.570   5.243  11.775  0.3307 -0.3824 -3.1647
 6135TIP3   OH239895   6.395   2.649  14.965 -0.4397 -0.2755  0.0593
 6135TIP3    H139896   6.423   2.648  15.057  0.3340 -3.0011 -0.1698
 6135TIP3    H239897   6.465   2.696  14.920 -0.7616  0.9755  0.8386
 6136TIP3   OH239898   1.894   6.406   3.156  0.4414 -0.2632  0.2618
 6136TIP3    H139899   1.907   6.357   3.075 -2.5576 -0.2009 -0.3066
 6136TIP3    H239900   1.854   6.343   3.216  1.1896  0.1293  1.1840
 6137TIP3   OH239901   4.638   1.348   2.439  0.1540  0.1426 -0.2668
 6137TIP3    H139902   4.630   1.350   2.344  0.9642  1.6424 -0.3242
 6137TIP3    H239903   4.644   1.441   2.464 -2.5389 -0.0939  1.4662
 6138TIP3   OH239904   3.386   6.544  14.863 -0.3225 -0.0956  0.7674
 6138TIP3    H139905   3.370   6.523  14.771 -1.4549 -0.3176  1.0073
 6138TIP3    H239906   3.348   6.471  14.911  0.4961 -0.1081  1.4094
 6139TIP3   OH239907   6.460   2.101   2.293 -0.0393  0.9701 -0.2169
 6139TIP3    H139908   6.489   2.067   2.208  1.6547 -2.3268  1.5548
 6139TIP3    H239909   6.374   2.062   2.305 -0.1424  1.1821 -0.2641
 6140TIP3   OH239910   0.713   6.665   2.946 -0.2030 -0.0445 -0.1201
 6140TIP3    H139911   0.694   6.582   2.991  2.1036 -0.4586  0.1679
 6140TIP3    H239912   0.742   6.638   2.859  0.6534  0.4437  0.0088
 6141TIP3   OH239913   3.433   3.588   0.703  0.4485  0.1234  0.4556
 6141TIP3    H139914   3.383   3.522   0.751 -1.0716  0.0594 -1.1312
 6141TIP3    H239915   3.519   3.549   0.691  0.8732  0.1541  3.0847
 6142TIP3   OH239916   3.061   2.530   5.988  0.7871  0.5303 -0.7682
 6142TIP3    H139917   3.039   2.603   6.047  0.2663 -0.6534  0.5516
 6142TIP3    H239918   3.027   2.557   5.903 -1.1340  1.0317  0.1199
 6143TIP3   OH239919   4.160   4.471  11.456 -0.4029 -0.0773  0.4104
 6143TIP3    H139920   4.245   4.456  11.497 -0.3278 -0.2176  0.2061
 6143TIP3    H239921   4.144   4.392  11.405 -0.3219  0.2544 -0.1278
 6144TIP3   OH239922   3.520   1.575   3.677  0.6109 -0.2784  0.1477
 6144TIP3    H139923   3.557   1.491   3.704 -1.4512 -2.3009 -2.9397
 6144TIP3    H239924   3.426   1.558   3.669 -0.0702  2.7897  1.0165
 6145TIP3   OH239925   6.809   2.317  14.608  0.8144  0.1550  0.4558
 6145TIP3    H139926   6.801   2.332  14.514 -1.1961 -1.1794  0.3764
 6145TIP3    H239927   6.812   2.405  14.647 -0.4491  0.7362 -0.7110
 6146TIP3   OH239928   6.230   6.069  16.060  0.6238  0.5815  0.6379
 6146TIP3    H139929   6.182   6.023  15.991 -0.2474 -0.0770  1.6599
 6146TIP3    H239930   6.162   6.110  16.113  1.3436  1.9996  0.4738
 6147TIP3   OH239931   5.200   4.159  17.101 -0.2172 -0.1144  0.2987
 6147TIP3    H139932   5.106   4.174  17.090 -0.1629 -0.0625 -0.1013
 6147TIP3    H239933   5.235   4.158  17.011  0.0231 -1.0711  0.3965
 6148TIP3   OH239934   6.071   6.346  10.937  0.0849 -0.1169 -0.5397
 6148TIP3    H139935   6.039   6.416  10.881  0.1540  0.8684  0.6185
 6148TIP3    H239936   6.034   6.266  10.900 -2.9435  0.8739  0.1744
 6149TIP3   OH239937   3.956   3.100   1.664  0.2211 -0.1364 -0.2834
 6149TIP3    H139938   3.902   3.022   1.650 -0.7440  0.5001 -0.1516
 6149TIP3    H239939   3.938   3.125   1.755 -0.2251  0.7969 -0.6228
 6150TIP3   OH239940   3.841   4.300   1.126  0.8702 -0.2785 -0.2907
 6150TIP3    H139941   3.888   4.279   1.046  2.0896  0.7835  0.1180
 6150TIP3    H239942   3.820   4.215   1.166  2.0439 -0.7678 -0.7109
 6151TIP3   OH239943   1.416   3.715  10.151 -0.5906 -0.0117  0.1951
 6151TIP3    H139944   1.356   3.739  10.222 -2.0319 -1.6009 -0.4500
 6151TIP3    H239945   1.402   3.781  10.084 -3.3821 -1.6571 -0.9194
 6152TIP3   OH239946   1.803   0.059  14.871 -0.2300  0.2771 -0.2299
 6152TIP3    H139947   1.798   0.095  14.783  0.0198  0.9939  0.0493
 6152TIP3    H239948   1.726   0.094  14.916 -1.1305 -1.2219 -0.5731
 6153TIP3   OH239949   6.624   5.822  14.654 -0.3134  0.8469  0.0554
 6153TIP3    H139950   6.579   5.773  14.723 -1.5795  1.1893 -0.5070
 6153TIP3    H239951   6.642   5.757  14.586  1.1321  0.4642  0.7895
 6154TIP3   OH239952   2.526   0.896   2.540 -0.0407 -0.6579 -0.3030
 6154TIP3    H139953   2.473   0.918   2.617 -0.0652  0.7541 -0.7210
 6154TIP3    H239954   2.615   0.886   2.574  0.1727  1.1962 -0.2739
 6155TIP3   OH239955   4.594   0.583   3.313 -0.4985 -0.3932  0.4057
 6155TIP3    H139956   4.605   0.518   3.382 -1.2787 -2.8364 -1.7085
 6155TIP3    H239957   4.682   0.598   3.280 -0.4266 -1.1978  0.2081
 6156TIP3   OH239958   5.549   1.282  12.716  0.3288  0.5890 -0.0003
 6156TIP3    H139959   5.609   1.265  12.789  0.1529  2.5049  0.6154
 6156TIP3    H239960   5.480   1.217  12.727  0.3319  0.8170  1.5211
 6157TIP3   OH239961   2.310   6.774   4.868 -0.3873  0.9726 -0.0890
 6157TIP3    H139962   2.283   6.839   4.933  0.0182  1.6315 -0.5745
 6157TIP3    H239963   2.315   6.823   4.786 -3.3326 -0.3584 -1.1373
 6158TIP3   OH239964   0.768   4.127  13.543 -0.0199  0.7035 -0.3717
 6158TIP3    H139965   0.720   4.049  13.513 -1.5575  1.5682 -0.2120
 6158TIP3    H239966   0.855   4.094  13.564 -0.3377 -0.7995 -1.2675
 6159TIP3   OH239967   6.375   5.875  11.876  0.0338  0.1982 -0.0425
 6159TIP3    H139968   6.427   5.927  11.816  1.2931 -1.7350 -0.6399
 6159TIP3    H239969   6.285   5.905  11.861  0.5696  1.2185 -1.3437
 6160TIP3   OH239970   3.449   3.893  15.929 -0.2797  0.0309 -0.4748
 6160TIP3    H139971   3.477   3.971  15.882  1.4916  0.4290  1.2150
 6160TIP3    H239972   3.529   3.842  15.941 -0.5544  0.2468  2.6796
 6161TIP3   OH239973   6.170   4.789  11.268 -0.7994  1.0059  0.0395
 6161TIP3    H139974   6.091   4.741  11.295 -0.2339  0.8424  1.4587
 6161TIP3    H239975   6.200   4.743  11.189 -1.7972  0.7138 -0.1765
 6162TIP3   OH239976   0.377   2.237   5.696 -0.1974  0.5060  0.0270
 6162TIP3    H139977   0.411   2.148   5.705 -1.9154 -0.2247 -0.5392
 6162TIP3    H239978   0.341   2.258   5.783 -1.8456 -0.2403 -0.4553
 6163TIP3   OH239979   5.427   3.343  12.150 -0.1587 -0.2679  0.1069
 6163TIP3    H139980   5.464   3.419  12.105  1.4206 -0.7164  0.5976
 6163TIP3    H239981   5.490   3.273  12.134 -0.8212 -1.0741  0.9600
 6164TIP3   OH239982   2.749   4.870  17.026  0.0222 -0.3775 -0.4360
 6164TIP3    H139983   2.822   4.825  16.985  0.8092 -1.4674  2.0301
 6164TIP3    H239984   2.764   4.963  17.009  1.1113 -0.7159 -1.3141
 6165TIP3   OH239985   2.413   1.469   3.659 -0.2459  0.3561 -0.1897
 6165TIP3    H139986   2.371   1.385   3.646  0.3941 -0.1164  0.7689
 6165TIP3    H239987   2.416   1.508   3.571 -2.6832  0.4285 -0.2664
 6166TIP3   OH239988   5.932   5.905  13.972 -0.1022 -0.6615  0.1940
 6166TIP3    H139989   5.896   5.994  13.968 -1.6126 -1.2942 -1.0005
 6166TIP3    H239990   6.014   5.910  13.924  0.0407  0.1913  0.5219
 6167TIP3   OH239991   4.421   4.637  17.087 -0.5707  0.1032 -0.4690
 6167TIP3    H139992   4.475   4.650  17.164 -0.0695 -1.3384 -0.5602
 6167TIP3    H239993   4.469   4.681  17.016  0.6270 -1.3638 -0.5991
 6168TIP3   OH239994   0.866   6.608  15.796  0.0409 -0.1392 -0.8632
 6168TIP3    H139995   0.902   6.544  15.734 -2.3196 -0.9790 -1.4179
 6168TIP3    H239996   0.782   6.634  15.758 -0.5950  0.7355  1.0662
 6169TIP3   OH239997   1.094   6.427   4.460  0.5718  0.0132 -0.2746
 6169TIP3    H139998   1.015   6.430   4.406  0.1727 -0.8038  0.2674
 6169TIP3    H239999   1.150   6.362   4.417  0.6265  0.0204 -0.2141
 6170TIP3   OH240000   6.281   3.737   5.091 -0.4101  0.1905 -0.1261
 6170TIP3    H140001   6.300   3.716   5.183  1.0111  0.2035 -0.4136
 6170TIP3    H240002   6.201   3.687   5.072 -1.2063  0.8568  1.3575
 6171TIP3   OH240003   6.634   1.064   2.966 -0.1103 -0.2749 -0.1578
 6171TIP3    H140004   6.632   1.108   2.881 -0.2804 -1.1378 -0.6161
 6171TIP3    H240005   6.577   1.117   3.022 -1.0421 -0.4113 -0.9524
 6172TIP3   OH240006   1.894   2.025   5.177  0.0343 -0.6306  0.3778
 6172TIP3    H140007   1.966   2.027   5.114 -0.3003  0.1266  0.0124
 6172TIP3    H240008   1.821   2.067   5.132 -0.0448  0.4405  1.4538
 6173TIP3   OH240009   5.203   4.771   1.577 -0.7620 -0.1546 -0.0998
 6173TIP3    H140010   5.251   4.769   1.494 -0.1280 -0.3274  0.2688
 6173TIP3    H240011   5.253   4.713   1.635 -0.8105  0.5101  0.6190
 6174TIP3   OH240012   1.379   1.646   5.201 -0.6380 -0.0136 -0.9754
 6174TIP3    H140013   1.332   1.722   5.234  1.6536  0.8900  0.2992
 6174TIP3    H240014   1.464   1.681   5.173 -0.1019 -1.8678 -1.7311
 6175TIP3   OH240015   4.858   1.483  16.709 -0.5450  0.5681 -0.1056
 6175TIP3    H140016   4.763   1.470  16.709 -0.6251  0.9455  1.5501
 6175TIP3    H240017   4.894   1.399  16.736 -0.4604  0.6536  0.0504
 6176TIP3   OH240018   0.083   5.024   0.039 -0.1582 -0.1800  0.5023
 6176TIP3    H140019   0.129   4.941   0.024  1.5096  0.9783 -1.0588
 6176TIP3    H240020  -0.006   5.008   0.007  1.2733 -0.1559 -3.8889
 6177TIP3   OH240021   1.241   5.582  14.784 -0.1757 -0.0547  0.4901
 6177TIP3    H140022   1.281   5.495  14.779 -1.6109 -0.7643  1.1437
 6177TIP3    H240023   1.158   5.568  14.830 -1.5957  1.2158 -1.5635
 6178TIP3   OH240024   5.916   0.678  14.573 -0.5976  0.2429 -0.2732
 6178TIP3    H140025   5.822   0.673  14.592 -0.6170  0.9801 -0.1769
 6178TIP3    H240026   5.944   0.761  14.611 -0.1967  0.7201 -1.5778
 6179TIP3   OH240027   0.697   0.346  14.011 -0.2476  0.0234  0.0020
 6179TIP3    H140028   0.679   0.404  13.938 -0.3369 -0.5673 -0.4454
 6179TIP3    H240029   0.733   0.404  14.079  0.7261  0.4230 -0.8359
 6180TIP3   OH240030   0.350   1.528   2.889 -0.0897 -0.2931  0.5806
 6180TIP3    H140031   0.381   1.439   2.905  3.0168  0.7514  0.5124
 6180TIP3    H240032   0.372   1.545   2.797 -2.2285 -0.0147  0.0692
 6181TIP3   OH240033   6.080   1.827  12.266  0.5682  0.3714 -0.6354
 6181TIP3    H140034   6.171   1.847  12.249  0.8081 -1.3440 -1.4905
 6181TIP3    H240035   6.046   1.903  12.312  1.5690  2.4265 -3.2004
 6182TIP3   OH240036   2.913   2.271  13.385  0.0547 -0.3111  0.7202
 6182TIP3    H140037   2.889   2.184  13.353 -0.1846  0.0232 -0.0194
 6182TIP3    H240038   3.008   2.269  13.391  0.1124 -0.3071 -0.2159
 6183TIP3   OH240039   6.592   0.763  14.559  0.7798  0.1030 -0.4467
 6183TIP3    H140040   6.527   0.826  14.589 -0.9135 -1.2316 -1.2266
 6183TIP3    H240041   6.619   0.796  14.473 -0.9612 -0.8068 -1.3771
 6184TIP3   OH240042   4.385   3.224  15.578  0.6205  0.3252 -0.0188
 6184TIP3    H140043   4.453   3.288  15.558  3.4589 -2.8339 -0.9061
 6184TIP3    H240044   4.415   3.181  15.658  0.1102 -1.6509 -0.8516
 6185TIP3   OH240045   5.299   1.495  15.571 -0.0309  0.1228 -0.5228
 6185TIP3    H140046   5.353   1.464  15.643  0.7460 -0.2826 -1.2706
 6185TIP3    H240047   5.347   1.570  15.535  0.2431 -0.4709 -1.4292
 6186TIP3   OH240048   1.845   4.621   4.960  0.0559  0.1838  0.0115
 6186TIP3    H140049   1.907   4.629   4.888  1.3299  0.5063  1.1278
 6186TIP3    H240050   1.820   4.529   4.960 -0.3228  0.2797 -1.1367
 6187TIP3   OH240051   1.532   0.194   5.601 -0.3072  0.3550 -0.0204
 6187TIP3    H140052   1.585   0.194   5.521  1.6510 -0.3952  1.2289
 6187TIP3    H240053   1.521   0.101   5.623 -0.6102  0.5536  0.7113
 6188TIP3   OH240054   0.547   3.939  11.627 -0.1166 -0.4387  0.3759
 6188TIP3    H140055   0.612   3.925  11.696 -0.4877 -0.3953  0.7398
 6188TIP3    H240056   0.479   3.992  11.669  0.6172  1.3068 -0.6012
 6189TIP3   OH240057   2.924   0.935  12.348 -0.1839  0.3750  0.3742
 6189TIP3    H140058   2.913   0.880  12.426 -1.7308 -0.6889 -0.5571
 6189TIP3    H240059   2.838   0.933  12.305  0.8821  0.2117 -1.8231
 6190TIP3   OH240060   5.740   2.339  16.041 -0.2895  0.2382  0.0968
 6190TIP3    H140061   5.744   2.260  16.096  0.2024 -0.3788 -0.8082
 6190TIP3    H240062   5.831   2.354  16.015 -0.7387 -0.5172 -1.9940
 6191TIP3   OH240063   4.074   0.863  16.879 -0.2354  0.1943 -0.1974
 6191TIP3    H140064   4.040   0.779  16.848 -0.8657  1.1448 -2.1525
 6191TIP3    H240065   4.076   0.854  16.974 -4.0217 -0.6588 -0.1140
 6192TIP3   OH240066   5.905   2.154   1.146 -0.3176  0.1137 -0.3722
 6192TIP3    H140067   5.874   2.075   1.101  1.4239  0.4758 -2.2495
 6192TIP3    H240068   5.852   2.157   1.226 -3.3560 -0.6423 -2.2501
 6193TIP3   OH240069   6.792   5.107  14.800  0.0583 -0.5222  0.0328
 6193TIP3    H140070   6.708   5.122  14.757 -0.1308  1.1999  0.9626
 6193TIP3    H240071   6.837   5.045  14.742  0.1958  2.4397 -3.1925
 6194TIP3   OH240072   5.613   6.505   5.083 -0.1825  0.4151  0.8404
 6194TIP3    H140073   5.607   6.410   5.096 -0.8625  0.0550 -1.7818
 6194TIP3    H240074   5.523   6.535   5.087  0.1274  1.1747  2.8709
 6195TIP3   OH240075   2.852   2.474  16.775 -0.2961  0.1729 -0.2909
 6195TIP3    H140076   2.781   2.414  16.796 -1.1291  0.5544 -1.9242
 6195TIP3    H240077   2.927   2.442  16.826 -0.6732 -2.3574 -1.2558
 6196TIP3   OH240078   3.974   6.387   4.822  0.2991 -0.4714 -0.5341
 6196TIP3    H140079   4.003   6.426   4.740 -1.1574 -0.9526 -1.2984
 6196TIP3    H240080   3.878   6.389   4.817  0.1975 -1.3628  0.7376
 6197TIP3   OH240081   6.392   2.205  14.140 -0.2414 -0.4150 -0.6969
 6197TIP3    H140082   6.312   2.235  14.097 -0.6165 -1.6247 -0.8564
 6197TIP3    H240083   6.460   2.265  14.108 -1.4379  2.0358  1.1815
 6198TIP3   OH240084   0.177   5.899  15.295 -0.0931 -0.0331  0.6314
 6198TIP3    H140085   0.134   5.846  15.362 -0.6787 -0.4884 -0.0932
 6198TIP3    H240086   0.108   5.954  15.260  0.1980  0.1605  0.3569
 6199TIP3   OH240087   3.250   0.311   1.747  0.4354  0.1025  0.1563
 6199TIP3    H140088   3.293   0.369   1.684  0.0078  0.5320  0.2465
 6199TIP3    H240089   3.321   0.277   1.802  0.6399  0.9469  0.4244
 6200TIP3   OH240090   3.560   1.818  12.705  0.2512  0.0717 -0.3830
 6200TIP3    H140091   3.572   1.857  12.792  2.5028  0.5315 -0.8751
 6200TIP3    H240092   3.466   1.802  12.699  0.4295 -2.9192  3.3672
 6201TIP3   OH240093   6.253   2.721   2.635 -0.1405  0.7467  0.9082
 6201TIP3    H140094   6.195   2.654   2.597  0.6007  0.7794 -0.3085
 6201TIP3    H240095   6.277   2.686   2.720 -0.1691 -0.3092  0.4933
 6202TIP3   OH240096   1.005   5.338  11.248 -0.2824  0.4576  0.1388
 6202TIP3    H140097   0.967   5.403  11.189 -2.2150  0.0458  0.9121
 6202TIP3    H240098   1.099   5.340  11.228 -0.7561  1.0793 -2.1874
 6203TIP3   OH240099   3.358   5.843  11.412  0.0295 -0.2808  0.4705
 6203TIP3    H140100   3.327   5.765  11.458  0.0137 -0.9871 -0.6889
 6203TIP3    H240101   3.279   5.894  11.396  0.1202  0.2799  1.7770
 6204TIP3   OH240102   3.793   3.759  13.496  0.6547  0.3245  0.0208
 6204TIP3    H140103   3.833   3.695  13.554 -0.6784  1.8917  2.7598
 6204TIP3    H240104   3.717   3.713  13.459  1.6694 -0.7710 -0.7418
 6205TIP3   OH240105   5.101   4.112   1.084  0.0489  0.0369 -0.1848
 6205TIP3    H140106   5.038   4.179   1.058 -0.6154 -0.2719  0.6146
 6205TIP3    H240107   5.185   4.145   1.053 -0.4791  0.5055 -1.1622
 6206TIP3   OH240108   1.985   5.916   2.579 -0.4024  0.5123  0.6431
 6206TIP3    H140109   2.049   5.875   2.638  0.9841  0.9626 -0.5259
 6206TIP3    H240110   1.975   5.854   2.507  0.1927  1.3021 -0.1311
 6207TIP3   OH240111   5.985   4.465  14.488 -0.1134 -0.1822  0.1212
 6207TIP3    H140112   5.969   4.414  14.408 -3.6123  1.2332 -0.1551
 6207TIP3    H240113   5.931   4.423  14.554 -0.0778  0.8993  0.8355
 6208TIP3   OH240114   1.776   1.784  16.662  0.0151  0.2871 -0.1667
 6208TIP3    H140115   1.733   1.860  16.700  0.8817 -0.1650  1.7692
 6208TIP3    H240116   1.722   1.761  16.586 -1.4288  1.5342  0.4639
 6209TIP3   OH240117   5.249   2.936  15.096 -0.1744  0.4995 -0.0708
 6209TIP3    H140118   5.169   2.902  15.057 -1.0110  0.7155  1.4392
 6209TIP3    H240119   5.231   3.029  15.110  0.2173  0.4807  0.5797
 6210TIP3   OH240120   4.704   2.727  12.840 -0.1659  0.7190 -0.5770
 6210TIP3    H140121   4.791   2.746  12.803 -0.0107 -0.1229 -0.6640
 6210TIP3    H240122   4.656   2.687  12.767 -0.2078  0.0179 -0.1629
 6211TIP3   OH240123   2.332   6.620   3.026 -0.5987  0.0256 -0.1183
 6211TIP3    H140124   2.365   6.544   2.979 -1.0276 -0.8617  0.9869
 6211TIP3    H240125   2.351   6.695   2.969  1.6075 -0.6745 -0.3387
 6212TIP3   OH240126   5.776   1.434  16.174  0.0715 -0.5912 -0.9500
 6212TIP3    H140127   5.785   1.361  16.113 -0.1566 -1.3230 -0.1143
 6212TIP3    H240128   5.730   1.502  16.124 -1.7701 -1.8739 -1.0173
 6213TIP3   OH240129   0.060   1.146  16.862 -0.3883  0.4154 -0.0117
 6213TIP3    H140130  -0.030   1.139  16.893 -0.1096  1.7813  1.1379
 6213TIP3    H240131   0.081   1.239  16.868  1.5318 -0.0506  0.9716
 6214TIP3   OH240132   5.653   4.499   1.076  0.4153 -0.1796  0.1855
 6214TIP3    H140133   5.726   4.444   1.102 -0.7843  0.2242  5.1007
 6214TIP3    H240134   5.575   4.450   1.103 -0.9851  0.9801 -1.5999
 6215TIP3   OH240135   0.167   6.297   3.200 -0.0792 -0.2440  0.0063
 6215TIP3    H140136   0.206   6.364   3.256 -3.4262  1.0900  0.8336
 6215TIP3    H240137   0.087   6.338   3.166 -2.2613 -3.8157  0.6137
 6216TIP3   OH240138   5.998   3.881   1.739 -0.4623  0.0900 -0.0215
 6216TIP3    H140139   6.034   3.957   1.784 -0.8900  0.3600 -0.1285
 6216TIP3    H240140   6.013   3.900   1.646 -0.8277  0.1833 -0.0642
 6217TIP3   OH240141   4.637   4.567   1.372  0.6833 -0.6615  0.7753
 6217TIP3    H140142   4.674   4.635   1.430  1.6883 -0.6080  0.0762
 6217TIP3    H240143   4.551   4.550   1.409  0.2599  1.2697  0.7594
 6218TIP3   OH240144   6.585   4.945   4.136 -0.7887  0.0534 -0.0805
 6218TIP3    H140145   6.563   4.978   4.223  0.9662  0.4064  0.2520
 6218TIP3    H240146   6.568   4.851   4.141 -1.3916  0.1881  0.4181
 6219TIP3   OH240147   5.945   3.284   3.620  0.0610  0.1421  0.0448
 6219TIP3    H140148   5.929   3.281   3.715 -0.0759  1.1065  0.0509
 6219TIP3    H240149   5.942   3.192   3.593  1.8996 -0.3287  1.2795
 6220TIP3   OH240150   5.015   3.157  12.889  0.0247 -0.4182  0.7082
 6220TIP3    H140151   4.932   3.200  12.908 -0.4454 -0.9444 -0.1284
 6220TIP3    H240152   5.077   3.197  12.949 -0.5739  0.8858  0.4734
 6221TIP3   OH240153   6.215   1.811  15.539  0.0305  0.2151 -0.3003
 6221TIP3    H140154   6.167   1.808  15.622  0.2455  0.1148 -0.1784
 6221TIP3    H240155   6.290   1.752  15.553 -0.1661 -0.1395 -0.7114
 6222TIP3   OH240156   1.219   0.239  15.687 -0.3182  0.0626  0.4121
 6222TIP3    H140157   1.138   0.238  15.636 -0.0056 -1.7818 -0.0931
 6222TIP3    H240158   1.198   0.290  15.765 -0.9378  2.5963 -1.3419
 6223TIP3   OH240159   4.846   5.458  14.970  0.4124  0.3403 -0.7595
 6223TIP3    H140160   4.906   5.385  14.987  0.9923  0.7710 -0.9368
 6223TIP3    H240161   4.870   5.490  14.883  0.9805  1.5080 -0.1975
 6224TIP3   OH240162   4.856   0.606  16.638  0.0490  0.3095 -0.4454
 6224TIP3    H140163   4.846   0.692  16.597  1.5170  0.6070 -0.1745
 6224TIP3    H240164   4.943   0.577  16.613  0.1142 -0.4758  0.6720
 6225TIP3   OH240165   3.023   3.090  11.593  0.3695  0.1338 -0.2331
 6225TIP3    H140166   2.977   3.171  11.615  0.0028 -0.3057  0.6621
 6225TIP3    H240167   3.116   3.114  11.594  0.4773 -0.1310  3.1779
 6226TIP3   OH240168   0.412   4.979  12.671  0.1824  0.7272 -0.2570
 6226TIP3    H140169   0.466   4.931  12.734  0.5858  0.6580 -0.6506
 6226TIP3    H240170   0.363   5.041  12.724 -0.8798 -0.5970  0.3548
 6227TIP3   OH240171   0.457   3.207   3.818 -0.3065 -0.4251 -0.0211
 6227TIP3    H140172   0.517   3.263   3.866  0.7754 -0.3189 -1.4553
 6227TIP3    H240173   0.424   3.262   3.747  0.8709 -1.5956 -1.5277
 6228TIP3   OH240174   6.414   5.348  16.805  0.0680  0.0087 -0.2449
 6228TIP3    H140175   6.482   5.281  16.801 -1.7714 -2.0053  0.9301
 6228TIP3    H240176   6.430   5.394  16.888 -1.9826 -2.7826  1.8245
 6229TIP3   OH240177   2.522   5.866  11.243 -0.1496 -0.9347 -0.1096
 6229TIP3    H140178   2.545   5.833  11.156 -0.0172  2.4715 -1.4418
 6229TIP3    H240179   2.432   5.837  11.256 -1.1725  0.8675 -2.6420
 6230TIP3   OH240180   4.169   5.462   5.750 -0.0666 -0.1423 -0.5519
 6230TIP3    H140181   4.077   5.460   5.723 -0.3580  0.9260  0.3455
 6230TIP3    H240182   4.189   5.555   5.762  1.0483 -0.3884 -0.4544
 6231TIP3   OH240183   5.331   1.069   6.470  0.1152 -0.1154  0.8790
 6231TIP3    H140184   5.376   1.001   6.520  1.4698 -1.5344 -2.1206
 6231TIP3    H240185   5.382   1.149   6.487  1.5528 -0.9241  0.4964
 6232TIP3   OH240186   3.215   2.742   3.730 -0.4517 -0.1057  0.7832
 6232TIP3    H140187   3.206   2.830   3.693  1.4617  0.0870  0.7234
 6232TIP3    H240188   3.284   2.701   3.678  1.4201 -0.2724  3.3152
 6233TIP3   OH240189   1.843   6.193   3.748  0.2222  0.0242 -0.2443
 6233TIP3    H140190   1.838   6.151   3.833  0.1521 -0.4506 -0.4844
 6233TIP3    H240191   1.771   6.155   3.697 -0.8197  1.5387  0.0334
 6234TIP3   OH240192   6.554   6.385  12.323 -0.4276  0.4251  0.5104
 6234TIP3    H140193   6.516   6.392  12.236 -0.1009 -1.9155  0.1638
 6234TIP3    H240194   6.578   6.475  12.346 -2.0326  1.2991 -1.1067
 6235TIP3   OH240195   5.384   6.772   6.243  0.3260 -0.1390  0.5753
 6235TIP3    H140196   5.309   6.806   6.195  0.5859 -0.3438  0.0194
 6235TIP3    H240197   5.347   6.741   6.326 -0.5600 -2.2682 -0.5822
 6236TIP3   OH240198   0.035   1.649  15.527 -0.1752 -0.0663  0.0207
 6236TIP3    H140199   0.005   1.636  15.437 -0.6751  1.2314 -0.0172
 6236TIP3    H240200   0.003   1.736  15.550 -2.5607 -1.5322  2.4825
 6237TIP3   OH240201   5.670   5.792   2.890 -0.4265 -0.1362  0.8460
 6237TIP3    H140202   5.744   5.742   2.854  0.0943 -0.4114  2.2428
 6237TIP3    H240203   5.638   5.737   2.962 -1.6862  0.2154  0.5576
 6238TIP3   OH240204   6.031   3.077  11.789  0.0467  0.1486  0.3432
 6238TIP3    H140205   5.966   3.032  11.734 -0.8716 -2.1089  3.1036
 6238TIP3    H240206   5.997   3.166  11.799 -2.1114 -0.6882  0.8236
 6239TIP3   OH240207   4.413   0.748  17.047 -0.1454 -0.5375  0.4291
 6239TIP3    H140208   4.346   0.697  17.003  0.3860  0.0689 -1.0976
 6239TIP3    H240209   4.432   0.699  17.127 -2.9706 -0.3095  1.2979
 6240TIP3   OH240210   0.412   0.841  14.055 -0.2041  0.1248 -0.7180
 6240TIP3    H140211   0.488   0.900  14.048  0.6564 -0.9232 -0.3471
 6240TIP3    H240212   0.338   0.899  14.073  0.4869  1.1753 -1.1981
 6241TIP3   OH240213   3.544   0.741  13.617  0.2782  0.8623  0.3069
 6241TIP3    H140214   3.571   0.833  13.606  3.2601  0.0916  0.6843
 6241TIP3    H240215   3.559   0.723  13.710  0.1756 -0.1536  0.1273
 6242TIP3   OH240216   6.491   5.778   1.786  0.5571 -0.3749  0.4044
 6242TIP3    H140217   6.468   5.823   1.705 -0.1112  0.8308  1.2453
 6242TIP3    H240218   6.560   5.717   1.761  0.8696  0.5100 -0.9279
 6243TIP3   OH240219   1.875   4.576  17.174  0.0157 -0.0644 -0.2656
 6243TIP3    H140220   1.923   4.612  17.248 -0.3624 -1.6062  0.7521
 6243TIP3    H240221   1.892   4.637  17.102 -0.1087  1.7944  1.2332
 6244TIP3   OH240222   5.618   1.442   5.006  0.6145 -0.0136  0.2446
 6244TIP3    H140223   5.568   1.502   4.951  1.1422 -0.0132 -0.2365
 6244TIP3    H240224   5.558   1.418   5.076 -0.2012 -0.3162 -0.5485
 6245TIP3   OH240225   6.512   0.969  15.691  0.8518 -0.2487  0.2964
 6245TIP3    H140226   6.591   0.938  15.646  0.2664  2.2274 -2.6102
 6245TIP3    H240227   6.441   0.944  15.633 -0.0319  2.1308  0.3211
 6246TIP3   OH240228   4.974   5.713   5.998 -0.5362  0.5921 -0.1616
 6246TIP3    H140229   4.911   5.667   5.943  1.0016  1.0560 -2.3803
 6246TIP3    H240230   4.990   5.653   6.071 -2.7374  0.0378 -0.1028
 6247TIP3   OH240231   4.796   0.551   4.497  0.7323 -0.0539  0.1212
 6247TIP3    H140232   4.815   0.571   4.406 -1.6211  1.3146 -0.0945
 6247TIP3    H240233   4.712   0.593   4.515  0.3177 -1.7211  2.4322
 6248TIP3   OH240234   1.787   5.736   4.374 -0.1766  0.1961  0.2824
 6248TIP3    H140235   1.874   5.775   4.369  1.3526 -3.1077 -0.6898
 6248TIP3    H240236   1.742   5.786   4.442  1.8447  3.1180 -0.4446
 6249TIP3   OH240237   0.644   6.418  14.045  0.1117 -0.2004 -0.2555
 6249TIP3    H140238   0.626   6.511  14.036 -0.8280 -0.3768 -0.2162
 6249TIP3    H240239   0.672   6.390  13.957 -0.6193 -0.0985 -0.5248
 6250TIP3   OH240240   0.420   3.632   2.282  0.4672 -0.3099 -0.6494
 6250TIP3    H140241   0.478   3.706   2.300  0.1979 -0.2471 -0.0409
 6250TIP3    H240242   0.338   3.654   2.326  1.0126 -1.8516  1.1826
 6251TIP3   OH240243   3.000   3.133  15.384 -0.0340 -0.5349  0.2167
 6251TIP3    H140244   2.907   3.127  15.365 -0.0095 -0.9302  0.2156
 6251TIP3    H240245   3.035   3.047  15.362  0.2608 -0.5166  0.6062
 6252TIP3   OH240246   0.208   4.462   3.196 -0.3098  0.8795  0.3340
 6252TIP3    H140247   0.276   4.395   3.190 -0.0984  1.0414  0.8734
 6252TIP3    H240248   0.137   4.419   3.245 -0.3415  0.9152  0.3200
 6253TIP3   OH240249   3.115   3.735  10.671 -0.1792  0.0756  0.0612
 6253TIP3    H140250   3.103   3.640  10.678  1.4878 -0.0322  2.2952
 6253TIP3    H240251   3.206   3.749  10.697 -0.1677  2.2240 -1.0332
 6254TIP3   OH240252   1.227   6.447  15.562  0.0731 -0.5795 -0.1008
 6254TIP3    H140253   1.226   6.366  15.510  1.0083  0.0432 -1.1115
 6254TIP3    H240254   1.309   6.490  15.538 -1.0871  1.3774 -0.6835
 6255TIP3   OH240255   4.557   6.532   4.721  0.0137  0.2859  0.7285
 6255TIP3    H140256   4.495   6.504   4.787  0.6662 -0.6266  0.9580
 6255TIP3    H240257   4.528   6.620   4.696 -1.6240 -0.2979  0.5140
 6256TIP3   OH240258   2.378   0.138   5.735 -0.1618  0.2659  0.6914
 6256TIP3    H140259   2.303   0.087   5.765  0.2908 -0.1594  1.1134
 6256TIP3    H240260   2.347   0.229   5.735 -0.5960  0.1187  1.0982
 6257TIP3   OH240261   2.948   6.012  10.250  0.1396  0.2706 -0.2592
 6257TIP3    H140262   3.027   6.035  10.298  1.6655 -0.4657 -2.3077
 6257TIP3    H240263   2.971   5.930  10.205 -2.6263 -1.3025  1.0469
 6258TIP3   OH240264   1.498   0.493   1.151  0.4050  0.3271  0.1175
 6258TIP3    H140265   1.454   0.520   1.070 -0.5952 -0.2225  0.4603
 6258TIP3    H240266   1.554   0.567   1.173 -0.1688  0.9517 -0.4776
 6259TIP3   OH240267   4.843   0.185  16.803  0.1749  0.4579 -0.0980
 6259TIP3    H140268   4.898   0.249  16.758  2.2643 -0.3404  1.2416
 6259TIP3    H240269   4.842   0.109  16.744 -1.8356  1.4822 -1.4210
 6260TIP3   OH240270   1.183   4.243   4.834  0.4879 -0.5174 -0.0507
 6260TIP3    H140271   1.242   4.169   4.848 -1.5463 -1.9289  1.4619
 6260TIP3    H240272   1.229   4.319   4.870  0.8540 -1.8172  2.3068
 6261TIP3   OH240273   0.267   3.585   5.562 -0.5312  0.0059 -0.3179
 6261TIP3    H140274   0.252   3.549   5.650  1.3698 -0.2989 -0.0913
 6261TIP3    H240275   0.360   3.607   5.561 -0.5498  0.0916 -2.2419
 6262TIP3   OH240276   4.620   6.363  13.715 -0.5842  0.2576  0.3393
 6262TIP3    H140277   4.659   6.431  13.770 -1.5180  0.0728  1.2530
 6262TIP3    H240278   4.635   6.392  13.625 -0.9893  1.6718  0.7246
 6263TIP3   OH240279   0.446   5.673   5.530 -0.3336 -0.4079  0.3818
 6263TIP3    H140280   0.364   5.661   5.480  0.5077 -3.4199 -0.3916
 6263TIP3    H240281   0.488   5.748   5.489 -1.3078 -0.6982 -1.2079
 6264TIP3   OH240282   0.482   2.909  14.179 -0.6458 -0.7128  0.1744
 6264TIP3    H140283   0.534   2.964  14.237 -0.5051 -0.2532 -0.3779
 6264TIP3    H240284   0.392   2.937  14.194 -0.5517 -0.1666 -0.2791
 6265TIP3   OH240285   0.471   4.459  14.835  0.4693  0.7514 -0.2499
 6265TIP3    H140286   0.483   4.371  14.871 -2.8282  0.3170 -0.0108
 6265TIP3    H240287   0.424   4.506  14.904 -0.5026  1.7619 -1.5839
 6266TIP3   OH240288   0.494   4.380   1.045 -0.5808  0.8974 -0.1059
 6266TIP3    H140289   0.501   4.306   0.984  0.0795  1.1326 -0.3228
 6266TIP3    H240290   0.582   4.415   1.049 -0.8888  1.6553  0.0260
 6267TIP3   OH240291   1.262   2.303   0.468 -0.0169  0.4905  0.6661
 6267TIP3    H140292   1.304   2.222   0.437 -0.4207  0.7339 -0.5507
 6267TIP3    H240293   1.171   2.278   0.484 -0.1607  0.7100  0.2132
 6268TIP3   OH240294   3.156   1.019  11.061  0.4435  0.7228 -0.4659
 6268TIP3    H140295   3.178   0.938  11.016 -1.4284  1.1217 -2.1500
 6268TIP3    H240296   3.232   1.076  11.047  1.1628 -0.2165 -0.4658
 6269TIP3   OH240297   1.827   3.656   1.558  0.5924  0.3445 -0.1118
 6269TIP3    H140298   1.875   3.573   1.558 -1.1426 -0.6767 -0.5042
 6269TIP3    H240299   1.828   3.683   1.650  0.2970 -0.6322  0.1870
 6270TIP3   OH240300   1.227   3.415   2.011 -0.4889  0.5737  0.0583
 6270TIP3    H140301   1.205   3.332   2.053  2.5823 -0.1780  0.2741
 6270TIP3    H240302   1.174   3.417   1.931 -1.0598 -1.2827  0.3816
 6271TIP3   OH240303   6.692   5.145  14.439  0.5316 -0.0290 -0.2428
 6271TIP3    H140304   6.716   5.081  14.507  2.4955 -0.1545 -1.0010
 6271TIP3    H240305   6.757   5.215  14.449  0.8721 -0.0870 -2.0247
 6272TIP3   OH240306   5.351   1.075  10.372 -0.6566 -0.2893  0.6829
 6272TIP3    H140307   5.338   1.042  10.461 -0.2754 -1.5515  0.2783
 6272TIP3    H240308   5.347   0.997  10.316  1.4649  0.1830 -0.1730
 6273TIP3   OH240309   3.146   1.297  11.415  0.3284 -0.0607 -0.2418
 6273TIP3    H140310   3.239   1.297  11.392  0.3589  1.3651 -0.2016
 6273TIP3    H240311   3.102   1.262  11.337  0.9084 -0.8879 -0.2009
 6274TIP3   OH240312   4.037   4.160  13.922  0.0528  0.1593 -0.6387
 6274TIP3    H140313   4.000   4.193  14.004 -1.8859 -0.9799 -1.0232
 6274TIP3    H240314   4.103   4.225  13.898  0.8202  0.3908  1.9297
 6275TIP3   OH240315   6.113   5.203   1.004 -0.3790  0.0559 -0.3956
 6275TIP3    H140316   6.148   5.286   1.038  1.8868 -0.7019 -0.7740
 6275TIP3    H240317   6.028   5.193   1.047  0.3433  1.4589  1.4230
 6276TIP3   OH240318   0.420   0.431  15.243 -0.6134 -0.0959 -0.2887
 6276TIP3    H140319   0.392   0.517  15.274  0.5917 -0.3605  1.5865
 6276TIP3    H240320   0.350   0.404  15.183 -1.1968  2.0010 -0.5930
 6277TIP3   OH240321   3.912   3.252  11.887 -0.5198  0.4681  0.6697
 6277TIP3    H140322   3.940   3.301  11.965 -0.3990  0.6356  0.5204
 6277TIP3    H240323   3.974   3.278  11.819 -0.9083  0.6774  0.3960
 6278TIP3   OH240324   2.595   5.704  15.972  0.3695 -0.1089 -0.7502
 6278TIP3    H140325   2.515   5.749  15.946  1.5670  2.7871  0.3542
 6278TIP3    H240326   2.587   5.617  15.934 -3.2966  0.1099 -0.6145
 6279TIP3   OH240327   3.837   6.375  15.363  0.0896 -0.1903 -0.2545
 6279TIP3    H140328   3.830   6.412  15.275  0.9165  1.4107  0.3296
 6279TIP3    H240329   3.887   6.294  15.351 -1.6341 -1.0965 -1.5393
 6280TIP3   OH240330   2.276   4.687  12.261 -0.9961  0.3184  0.3874
 6280TIP3    H140331   2.285   4.776  12.296 -1.8467  0.6844 -0.3019
 6280TIP3    H240332   2.355   4.676  12.207 -0.4899  0.3509  1.1045
 6281TIP3   OH240333   3.226   5.210   4.261 -0.5826  0.2257 -0.5640
 6281TIP3    H140334   3.280   5.246   4.190 -1.7283  2.0632 -0.5177
 6281TIP3    H240335   3.143   5.258   4.255 -1.3652 -0.9135  0.8605
 6282TIP3   OH240336   1.608   0.638  14.774  0.4069 -0.0188 -0.0942
 6282TIP3    H140337   1.592   0.604  14.685 -0.0102  0.0044 -0.0298
 6282TIP3    H240338   1.642   0.726  14.760  0.5835 -0.1077 -0.2373
 6283TIP3   OH240339   2.244   5.765  12.356  0.5861 -0.5974  0.5591
 6283TIP3    H140340   2.215   5.720  12.436  0.2804 -1.0881  0.1695
 6283TIP3    H240341   2.334   5.735  12.343  0.1436 -1.6497 -0.1023
 6284TIP3   OH240342   4.675   4.946   3.436  0.2433 -0.2830  0.4313
 6284TIP3    H140343   4.737   4.969   3.366  1.8018  0.7921  2.1183
 6284TIP3    H240344   4.707   4.863   3.470  0.7054  0.2271  1.2439
 6285TIP3   OH240345   4.239   2.802  14.759 -0.1066  0.1030  0.5067
 6285TIP3    H140346   4.147   2.776  14.759 -0.1428  0.2148 -0.0059
 6285TIP3    H240347   4.273   2.771  14.842 -0.5657 -0.0967  0.6213
 6286TIP3   OH240348   1.785   6.147   0.823  0.6654  0.0613  0.0461
 6286TIP3    H140349   1.773   6.162   0.917  0.4819 -2.8990  0.5729
 6286TIP3    H240350   1.709   6.095   0.797  1.2877 -0.1188 -1.4951
 6287TIP3   OH240351   3.079   1.599  12.658  0.0538 -0.0355 -0.0301
 6287TIP3    H140352   3.119   1.527  12.609  1.2321  1.1802 -0.8867
 6287TIP3    H240353   3.148   1.630  12.717 -0.2600  0.7604 -0.0671
 6288TIP3   OH240354   0.956   1.753  13.333  0.1810 -0.1815  0.1646
 6288TIP3    H140355   0.972   1.697  13.409  0.4369  0.3084  0.4739
 6288TIP3    H240356   1.031   1.812  13.331 -0.2839  0.4027  0.0669
 6289TIP3   OH240357   2.999   2.204   0.379 -0.1529 -0.5983 -0.6823
 6289TIP3    H140358   2.986   2.148   0.304 -0.6099  0.5645 -1.4887
 6289TIP3    H240359   3.094   2.216   0.385 -0.1254 -0.6041 -1.1429
 6290TIP3   OH240360   6.115   2.727  13.010 -0.4555 -0.2246 -0.4314
 6290TIP3    H140361   6.030   2.755  12.976 -1.2520 -2.4323 -0.2838
 6290TIP3    H240362   6.162   2.693  12.934 -0.0305  0.1686 -0.3490
 6291TIP3   OH240363   0.748   4.963  15.660 -0.2985  0.0967 -0.1427
 6291TIP3    H140364   0.751   4.950  15.755  1.3783 -0.3679 -0.2554
 6291TIP3    H240365   0.758   5.057  15.648  0.4985  0.0461  0.1046
 6292TIP3   OH240366   6.133   6.820  13.525 -0.4897  0.0529  0.5228
 6292TIP3    H140367   6.183   6.742  13.549 -1.6961 -0.4134  1.6729
 6292TIP3    H240368   6.137   6.875  13.603 -4.2611 -1.3579  1.8915
 6293TIP3   OH240369   5.365   3.977   0.947  0.1512 -0.2795 -0.3777
 6293TIP3    H140370   5.326   3.891   0.957 -0.1685  0.0161  1.1072
 6293TIP3    H240371   5.421   3.970   0.870 -2.8274 -0.7158 -2.5600
 6294TIP3   OH240372   1.848   5.702   1.932  0.1672  0.8455  0.4662
 6294TIP3    H140373   1.908   5.742   1.868 -0.0232 -1.5060 -1.2477
 6294TIP3    H240374   1.868   5.746   2.014  0.9258  3.4458 -1.0591
 6295TIP3   OH240375   3.503   4.641   1.507 -0.4941 -0.4177 -0.1633
 6295TIP3    H140376   3.593   4.664   1.533  0.4519 -2.0935 -1.8343
 6295TIP3    H240377   3.497   4.547   1.523 -1.5621 -0.5328 -1.2028
 6296TIP3   OH240378   4.238   0.086   1.032  0.3411  0.9813  0.2709
 6296TIP3    H140379   4.184   0.132   1.097  0.0914  2.1734 -0.7653
 6296TIP3    H240380   4.227  -0.007   1.054 -1.3791  1.2527  0.6634
 6297TIP3   OH240381   0.046   5.230   6.770 -0.0322 -0.2833  0.3227
 6297TIP3    H140382   0.124   5.233   6.826  1.0958 -2.2819 -1.0590
 6297TIP3    H240383   0.047   5.142   6.732 -2.7440 -0.1964 -0.0593
 6298TIP3   OH240384   1.196   1.597  12.520  0.1329  0.3162 -0.7433
 6298TIP3    H140385   1.123   1.621  12.464 -0.9442 -0.3019  0.3599
 6298TIP3    H240386   1.225   1.512  12.487  0.1891  0.4431 -1.0194
 6299TIP3   OH240387   4.486   5.046   5.716 -0.0375 -0.7236 -1.1806
 6299TIP3    H140388   4.526   5.006   5.794  0.4394  0.9419 -0.5419
 6299TIP3    H240389   4.424   5.109   5.751  0.9463  0.7963 -2.1376
 6300TIP3   OH240390   0.432   2.044   2.787  0.0430 -0.4007 -0.2343
 6300TIP3    H140391   0.351   2.027   2.835 -0.2520 -0.9514 -0.9116
 6300TIP3    H240392   0.404   2.090   2.708  0.7158  2.1209  0.9547
 6301TIP3   OH240393   2.844   5.039   5.275  0.1175 -0.0065 -0.6025
 6301TIP3    H140394   2.929   5.055   5.235  1.1032  0.8699  1.7900
 6301TIP3    H240395   2.855   5.062   5.367 -2.0465 -2.1580  0.2574
 6302TIP3   OH240396   2.788   5.483   2.347 -0.2385 -0.2351  0.4024
 6302TIP3    H140397   2.765   5.428   2.272 -0.9513 -1.8333  1.7846
 6302TIP3    H240398   2.884   5.488   2.344 -0.2709 -0.0580 -0.7521
 6303TIP3   OH240399   6.788   5.615  15.116 -0.6588  0.2712  0.0357
 6303TIP3    H140400   6.712   5.591  15.168 -0.6164  0.7788  0.3405
 6303TIP3    H240401   6.768   5.703  15.084  0.5123  1.0905  1.4901
 6304TIP3   OH240402   2.846   5.693  16.968 -0.1655  0.0471 -0.2044
 6304TIP3    H140403   2.912   5.711  16.901 -1.3458 -0.2134 -1.4900
 6304TIP3    H240404   2.801   5.614  16.935 -0.8984  0.0386  0.7981
 6305TIP3   OH240405   0.705   2.158   0.985 -0.7221  0.0950  0.4715
 6305TIP3    H140406   0.756   2.081   0.960 -0.8837  0.2203 -0.2345
 6305TIP3    H240407   0.657   2.130   1.063  1.2890  0.3225  1.8428
 6306TIP3   OH240408   4.934   0.233   2.600 -0.2402 -0.1087  0.1375
 6306TIP3    H140409   4.924   0.319   2.642  2.4934 -0.1575  0.9798
 6306TIP3    H240410   4.876   0.175   2.650 -1.6297  1.0881 -0.0454
 6307TIP3   OH240411   3.693   1.366   2.522 -0.0007  0.4469  0.2893
 6307TIP3    H140412   3.669   1.373   2.429 -1.7432  0.4673  0.7269
 6307TIP3    H240413   3.760   1.434   2.534  0.9911 -0.2553 -1.1850
 6308TIP3   OH240414   3.616   6.315  15.862  0.3215 -0.3172 -0.1219
 6308TIP3    H140415   3.560   6.277  15.796 -0.6009 -1.4130  1.2602
 6308TIP3    H240416   3.558   6.369  15.915  1.1020  0.7961 -0.3804
 6309TIP3   OH240417   4.239   4.905  12.482 -0.4321 -0.4732 -0.9416
 6309TIP3    H140418   4.314   4.870  12.434 -1.3168  0.0230 -2.7546
 6309TIP3    H240419   4.177   4.832  12.486 -0.5581 -0.3709 -1.0193
 6310TIP3   OH240420   4.742   1.007  12.670 -0.4671  0.6173  0.2341
 6310TIP3    H140421   4.708   0.928  12.713 -0.9391 -0.4720 -2.0474
 6310TIP3    H240422   4.664   1.059  12.650 -0.2517  1.1229  0.7078
 6311TIP3   OH240423   0.907   6.110   4.058  0.8020 -0.0113 -0.4398
 6311TIP3    H140424   0.964   6.179   4.090 -0.5969  0.5149  1.0090
 6311TIP3    H240425   0.851   6.089   4.133  0.7266 -2.2018 -1.0854
 6312TIP3   OH240426   0.621   4.536   5.859  0.2123  0.0382 -0.6047
 6312TIP3    H140427   0.610   4.589   5.938 -0.4746  0.1058 -0.7433
 6312TIP3    H240428   0.618   4.445   5.890 -1.0222  0.0524 -0.6727
 6313TIP3   OH240429   0.164   5.786   3.744 -0.6065  0.0449  0.3528
 6313TIP3    H140430   0.140   5.701   3.782  0.4766 -0.9632 -1.1695
 6313TIP3    H240431   0.083   5.838   3.748 -1.0718 -0.7731  2.0114
 6314TIP3   OH240432   2.272   5.927  16.702  0.1493  0.1734 -0.0069
 6314TIP3    H140433   2.191   5.877  16.704  0.5903 -0.5479 -0.0584
 6314TIP3    H240434   2.335   5.875  16.751  1.1048 -0.2135 -1.5782
 6315TIP3   OH240435   5.045   5.166   3.656  0.3481 -0.0946 -0.0117
 6315TIP3    H140436   4.957   5.201   3.665  0.5839  0.6586 -0.5856
 6315TIP3    H240437   5.037   5.099   3.588 -0.4690 -2.4593  2.3687
 6316TIP3   OH240438   4.656   2.798   3.189 -0.0209 -0.2472  0.0351
 6316TIP3    H140439   4.616   2.754   3.264  1.3690  0.6165  1.2948
 6316TIP3    H240440   4.750   2.793   3.205  0.2771  0.2446 -1.4825
 6317TIP3   OH240441   2.145   1.221   4.415 -0.0376 -0.0523  0.8764
 6317TIP3    H140442   2.053   1.203   4.434  0.2624 -1.0991  1.4014
 6317TIP3    H240443   2.159   1.311   4.444 -1.3751  0.7932 -1.0346
 6318TIP3   OH240444   0.792   3.374  11.158 -0.4401 -0.2576 -0.1898
 6318TIP3    H140445   0.796   3.376  11.253  0.4558  0.1430 -0.2312
 6318TIP3    H240446   0.721   3.434  11.136  1.0059  1.5806  0.1271
 6319TIP3   OH240447   1.145   5.660   3.309 -0.3464  0.7127 -0.1201
 6319TIP3    H140448   1.181   5.617   3.232 -1.4548 -0.6514  0.1069
 6319TIP3    H240449   1.181   5.749   3.306  0.0503  0.5077 -1.9071
 6320TIP3   OH240450   0.817   5.212   6.679 -0.4138  0.6462  0.5255
 6320TIP3    H140451   0.844   5.236   6.591 -0.5540 -1.3166 -0.0849
 6320TIP3    H240452   0.860   5.128   6.695 -0.3188  1.0147  2.3649
 6321TIP3   OH240453   3.384   4.980   4.319  0.5386  0.2834  0.2458
 6321TIP3    H140454   3.302   5.027   4.307  0.4531  0.5812  1.9195
 6321TIP3    H240455   3.357   4.893   4.348  0.7554 -0.3701 -1.4088
 6322TIP3   OH240456   3.707   4.184  11.357 -0.2136  0.3531  0.2943
 6322TIP3    H140457   3.778   4.129  11.388  0.2600  0.8737  0.1317
 6322TIP3    H240458   3.739   4.274  11.367  0.0949  0.5383 -2.0133
 6323TIP3   OH240459   3.759   6.504   5.872 -0.3942 -0.1546 -0.1474
 6323TIP3    H140460   3.843   6.548   5.882 -0.9201  1.4824 -2.5097
 6323TIP3    H240461   3.733   6.481   5.961  1.4844  1.3175  0.8174
 6324TIP3   OH240462   2.222   3.537   4.576 -0.2050 -0.0806 -0.2110
 6324TIP3    H140463   2.153   3.598   4.602 -3.0103 -2.6187 -1.4242
 6324TIP3    H240464   2.277   3.528   4.654 -2.8346 -0.0867  1.6966
 6325TIP3   OH240465   0.091   1.488  11.356  0.2254 -0.0914  0.0875
 6325TIP3    H140466   0.056   1.570  11.319  0.1342 -0.4874 -0.7281
 6325TIP3    H240467   0.041   1.475  11.437  0.9338  1.1693  0.7400
 6326TIP3   OH240468   2.182   0.615   1.758  0.6077 -0.5035  0.4058
 6326TIP3    H140469   2.130   0.673   1.813  2.3353  2.0686 -0.5919
 6326TIP3    H240470   2.237   0.566   1.819  0.3608  0.1646  1.1690
 6327TIP3   OH240471   3.709   1.650   6.553 -0.2838 -0.3534  0.0236
 6327TIP3    H140472   3.670   1.562   6.556 -0.3028 -0.3107  1.0813
 6327TIP3    H240473   3.638   1.708   6.581  0.1809 -0.1553  0.8013
 6328TIP3   OH240474   3.115   1.385  16.606  0.2102  0.5299  0.0088
 6328TIP3    H140475   3.205   1.403  16.578 -0.1073  1.7916 -0.2260
 6328TIP3    H240476   3.062   1.394  16.527  0.0768 -2.0922 -0.2704
 6329TIP3   OH240477   1.632   3.861   0.832 -0.1183 -0.1901 -0.5635
 6329TIP3    H140478   1.643   3.790   0.769 -1.5349 -0.7497 -0.1875
 6329TIP3    H240479   1.555   3.837   0.883 -1.9082  2.6047 -1.8069
 6330TIP3   OH240480   4.035   0.732  12.497  0.0587 -0.3670  0.3876
 6330TIP3    H140481   3.962   0.771  12.450  0.3283 -0.0134  0.2569
 6330TIP3    H240482   4.108   0.793  12.483  1.1647 -2.1410 -1.8835
 6331TIP3   OH240483   1.761   6.667   6.339 -0.5787 -0.2720  0.4698
 6331TIP3    H140484   1.796   6.590   6.296 -0.9926 -0.6013  0.7216
 6331TIP3    H240485   1.817   6.739   6.309  0.6921 -0.8842  1.3677
 6332TIP3   OH240486   1.464   4.670  11.339 -0.0963  0.8141 -0.1258
 6332TIP3    H140487   1.525   4.744  11.334  1.3454 -0.4215 -1.4463
 6332TIP3    H240488   1.385   4.701  11.295  0.7654  1.3491 -1.3301
 6333TIP3   OH240489   1.263   0.843  12.634  0.0930  0.6998 -0.4654
 6333TIP3    H140490   1.274   0.906  12.563 -0.1854 -0.4740 -1.5730
 6333TIP3    H240491   1.327   0.774  12.615 -0.7092 -0.1362 -0.1667
 6334TIP3   OH240492   0.847   5.346   0.158  0.0053 -0.6613 -0.1288
 6334TIP3    H140493   0.874   5.277   0.219  0.0429 -0.5635 -0.0344
 6334TIP3    H240494   0.846   5.303   0.073 -1.5110 -1.2045  0.1304
 6335TIP3   OH240495   2.728   2.658  13.970 -0.6831 -0.5973 -0.1908
 6335TIP3    H140496   2.688   2.708  14.042  1.0371 -2.2288  1.9655
 6335TIP3    H240497   2.689   2.571  13.976 -2.1170 -0.1901 -2.6438
 6336TIP3   OH240498   1.110   5.003   1.591  0.3535 -0.0441  0.3140
 6336TIP3    H140499   1.069   5.055   1.522  0.2480 -1.9336 -1.1007
 6336TIP3    H240500   1.202   5.030   1.591  0.1824  0.5286 -0.0440
 6337TIP3   OH240501   5.940   3.662  10.872  0.2512  0.1097  0.2818
 6337TIP3    H140502   5.871   3.719  10.838  0.3345  1.2836  1.9972
 6337TIP3    H240503   6.017   3.719  10.880  0.7245 -0.5777  0.7580
 6338TIP3   OH240504   0.261   4.654  15.255 -0.3909 -0.0267  0.2497
 6338TIP3    H140505   0.290   4.610  15.334 -2.3298  1.1255  1.6364
 6338TIP3    H240506   0.178   4.696  15.279  0.7073  3.2589 -1.3368
 6339TIP3   OH240507   0.428   2.060  15.244  0.6243  0.2601 -0.2614
 6339TIP3    H140508   0.413   1.975  15.202 -1.1052  1.2252 -1.6807
 6339TIP3    H240509   0.384   2.053  15.329  1.7796 -0.7702  0.2599
 6340TIP3   OH240510   6.212   1.017  13.008 -0.0314 -0.4743 -0.1908
 6340TIP3    H140511   6.223   0.929  13.043 -0.2239 -0.1112  0.8066
 6340TIP3    H240512   6.136   1.011  12.951 -0.7282 -0.7019  0.7509
 6341TIP3   OH240513   2.060   4.333  11.585  0.4539 -0.2405 -0.0536
 6341TIP3    H140514   2.053   4.251  11.634  0.1443 -0.6731 -0.7970
 6341TIP3    H240515   2.012   4.397  11.638  1.6577 -0.2699  1.0863
 6342TIP3   OH240516   6.216   2.608   3.448 -0.6904  0.1571  0.6737
 6342TIP3    H140517   6.149   2.588   3.514 -0.1072 -0.5387  1.0560
 6342TIP3    H240518   6.293   2.559   3.476 -0.6257 -0.6625 -0.8769
 6343TIP3   OH240519   4.012   6.166   6.832 -0.6969 -0.4504 -0.1915
 6343TIP3    H140520   3.975   6.103   6.770 -0.9983 -0.1100 -0.3651
 6343TIP3    H240521   3.938   6.189   6.889 -0.8485  0.4767 -0.7379
 6344TIP3   OH240522   1.933   3.451  13.123 -0.2190 -0.5061 -0.3678
 6344TIP3    H140523   1.979   3.396  13.186  0.5212  0.5054 -0.0123
 6344TIP3    H240524   1.984   3.445  13.043  0.3260  0.2884 -0.0924
 6345TIP3   OH240525   4.849   4.245   6.265 -0.7047  0.3836 -0.5446
 6345TIP3    H140526   4.871   4.290   6.346 -1.2769  2.7275 -1.6739
 6345TIP3    H240527   4.927   4.194   6.244  0.3760  1.7391  0.1431
 6346TIP3   OH240528   6.632   1.284  14.356 -0.1704  0.0753 -0.2903
 6346TIP3    H140529   6.551   1.326  14.327 -0.8155 -1.6916 -1.0904
 6346TIP3    H240530   6.691   1.293  14.281  0.7169  2.1276  0.5936
 6347TIP3   OH240531   4.392   0.270  16.459 -0.1203  0.3409 -0.2283
 6347TIP3    H140532   4.402   0.262  16.554  1.7603  1.3127 -0.3045
 6347TIP3    H240533   4.318   0.214  16.437 -1.9480  1.7811  2.0866
 6348TIP3   OH240534   4.719   1.054   1.154 -0.2549  0.1793 -0.1436
 6348TIP3    H140535   4.627   1.026   1.154 -0.3005  0.3311 -0.8589
 6348TIP3    H240536   4.747   1.045   1.063  0.7098 -0.7460  0.2306
 6349TIP3   OH240537   3.100   4.140   6.266 -0.2345 -0.3475  0.9111
 6349TIP3    H140538   3.099   4.226   6.224  1.0248 -1.1689 -0.8740
 6349TIP3    H240539   3.017   4.100   6.243 -0.0550 -0.3167  0.2039
 6350TIP3   OH240540   0.419   3.039   3.147 -0.4443  0.2785 -0.2306
 6350TIP3    H140541   0.327   3.014   3.133  0.2529 -1.3788 -2.0614
 6350TIP3    H240542   0.459   3.030   3.061  0.7284  4.2141 -0.1562
 6351TIP3   OH240543   3.971   2.707  13.547  0.6110  0.5392 -0.0485
 6351TIP3    H140544   3.921   2.780  13.583  2.0700  2.5144 -1.9555
 6351TIP3    H240545   3.927   2.687  13.464  0.9592  0.0521 -0.1189
 6352TIP3   OH240546   6.257   5.795   4.719  0.4832  0.3902 -0.5388
 6352TIP3    H140547   6.306   5.800   4.801  0.5132 -0.2724 -0.5206
 6352TIP3    H240548   6.207   5.714   4.725  0.8720  0.0857 -1.3950
 6353TIP3   OH240549   1.139   3.089   3.545  0.0034  0.1145 -0.4117
 6353TIP3    H140550   1.185   3.030   3.486 -0.8671  0.8511 -1.8669
 6353TIP3    H240551   1.046   3.070   3.529 -0.2476  0.8128  0.2160
 6354TIP3   OH240552   3.272   4.829  16.653 -0.1674 -0.0542  0.2747
 6354TIP3    H140553   3.236   4.756  16.704  1.5151 -0.9886  0.1366
 6354TIP3    H240554   3.261   4.905  16.709 -2.3050 -0.3201  0.2671
 6355TIP3   OH240555   5.800   4.326  11.706 -0.0698  0.2147 -0.0399
 6355TIP3    H140556   5.879   4.297  11.660  0.5425  0.0751  1.0693
 6355TIP3    H240557   5.731   4.269  11.673  0.0068  1.2056 -2.0169
 6356TIP3   OH240558   5.710   0.692   2.318  0.6776 -0.2029 -0.9042
 6356TIP3    H140559   5.715   0.690   2.414  3.0245  0.7443 -0.9687
 6356TIP3    H240560   5.649   0.621   2.296 -0.7332  0.2519  1.3173
 6357TIP3   OH240561   3.357   3.091   4.270  0.4194 -0.1332  0.2761
 6357TIP3    H140562   3.339   3.103   4.177  0.0458  1.8230  0.5826
 6357TIP3    H240563   3.423   3.021   4.273  0.6949  0.0387 -1.4675
 6358TIP3   OH240564   2.104   0.267  13.757  0.2760  0.5117 -0.3354
 6358TIP3    H140565   2.109   0.181  13.715 -3.1039  0.9824 -1.9132
 6358TIP3    H240566   2.073   0.248  13.846 -0.2809  0.0752 -0.6189
 6359TIP3   OH240567   3.316   2.240  15.414 -0.4195  0.2004 -0.4181
 6359TIP3    H140568   3.241   2.183  15.428  0.2879 -0.8783 -0.9059
 6359TIP3    H240569   3.317   2.255  15.319 -0.8448  1.3756 -0.2469
 6360TIP3   OH240570   2.417   5.225   0.948  0.1336  0.2758  0.1586
 6360TIP3    H140571   2.321   5.221   0.941 -0.0030  2.9512 -0.0529
 6360TIP3    H240572   2.441   5.302   0.897  2.3232  0.1885  1.0211
 6361TIP3   OH240573   1.783   2.746  17.198 -0.0776 -0.1941  0.5187
 6361TIP3    H140574   1.800   2.839  17.213 -1.9158  0.2867 -0.2085
 6361TIP3    H240575   1.783   2.707  17.285  2.2379  0.1845  0.7217
 6362TIP3   OH240576   5.812   6.056   5.125  0.4543 -0.3997 -0.3386
 6362TIP3    H140577   5.900   6.022   5.138  0.2759 -0.5972  0.3542
 6362TIP3    H240578   5.783   6.082   5.212 -0.0717 -0.0917 -0.6058
 6363TIP3   OH240579   1.406   5.963   5.899 -0.4545 -0.0257 -0.4654
 6363TIP3    H140580   1.349   6.024   5.853 -1.2718 -0.2129  0.2857
 6363TIP3    H240581   1.357   5.938   5.977 -0.7442 -2.7461 -1.4695
 6364TIP3   OH240582   5.037   2.173  12.249 -0.5427 -0.2699  0.0049
 6364TIP3    H140583   4.963   2.229  12.226 -0.8022 -0.7554 -0.3209
 6364TIP3    H240584   5.093   2.173  12.171 -0.9083 -1.0708 -0.2506
 6365TIP3   OH240585   2.171   6.642   1.084 -0.1897 -0.0564  0.0125
 6365TIP3    H140586   2.182   6.596   1.167  0.4665  1.3869  0.7401
 6365TIP3    H240587   2.218   6.588   1.020 -0.8075 -1.2362  0.5360
 6366TIP3   OH240588   5.881   4.384   1.454 -0.4434 -0.2943 -0.4807
 6366TIP3    H140589   5.936   4.319   1.498 -0.9052  0.4991  1.2967
 6366TIP3    H240590   5.864   4.451   1.520 -1.5171  0.7189 -1.7376
 6367TIP3   OH240591   0.544   0.214  11.511  0.5979 -0.2311  0.0433
 6367TIP3    H140592   0.623   0.162  11.494  0.0503 -0.3659 -2.3342
 6367TIP3    H240593   0.490   0.201  11.433  0.2852  3.5548 -0.5102
 6368TIP3   OH240594   1.354   6.277  16.835 -0.5307 -0.4031 -0.2258
 6368TIP3    H140595   1.344   6.356  16.888 -0.3109 -0.3907 -0.2040
 6368TIP3    H240596   1.286   6.285  16.768 -0.0482  0.1434 -0.6518
 6369TIP3   OH240597   2.644   0.594  12.913 -0.1706 -0.5216 -0.7649
 6369TIP3    H140598   2.622   0.513  12.960  0.8434 -0.9099 -0.9361
 6369TIP3    H240599   2.618   0.577  12.823 -1.1489 -0.1685 -0.5547
 6370TIP3   OH240600   4.665   0.400   3.525 -0.0610  0.3195 -0.0695
 6370TIP3    H140601   4.655   0.412   3.619 -0.2977  0.3629 -0.0979
 6370TIP3    H240602   4.757   0.420   3.507  0.3375 -1.1195  0.3668
 6371TIP3   OH240603   6.712   4.853   6.443 -0.1027 -0.3581 -0.1666
 6371TIP3    H140604   6.786   4.809   6.485 -0.8606 -1.2396  0.2756
 6371TIP3    H240605   6.647   4.784   6.432  0.2034 -0.2236 -3.1576
 6372TIP3   OH240606   6.523   5.943  15.014 -0.1777  0.0191 -0.0955
 6372TIP3    H140607   6.531   5.982  14.927  1.2655  1.3083  0.5971
 6372TIP3    H240608   6.563   5.857  15.006 -0.7496 -0.1827 -0.8902
 6373TIP3   OH240609   5.342   0.241   0.750  0.3010 -0.1307 -0.8171
 6373TIP3    H140610   5.409   0.173   0.747 -0.4765 -1.0337  1.2103
 6373TIP3    H240611   5.371   0.307   0.686  4.0893  0.3948  1.3087
 6374TIP3   OH240612   0.528   5.710   4.808 -0.1082 -0.6240 -0.6721
 6374TIP3    H140613   0.613   5.737   4.774  0.2928 -2.0058 -0.7976
 6374TIP3    H240614   0.471   5.785   4.792  0.5065 -0.5762 -2.7978
 6375TIP3   OH240615   0.942   4.180   6.006  0.5546 -0.3630  0.7951
 6375TIP3    H140616   0.891   4.119   6.058  1.2820 -0.0969  1.8241
 6375TIP3    H240617   0.881   4.250   5.984 -0.1860 -1.2763 -0.0991
 6376TIP3   OH240618   0.489   2.758  12.734  0.0867  0.1416 -0.2537
 6376TIP3    H140619   0.451   2.773  12.648 -1.7630  0.7115  0.6376
 6376TIP3    H240620   0.414   2.749  12.792  1.3128 -0.1348  1.3298
 6377TIP3   OH240621   4.383   0.293  13.328  0.0990  0.0307 -0.0284
 6377TIP3    H140622   4.374   0.219  13.388  0.8384  0.4361  0.5799
 6377TIP3    H240623   4.352   0.368  13.378 -1.6113 -0.0107 -0.9824
 6378TIP3   OH240624   0.401   1.762   1.528 -0.0020  0.2053 -0.3691
 6378TIP3    H140625   0.350   1.739   1.451  0.7533  0.9511 -1.1006
 6378TIP3    H240626   0.371   1.850   1.552 -0.3387 -0.0805  0.2744
 6379TIP3   OH240627   6.253   0.523  16.039 -0.3368  0.4790  0.6020
 6379TIP3    H140628   6.280   0.450  16.094  0.2071  0.3853  0.2144
 6379TIP3    H240629   6.242   0.597  16.099 -0.5406  0.1707  0.9433
 6380TIP3   OH240630   3.011   2.040  11.424 -0.0071  0.0922 -0.2330
 6380TIP3    H140631   3.091   2.075  11.386 -0.7079 -1.8287 -3.5753
 6380TIP3    H240632   3.041   1.984  11.496  1.5073  0.8059 -0.2864
 6381TIP3   OH240633   5.328   3.250  13.997  0.6164 -0.0994 -0.2886
 6381TIP3    H140634   5.399   3.187  14.005 -0.5062 -1.2226  0.9420
 6381TIP3    H240635   5.255   3.201  13.961 -0.5481  0.2309  1.5152
 6382TIP3   OH240636   2.080   4.205  16.043  0.2103  0.3329 -0.0467
 6382TIP3    H140637   2.117   4.268  15.982  1.9443  0.4236  1.0326
 6382TIP3    H240638   2.145   4.134  16.046  0.0384  0.2186  1.4849
 6383TIP3   OH240639   3.298   1.542  13.860 -0.3249  0.7507 -0.6221
 6383TIP3    H140640   3.244   1.603  13.909 -1.9965 -0.6750 -0.6436
 6383TIP3    H240641   3.318   1.472  13.922  1.8057  1.4056 -0.5137
 6384TIP3   OH240642   3.942   5.618   4.980 -0.1929 -0.2216  0.1307
 6384TIP3    H140643   3.864   5.592   5.029 -0.1195  0.1416  0.4518
 6384TIP3    H240644   4.006   5.550   4.999 -0.1724 -0.0922  0.5256
 6385TIP3   OH240645   1.860   4.366   0.504  0.1337 -0.0970  0.3610
 6385TIP3    H140646   1.903   4.418   0.571  1.0645 -0.8471  0.3622
 6385TIP3    H240647   1.798   4.426   0.462 -0.9839  0.1882  2.3576
 6386TIP3   OH240648   0.427   4.169  17.152 -0.2108 -0.4927 -0.1624
 6386TIP3    H140649   0.356   4.116  17.115  0.3676 -2.1240  1.0043
 6386TIP3    H240650   0.490   4.105  17.185  0.7209  0.9398  0.8821
 6387TIP3   OH240651   6.761   3.673  15.894 -0.3500 -0.2328  0.2007
 6387TIP3    H140652   6.812   3.626  15.960  1.6171  0.6036 -0.6938
 6387TIP3    H240653   6.787   3.764  15.905  0.6192 -0.1828 -2.2445
 6388TIP3   OH240654   2.677   1.308   5.348 -0.2050  0.1977  0.4118
 6388TIP3    H140655   2.672   1.349   5.434 -2.3653  0.6101  0.1273
 6388TIP3    H240656   2.603   1.344   5.300  0.7672 -0.2829 -1.5208
 6389TIP3   OH240657   1.305   1.845  16.066  0.6709  0.1784  0.3228
 6389TIP3    H140658   1.396   1.865  16.086  0.3150  1.3074  0.8582
 6389TIP3    H240659   1.273   1.923  16.021  0.1851 -0.5294 -0.5811
 6390TIP3   OH240660   0.838   1.512  14.980  0.4340  0.3573 -0.3984
 6390TIP3    H140661   0.909   1.562  14.940 -0.1857  0.4001 -1.4438
 6390TIP3    H240662   0.758   1.544  14.938 -0.3319  1.0857  1.5382
 6391TIP3   OH240663   0.215   5.411  16.281 -1.0810  0.0938 -0.2629
 6391TIP3    H140664   0.143   5.349  16.292 -1.6190  1.1248  2.3626
 6391TIP3    H240665   0.176   5.486  16.236 -1.0263 -0.4447 -1.2011
 6392TIP3   OH240666   5.038   3.090  16.648 -0.5202 -0.3997 -0.4949
 6392TIP3    H140667   4.945   3.100  16.632 -0.2413 -1.4765 -2.9815
 6392TIP3    H240668   5.061   3.006  16.607  1.8047  0.5623 -1.2770
 6393TIP3   OH240669   1.831   6.356   2.004  0.3159  0.4595 -0.1189
 6393TIP3    H140670   1.785   6.399   1.932 -2.5452  0.7881  1.8422
 6393TIP3    H240671   1.916   6.400   2.007  0.0824  1.1728 -2.5721
 6394TIP3   OH240672   1.075   0.822   2.791 -0.1341  0.2927  0.1921
 6394TIP3    H140673   1.009   0.842   2.725 -0.5147 -0.7080  0.2500
 6394TIP3    H240674   1.113   0.906   2.814  0.3034  0.6049 -1.6070
 6395TIP3   OH240675   6.194   3.161   3.452 -0.2499  0.2333 -0.0546
 6395TIP3    H140676   6.271   3.199   3.409 -0.1096 -1.2932 -1.1721
 6395TIP3    H240677   6.121   3.186   3.395 -0.0940 -1.5805 -1.0836
 6396TIP3   OH240678   4.163   3.222  14.492  0.1251 -0.6160  0.1359
 6396TIP3    H140679   4.128   3.274  14.564  0.9501 -1.6804  1.3272
 6396TIP3    H240680   4.228   3.165  14.533  1.3690 -0.4896 -1.6278
 6397TIP3   OH240681   5.527   6.004   5.451  0.5201 -0.5533  0.1450
 6397TIP3    H140682   5.477   6.064   5.506  2.0288  0.8616  0.0149
 6397TIP3    H240683   5.514   6.036   5.362  1.0188 -0.6412  0.0384
 6398TIP3   OH240684   1.598   2.518  11.029  0.1494 -0.6024  0.0810
 6398TIP3    H140685   1.566   2.500  10.941  0.8277 -4.2688  0.5234
 6398TIP3    H240686   1.523   2.557  11.074 -0.8628 -0.6979 -1.4955
 6399TIP3   OH240687   4.309   3.370   1.533  0.6902  0.2937  0.2154
 6399TIP3    H140688   4.273   3.297   1.481  0.4596  0.4400  0.1714
 6399TIP3    H240689   4.337   3.434   1.467 -0.3430  0.8349  0.2878
 6400TIP3   OH240690   1.362   6.277  15.136 -0.2374  0.2656 -0.0857
 6400TIP3    H140691   1.369   6.185  15.110  0.6827  0.6819 -1.3439
 6400TIP3    H240692   1.448   6.299  15.170 -0.0206  1.0422 -1.0980
 6401TIP3   OH240693   3.994   1.835  12.942  0.3604 -0.3186  0.3899
 6401TIP3    H140694   3.980   1.740  12.945  2.1866 -0.6669 -1.5989
 6401TIP3    H240695   3.941   1.864  12.868 -0.4873  0.2975  1.2234
 6402TIP3   OH240696   2.812   4.457  12.250 -0.1847 -0.1291 -0.0093
 6402TIP3    H140697   2.877   4.488  12.313  0.1156 -0.1402 -0.3199
 6402TIP3    H240698   2.732   4.504  12.275  0.4013  1.3260 -0.8236
 6403TIP3   OH240699   4.753   1.098  17.031  0.1833  0.0003 -0.1318
 6403TIP3    H140700   4.767   1.004  17.036  1.2917  0.1067 -1.1461
 6403TIP3    H240701   4.820   1.135  17.089 -0.4710  0.1624  0.5351
 6404TIP3   OH240702   3.957   0.184  14.046  0.2725  0.3496  0.1960
 6404TIP3    H140703   3.888   0.154  14.105 -0.5721  0.9254 -0.4969
 6404TIP3    H240704   3.958   0.121  13.975  0.2687  0.4934  0.0665
 6405TIP3   OH240705   6.068   2.753   6.643  0.4443 -0.4533  0.0806
 6405TIP3    H140706   6.045   2.764   6.735 -0.0674  1.6164 -0.2880
 6405TIP3    H240707   6.147   2.806   6.631  0.0847 -0.1017 -0.8348
 6406TIP3   OH240708   5.521   3.462  16.787  0.9173  0.2748 -0.3505
 6406TIP3    H140709   5.471   3.438  16.866 -0.6153  1.2652 -1.0045
 6406TIP3    H240710   5.560   3.547  16.808  3.0487 -0.8649  0.4618
 6407TIP3   OH240711   3.486   6.781  13.508 -0.6577 -0.1179 -0.6020
 6407TIP3    H140712   3.467   6.735  13.426 -2.4967 -0.5070  0.0240
 6407TIP3    H240713   3.530   6.715  13.563  0.5037  0.1199 -1.2231
 6408TIP3   OH240714   5.205   3.445  11.460  0.2118 -0.6896  0.0714
 6408TIP3    H140715   5.143   3.403  11.400 -0.6946 -0.0256  0.5270
 6408TIP3    H240716   5.164   3.436  11.546 -0.7150  2.3317  0.0299
 6409TIP3   OH240717   5.313   6.715  11.596  0.1247  0.0365 -0.2463
 6409TIP3    H140718   5.369   6.792  11.607  0.2330  0.0560 -0.9156
 6409TIP3    H240719   5.359   6.645  11.643  1.7596 -0.4538 -2.5282
 6410TIP3   OH240720   3.022   2.152  16.660 -0.6158  0.2603  0.6477
 6410TIP3    H140721   3.016   2.240  16.621  0.3203  0.3123  0.6058
 6410TIP3    H240722   3.025   2.168  16.754  1.3020  0.3862  0.5803
 6411TIP3   OH240723   6.560   5.170  11.676  0.5196 -0.4448  0.1862
 6411TIP3    H140724   6.510   5.213  11.745 -0.0995 -1.2699  0.2599
 6411TIP3    H240725   6.615   5.106  11.722  0.2727 -0.8366 -0.0528
 6412TIP3   OH240726   5.606   3.975   4.006  0.6768  0.0448 -0.0016
 6412TIP3    H140727   5.608   3.962   4.100  2.1572 -0.0755 -0.0387
 6412TIP3    H240728   5.600   4.070   3.994  0.2274  0.0433  0.2101
 6413TIP3   OH240729   3.079   3.088   2.028  0.0422 -0.3459 -0.2102
 6413TIP3    H140730   3.014   3.104   2.097  1.1225  1.9704  0.3218
 6413TIP3    H240731   3.102   2.995   2.039  0.6954  0.1148  3.0582
 6414TIP3   OH240732   4.567   2.701   1.716 -0.5956  0.3668 -0.4359
 6414TIP3    H140733   4.659   2.684   1.698  0.0429  1.6490  1.3811
 6414TIP3    H240734   4.526   2.710   1.630  0.2123 -3.7944 -1.3616
 6415TIP3   OH240735   3.993   3.749   0.017 -0.1499 -0.1423  0.1970
 6415TIP3    H140736   3.931   3.719  -0.049 -0.0153 -0.0390  0.0236
 6415TIP3    H240737   3.946   3.739   0.100  0.9905 -3.7567  0.4740
 6416TIP3   OH240738   4.936   2.942   5.269 -0.0233 -0.3153  0.6404
 6416TIP3    H140739   5.006   3.008   5.268  0.7784 -1.1415 -0.2485
 6416TIP3    H240740   4.983   2.858   5.270 -0.9746 -0.8989 -1.0065
 6417TIP3   OH240741   6.404   3.513  11.578  0.4584  0.1749 -0.7876
 6417TIP3    H140742   6.417   3.503  11.483 -0.4994  0.3972 -0.9522
 6417TIP3    H240743   6.323   3.564  11.585  0.8904  0.7313  0.1467
 6418TIP3   OH240744   3.008   0.242  12.462  0.1279 -0.0745 -0.1115
 6418TIP3    H140745   2.938   0.275  12.518  0.5886 -2.6840  2.1718
 6418TIP3    H240746   2.964   0.188  12.396 -0.2872  1.5432 -1.1721
 6419TIP3   OH240747   2.355   4.721   1.126  0.3661  0.0969 -0.6232
 6419TIP3    H140748   2.402   4.673   1.194  0.9364  0.2645 -0.8914
 6419TIP3    H240749   2.338   4.656   1.058  1.8581  0.4531 -1.3461
 6420TIP3   OH240750   4.281   6.399  14.349  0.6113 -0.7513 -0.5627
 6420TIP3    H140751   4.279   6.465  14.418  0.7786 -1.9583  0.6305
 6420TIP3    H240752   4.264   6.447  14.268  0.3913  0.6828  0.3256
 6421TIP3   OH240753   5.289   2.954   2.475  0.0066 -0.4365 -0.2449
 6421TIP3    H140754   5.328   2.977   2.390 -1.9636  1.3048 -0.7109
 6421TIP3    H240755   5.204   2.917   2.453 -0.5737  0.1396  0.9836
 6422TIP3   OH240756   3.781   0.222  12.646  0.1019  0.0004 -0.4341
 6422TIP3    H140757   3.827   0.140  12.658  1.0293  0.4276 -1.0090
 6422TIP3    H240758   3.789   0.267  12.730  0.2667 -0.1615 -0.3628
 6423TIP3   OH240759   4.714   0.493   0.207 -0.0001  0.1962 -0.2720
 6423TIP3    H140760   4.658   0.440   0.150  0.0571 -0.1437 -0.0103
 6423TIP3    H240761   4.744   0.433   0.275  2.4439 -0.1954 -1.6260
 6424TIP3   OH240762   5.926   2.092   3.758 -0.1717  0.5438 -0.0522
 6424TIP3    H140763   5.971   2.068   3.677  1.0161  0.4111  0.6330
 6424TIP3    H240764   5.884   2.011   3.787  0.9151  0.1363  0.4125
 6425TIP3   OH240765   1.869   2.684  15.003 -0.2996 -0.0993 -1.1843
 6425TIP3    H140766   1.845   2.728  14.922 -0.2555 -0.7130 -1.5353
 6425TIP3    H240767   1.926   2.746  15.048 -0.4931  0.3294 -1.5301
 6426TIP3   OH240768   0.889   3.709  14.189  0.2695 -0.0862  0.4662
 6426TIP3    H140769   0.946   3.776  14.226  1.5274 -1.1510  0.5013
 6426TIP3    H240770   0.945   3.633  14.179 -0.9067 -0.8535 -0.4542
 6427TIP3   OH240771   6.101   4.274   3.264  0.3756 -0.2805  0.9998
 6427TIP3    H140772   6.129   4.298   3.353 -0.1155 -0.3182  1.1680
 6427TIP3    H240773   6.019   4.226   3.277  1.4624 -2.2472  0.6669
 6428TIP3   OH240774   4.811   5.749  16.324  0.3979  0.4791  0.4957
 6428TIP3    H140775   4.778   5.824  16.274 -2.2242 -0.4642  0.7734
 6428TIP3    H240776   4.836   5.685  16.258 -2.7853 -0.6494  0.3416
 6429TIP3   OH240777   2.577   2.219  12.108 -0.0356  0.1546  0.1053
 6429TIP3    H140778   2.502   2.242  12.163  0.2272  2.5933 -0.5094
 6429TIP3    H240779   2.653   2.235  12.164  0.1103 -0.3952  0.0673
 6430TIP3   OH240780   6.154   1.521   5.028 -0.2233  0.3855  0.1519
 6430TIP3    H140781   6.153   1.447   4.968 -0.1074 -0.4036  1.1165
 6430TIP3    H240782   6.231   1.572   5.003  0.9793 -1.0218  0.9179
 6431TIP3   OH240783   4.484   1.251  12.859  0.4925  0.2257  0.2705
 6431TIP3    H140784   4.489   1.322  12.795  0.1283  0.0402  0.0329
 6431TIP3    H240785   4.574   1.240  12.889  0.6028  0.5738  0.0731
 6432TIP3   OH240786   0.083   6.410   4.290 -0.1022 -0.3464 -0.3636
 6432TIP3    H140787   0.013   6.347   4.307 -0.3916  0.0675  0.0086
 6432TIP3    H240788   0.158   6.376   4.338  0.2052 -1.2480 -1.4649
 6433TIP3   OH240789   1.333   3.520  16.350  0.6037  0.1195  0.0189
 6433TIP3    H140790   1.388   3.587  16.309  1.9961  0.6565  2.6827
 6433TIP3    H240791   1.282   3.568  16.415 -0.6953 -0.9261 -0.2122
 6434TIP3   OH240792   2.051   0.248   4.073 -0.3768  0.6907 -0.0992
 6434TIP3    H140793   2.113   0.174   4.077  0.9479  1.7237 -1.1249
 6434TIP3    H240794   2.012   0.251   4.160  1.1026  0.0733  0.6030
 6435TIP3   OH240795   2.529   6.704   4.690 -0.0258  0.6553  0.0029
 6435TIP3    H140796   2.532   6.799   4.677  1.2576  0.8803  1.7754
 6435TIP3    H240797   2.480   6.692   4.771 -0.8989 -0.2472 -0.6542
 6436TIP3   OH240798   1.243   4.486  13.943 -0.2662  0.2223  0.1358
 6436TIP3    H140799   1.153   4.509  13.919 -0.2303 -0.2931 -0.5047
 6436TIP3    H240800   1.235   4.398  13.981  0.1618 -0.4319 -1.2690
 6437TIP3   OH240801   1.492   3.419  16.123  0.0162  0.1065  0.0493
 6437TIP3    H140802   1.469   3.327  16.134  2.3606 -0.4427  0.5751
 6437TIP3    H240803   1.423   3.467  16.169 -1.7386 -1.3336 -1.0468
 6438TIP3   OH240804   3.554   2.267  15.530  0.5878  0.5137  0.2087
 6438TIP3    H140805   3.594   2.344  15.490  0.4954  0.0849 -0.7162
 6438TIP3    H240806   3.480   2.247  15.474  1.1363 -0.7809 -0.0572
 6439TIP3   OH240807   4.943   3.509  11.085  0.4434  0.1277  0.0598
 6439TIP3    H140808   5.026   3.546  11.055 -0.0439  2.6112  1.6208
 6439TIP3    H240809   4.962   3.472  11.171  0.5489 -1.8548 -0.7935
 6440TIP3   OH240810   5.666   6.624  13.401 -0.6902 -0.1710  0.2742
 6440TIP3    H140811   5.754   6.660  13.395 -1.5390  2.3991  2.2423
 6440TIP3    H240812   5.672   6.557  13.469  0.2796 -1.8432 -1.4207
 6441TIP3   OH240813   0.367   6.055  15.017 -0.1020 -0.1104  0.2458
 6441TIP3    H140814   0.367   5.960  15.024 -0.3041 -0.4032 -2.8829
 6441TIP3    H240815   0.457   6.081  15.036  0.9213 -1.3283 -2.6715
 6442TIP3   OH240816   5.758   2.849  11.373 -0.0312  0.1403 -0.9723
 6442TIP3    H140817   5.799   2.791  11.310  1.4656  0.2984 -0.1629
 6442TIP3    H240818   5.707   2.791  11.430  2.6195 -0.6021  0.7420
 6443TIP3   OH240819   3.510   5.650   0.905  0.4540  0.3109 -0.8203
 6443TIP3    H140820   3.601   5.624   0.911  0.9408  1.7884 -1.5843
 6443TIP3    H240821   3.497   5.671   0.812 -0.8189 -0.4300 -0.8314
 6444TIP3   OH240822   0.447   2.828  15.891 -0.0875 -0.4754 -0.1920
 6444TIP3    H140823   0.519   2.875  15.849 -0.4868 -0.3912 -0.7916
 6444TIP3    H240824   0.370   2.883  15.874 -0.5934 -1.4442 -1.0695
 6445TIP3   OH240825   0.743   0.803   2.078 -0.3573 -0.4523 -0.4277
 6445TIP3    H140826   0.835   0.780   2.087 -0.1825 -0.0564 -1.2490
 6445TIP3    H240827   0.705   0.780   2.163  0.4742 -0.6916 -0.1146
 6446TIP3   OH240828   2.372   3.235  13.548 -0.5609  0.1926  0.2553
 6446TIP3    H140829   2.310   3.304  13.573 -0.4120  0.8942 -1.3003
 6446TIP3    H240830   2.336   3.199  13.467  0.5179 -0.1114 -0.0883
 6447TIP3   OH240831   2.652   0.959   1.421 -0.0153 -0.6235 -0.3679
 6447TIP3    H140832   2.570   1.004   1.441 -0.5877 -1.0479 -1.7026
 6447TIP3    H240833   2.633   0.910   1.341  1.8626  0.1145 -1.2792
 6448TIP3   OH240834   2.820   3.173   0.677  0.3363 -0.0116  0.2491
 6448TIP3    H140835   2.875   3.196   0.602  0.2997  0.4812  0.3737
 6448TIP3    H240836   2.856   3.225   0.749  1.5285 -1.8085  1.0078
 6449TIP3   OH240837   4.711   2.195   0.615  0.2318 -0.1966  0.2852
 6449TIP3    H140838   4.765   2.123   0.583 -1.1955 -0.7170 -1.0093
 6449TIP3    H240839   4.683   2.242   0.537 -1.6181 -0.2482  0.8828
 6450TIP3   OH240840   3.894   5.339  13.428 -0.6553 -0.2548 -0.4593
 6450TIP3    H140841   3.837   5.281  13.478 -0.9559  0.2812 -0.1877
 6450TIP3    H240842   3.982   5.322  13.464 -0.8869  0.2398  0.3640
 6451TIP3   OH240843   4.830   5.628   2.986 -0.0341  0.3460 -0.0509
 6451TIP3    H140844   4.912   5.592   3.021 -0.8326 -0.1556  1.3107
 6451TIP3    H240845   4.783   5.659   3.063 -0.8627  1.2110 -0.8935
 6452TIP3   OH240846   3.655   2.559  15.872 -0.5651  0.0220  0.2219
 6452TIP3    H140847   3.746   2.555  15.900 -0.9714  0.7632  1.7450
 6452TIP3    H240848   3.655   2.618  15.797  0.4648 -1.4611 -0.9573
 6453TIP3   OH240849   6.373   4.058   6.148 -0.2530  0.0698  0.0814
 6453TIP3    H140850   6.288   4.014   6.145  1.0035 -2.3828 -0.0193
 6453TIP3    H240851   6.420   4.016   6.220  1.6046  0.0712 -1.0916
 6454TIP3   OH240852   3.661   3.499   4.995 -0.1155  0.1832 -0.5334
 6454TIP3    H140853   3.730   3.547   4.948 -0.7110  1.3709 -0.2119
 6454TIP3    H240854   3.666   3.534   5.084 -0.9054  0.0183 -0.4292
 6455TIP3   OH240855   6.478   0.040   1.080 -0.5915 -0.6159 -0.4476
 6455TIP3    H140856   6.456   0.017   0.990 -1.2044  0.6953 -0.6437
 6455TIP3    H240857   6.558   0.092   1.073 -0.6506 -0.4957 -0.2346
 6456TIP3   OH240858   3.257   5.502   1.734 -0.3468 -0.6049  0.1862
 6456TIP3    H140859   3.274   5.413   1.703 -0.9562 -0.6617  0.0065
 6456TIP3    H240860   3.239   5.552   1.655  3.2297  0.4416 -0.0556
 6457TIP3   OH240861   1.960   4.662  16.403  0.0714  0.8282  0.1878
 6457TIP3    H140862   1.955   4.582  16.350 -0.7852  1.3885 -0.5899
 6457TIP3    H240863   1.926   4.635  16.488 -2.6683  0.9592 -0.8160
 6458TIP3   OH240864   5.474   6.229  12.179  0.0875  0.4159  0.8998
 6458TIP3    H140865   5.483   6.303  12.118 -0.7687 -0.1249  0.0914
 6458TIP3    H240866   5.429   6.266  12.255 -1.2976  0.5079  0.0579
 6459TIP3   OH240867   1.295   1.803  13.910 -0.4654  0.0125 -0.0526
 6459TIP3    H140868   1.366   1.841  13.962  0.6428 -2.2202  0.1574
 6459TIP3    H240869   1.230   1.775  13.975 -0.2868 -0.3687 -0.0311
 6460TIP3   OH240870   0.886   5.878   2.107 -0.4315  0.2197 -0.1462
 6460TIP3    H140871   0.909   5.946   2.171  0.2662  1.5333 -1.7578
 6460TIP3    H240872   0.816   5.917   2.055  1.0579  0.3384 -2.1015
 6461TIP3   OH240873   0.780   1.141   5.121 -0.3285 -0.0227 -0.1310
 6461TIP3    H140874   0.805   1.116   5.032 -0.7641 -1.4358  0.1280
 6461TIP3    H240875   0.705   1.085   5.141 -1.2773  1.4566  0.5135
 6462TIP3   OH240876   2.857   0.441   3.014  0.0276 -0.5653  0.1132
 6462TIP3    H140877   2.948   0.422   2.992 -0.4155 -1.2562 -1.1784
 6462TIP3    H240878   2.861   0.483   3.100  1.5816 -0.3495 -0.0550
 6463TIP3   OH240879   5.589   2.975   4.331 -0.4731  0.6551  0.7819
 6463TIP3    H140880   5.669   3.027   4.331  0.6611 -1.0185 -0.1967
 6463TIP3    H240881   5.522   3.034   4.296  0.7073  1.5476 -0.0307
 6464TIP3   OH240882   3.954   2.963   5.973  0.2699  0.3558 -0.0662
 6464TIP3    H140883   4.029   2.904   5.982 -0.6735 -0.7831  0.6690
 6464TIP3    H240884   3.920   2.945   5.885 -1.3686 -1.9418  0.9489
 6465TIP3   OH240885   0.507   3.795   1.425 -0.0205 -0.6751 -0.2332
 6465TIP3    H140886   0.541   3.715   1.465  0.8647  0.0991  0.5894
 6465TIP3    H240887   0.494   3.772   1.333 -1.3576 -2.2500  0.3275
 6466TIP3   OH240888   1.561   1.134   3.964 -0.1662 -0.4943 -0.4804
 6466TIP3    H140889   1.519   1.057   4.003  1.8857 -0.6084  1.5737
 6466TIP3    H240890   1.627   1.098   3.906  0.2606 -0.2890 -0.1223
 6467TIP3   OH240891   2.643   3.349   2.272  0.4768  0.3216 -0.6323
 6467TIP3    H140892   2.612   3.286   2.208 -2.0594  0.2488  0.5984
 6467TIP3    H240893   2.591   3.331   2.350  0.2423  3.4285 -0.0192
 6468TIP3   OH240894   5.960   3.650   2.180 -0.0395  0.3858  0.5096
 6468TIP3    H140895   5.988   3.614   2.095 -2.1772 -2.9736  1.1226
 6468TIP3    H240896   5.967   3.576   2.240 -1.6006  1.8523  2.5498
 6469TIP3   OH240897   5.574   5.928  16.243 -0.8107  0.2316 -0.7071
 6469TIP3    H140898   5.508   5.919  16.174 -0.3261  0.4531 -1.1988
 6469TIP3    H240899   5.583   5.840  16.280 -0.3785 -0.0825 -1.5581
 6470TIP3   OH240900   6.578   2.237   2.686  0.1783  0.3561  0.3434
 6470TIP3    H140901   6.508   2.283   2.733 -2.5033 -3.3372  0.2111
 6470TIP3    H240902   6.607   2.169   2.747  3.0045  1.1657 -0.0069
 6471TIP3   OH240903   0.082   1.659  16.976  0.3078  0.1330 -0.4111
 6471TIP3    H140904   0.029   1.667  17.055 -1.1379 -1.1143 -1.2205
 6471TIP3    H240905   0.085   1.748  16.940  1.1222  0.7405  1.1186
 6472TIP3   OH240906   1.890   5.793  11.199  0.6002  0.1845 -0.0203
 6472TIP3    H140907   1.910   5.849  11.274  2.9917 -0.0888 -0.4348
 6472TIP3    H240908   1.795   5.780  11.204  0.5921  0.9190  2.4268
 6473TIP3   OH240909   0.476   3.933   5.412  0.3312 -0.1301 -0.4211
 6473TIP3    H140910   0.481   3.847   5.371  0.7987 -0.5359  0.4706
 6473TIP3    H240911   0.473   3.915   5.506  2.6239  0.8817 -0.1086
 6474TIP3   OH240912   6.121   4.665   0.021 -0.0531 -0.0139  0.0313
 6474TIP3    H140913   6.101   4.603   0.091 -0.7888 -0.6013 -0.6806
 6474TIP3    H240914   6.058   4.736   0.034 -2.7599 -1.8671 -2.2109
 6475TIP3   OH240915   5.279   0.299   1.015 -0.1681 -0.1582  0.3512
 6475TIP3    H140916   5.259   0.393   1.011  1.0459  0.0897 -0.2066
 6475TIP3    H240917   5.273   0.270   0.924 -1.3813 -0.8016  0.6370
 6476TIP3   OH240918   3.698   2.642  10.711 -0.4335  0.3306  0.0924
 6476TIP3    H140919   3.666   2.592  10.637  1.8323  1.3400 -1.6158
 6476TIP3    H240920   3.697   2.580  10.784 -1.9073 -0.8960 -0.9260
 6477TIP3   OH240921   4.532   1.711   2.128 -0.0720 -0.1648 -0.4251
 6477TIP3    H140922   4.468   1.783   2.119 -0.0042 -0.1995 -1.1912
 6477TIP3    H240923   4.610   1.753   2.165  0.3968  0.4040 -2.0228
 6478TIP3   OH240924   0.083   1.169  12.665  0.6459 -0.5803 -0.4088
 6478TIP3    H140925   0.071   1.231  12.594  0.7058  0.4539  0.4803
 6478TIP3    H240926  -0.005   1.138  12.686  0.5644 -0.4076 -0.5008
 6479TIP3   OH240927   3.359   1.790  11.396 -0.2363  0.6243 -0.0664
 6479TIP3    H140928   3.327   1.732  11.464 -3.0732  0.9314 -1.0687
 6479TIP3    H240929   3.401   1.862  11.444 -0.4803 -0.1168  1.2829
 6480TIP3   OH240930   1.464   1.721  13.410  0.0692 -0.2797  0.9002
 6480TIP3    H140931   1.439   1.813  13.398  0.9254  0.0138  1.2741
 6480TIP3    H240932   1.477   1.712  13.504  0.3998 -0.6766  0.8180
 6481TIP3   OH240933   5.833   3.262  12.148 -0.4758 -0.3561  0.4006
 6481TIP3    H140934   5.762   3.294  12.093 -0.8705  0.8642  1.6093
 6481TIP3    H240935   5.830   3.167  12.137 -1.5395 -0.2395 -0.4609
 6482TIP3   OH240936   6.677   2.545   5.865  0.3676  0.0420 -0.3939
 6482TIP3    H140937   6.618   2.508   5.931 -1.6685 -1.6163 -3.0342
 6482TIP3    H240938   6.703   2.630   5.901 -1.5307 -0.3565  2.0548
 6483TIP3   OH240939   4.301   1.590  11.231 -0.3440 -0.8399  0.1317
 6483TIP3    H140940   4.307   1.507  11.280 -0.0516 -0.7075  0.3191
 6483TIP3    H240941   4.266   1.652  11.295 -0.1306 -0.7093  0.1200
 6484TIP3   OH240942   2.854   4.488   0.998 -0.6222 -0.0180  0.2612
 6484TIP3    H140943   2.916   4.469   1.068 -1.1709 -1.1198  0.4469
 6484TIP3    H240944   2.822   4.403   0.970  0.9881  0.2484 -2.6285
 6485TIP3   OH240945   0.281   2.532  14.273 -0.4797  0.2749 -0.1538
 6485TIP3    H140946   0.199   2.506  14.317 -1.1023  3.2922  0.5561
 6485TIP3    H240947   0.265   2.513  14.181 -0.6729 -2.3464  0.3725
 6486TIP3   OH240948   4.153   0.412   3.043  0.4658  0.2477  0.3481
 6486TIP3    H140949   4.184   0.487   3.093  0.0811  0.9971 -0.5378
 6486TIP3    H240950   4.129   0.347   3.110  4.7394 -0.7125  1.0827
 6487TIP3   OH240951   4.546   3.695   3.413  0.1038 -0.0823 -0.5684
 6487TIP3    H140952   4.587   3.771   3.455 -1.0126 -0.4619  1.2671
 6487TIP3    H240953   4.610   3.625   3.421 -0.0417 -0.1116  0.4030
 6488TIP3   OH240954   6.653   6.273  11.340 -0.1714 -0.2642 -0.2226
 6488TIP3    H140955   6.657   6.301  11.249 -1.7615  1.5010  0.2229
 6488TIP3    H240956   6.704   6.192  11.342  2.1020  1.0487 -2.1271
 6489TIP3   OH240957   6.002   0.601  15.717 -0.6672 -0.3394  0.8586
 6489TIP3    H140958   5.928   0.655  15.692  1.0541  1.4592 -0.5025
 6489TIP3    H240959   6.019   0.546  15.641 -1.2198 -1.4870  1.5478
 6490TIP3   OH240960   3.658   3.235  12.563 -0.0542  0.1489  0.3051
 6490TIP3    H140961   3.714   3.161  12.584 -3.3233 -2.8850 -1.0018
 6490TIP3    H240962   3.707   3.285  12.497  3.4412  0.9109  3.3402
 6491TIP3   OH240963   1.007   4.275  16.929  0.1835 -0.5629 -0.2075
 6491TIP3    H140964   0.992   4.319  17.012 -0.1593 -3.4971  1.3456
 6491TIP3    H240965   1.097   4.299  16.905  0.7570 -0.7937  1.6962
 6492TIP3   OH240966   5.599   1.885  11.430  0.0827 -0.2736 -0.9485
 6492TIP3    H140967   5.576   1.876  11.523  0.8209  0.3572 -0.7022
 6492TIP3    H240968   5.528   1.937  11.393 -1.0411 -1.8499 -1.0874
 6493TIP3   OH240969   5.088   2.819   4.595  0.0678  0.2156  0.4890
 6493TIP3    H140970   5.183   2.819   4.604  0.2291  0.6424 -1.1504
 6493TIP3    H240971   5.058   2.891   4.651  0.6269 -0.5435  1.7710
 6494TIP3   OH240972   4.657   6.307   5.573 -0.1886  0.0031 -0.2725
 6494TIP3    H140973   4.644   6.372   5.505  3.2802  0.4134 -0.6674
 6494TIP3    H240974   4.600   6.335   5.645  0.0141  2.5717 -1.0585
 6495TIP3   OH240975   0.241   6.710  14.753 -0.0373 -0.7125 -0.0218
 6495TIP3    H140976   0.197   6.682  14.673  0.5449 -0.1290 -0.5463
 6495TIP3    H240977   0.334   6.697  14.736  0.3375  2.5010 -0.6899
 6496TIP3   OH240978   2.295   2.576  10.891  0.5194 -0.2318  0.0557
 6496TIP3    H140979   2.287   2.541  10.980  1.5463 -0.9887 -0.1347
 6496TIP3    H240980   2.332   2.504  10.840  0.7891  0.4931 -0.7923
 6497TIP3   OH240981   3.542   2.315  15.793 -0.4817 -0.0178  0.2892
 6497TIP3    H140982   3.602   2.387  15.816  0.4239 -0.8773  0.6552
 6497TIP3    H240983   3.560   2.297  15.701 -0.6065  0.1282  0.2363
 6498TIP3   OH240984   1.338   4.524   4.629 -0.1950 -0.2805  0.5645
 6498TIP3    H140985   1.419   4.569   4.603 -1.1163  0.7666 -0.5742
 6498TIP3    H240986   1.341   4.441   4.582  0.0061 -0.0422  0.1519
 6499TIP3   OH240987   4.514   6.390   0.973 -0.2941  0.0931  0.2116
 6499TIP3    H140988   4.481   6.447   0.904  2.1873  1.3120 -0.0351
 6499TIP3    H240989   4.550   6.450   1.039  2.0979 -1.1370  0.0864
 6500TIP3   OH240990   4.868   0.575  11.967 -0.3231  0.4489  0.1585
 6500TIP3    H140991   4.785   0.548  11.928 -0.0999 -0.0724  0.0423
 6500TIP3    H240992   4.935   0.530  11.915  0.0125  0.4509  0.5856
 6501TIP3   OH240993   3.223   6.307  12.908 -1.0856 -0.0974  0.1571
 6501TIP3    H140994   3.273   6.327  12.987 -1.3185 -1.8314  0.7489
 6501TIP3    H240995   3.242   6.380  12.849 -0.1693  0.7320  1.4601
 6502TIP3   OH240996   2.534   5.720  13.793  0.0572 -0.0708  0.3661
 6502TIP3    H140997   2.449   5.723  13.748 -1.4323  1.2121  3.1003
 6502TIP3    H240998   2.558   5.812  13.806  1.9461 -0.4279 -0.4858
 6503TIP3   OH240999   1.686   0.363  16.145  0.3710  0.4544 -0.0011
 6503TIP3    H141000   1.769   0.319  16.127  0.5920  0.7765  0.2299
 6503TIP3    H241001   1.710   0.439  16.198 -0.0749  0.5264  0.0996
 6504TIP3   OH241002   1.016   6.495  12.596 -0.1027  0.1189  0.0822
 6504TIP3    H141003   0.946   6.469  12.535 -0.5745  1.3764  0.0723
 6504TIP3    H241004   1.078   6.543  12.541  0.9389 -1.2566  0.0315
 6505TIP3   OH241005   5.655   4.812   0.204 -0.4382  0.1679  0.0130
 6505TIP3    H141006   5.721   4.867   0.162 -1.7057  1.5387 -0.2362
 6505TIP3    H241007   5.586   4.873   0.231 -2.2311 -1.3821 -0.9411
 6506TIP3   OH241008   3.616   4.999   2.463  0.1419  0.2648 -0.1477
 6506TIP3    H141009   3.692   4.941   2.455  0.2257  0.1234  1.6683
 6506TIP3    H241010   3.559   4.973   2.391  1.7100  0.2354 -1.4327
 6507TIP3   OH241011   1.377   5.209   2.014  0.2176  0.1923 -0.5426
 6507TIP3    H141012   1.444   5.261   2.058  1.0896  0.4909 -2.1532
 6507TIP3    H241013   1.396   5.221   1.921 -1.7341 -0.1760 -1.0149
 6508TIP3   OH241014   1.979   6.482  11.654  0.2648 -0.1841  0.3313
 6508TIP3    H141015   2.029   6.403  11.633  1.6574  0.6742  0.3190
 6508TIP3    H241016   2.009   6.547  11.590 -1.8300  0.0101 -0.5088
 6509TIP3   OH241017   2.308   1.899   0.622 -0.5294  0.3359  0.2244
 6509TIP3    H141018   2.327   1.869   0.711 -0.4604  1.4818  0.6099
 6509TIP3    H241019   2.304   1.994   0.630  1.1172  0.5569 -1.3072
 6510TIP3   OH241020   0.445   6.793  15.074  0.4406  0.3124 -0.7158
 6510TIP3    H141021   0.439   6.792  15.169  0.2686  0.1683 -0.7261
 6510TIP3    H241022   0.456   6.701  15.050 -0.1296  0.2824 -0.8717
 6511TIP3   OH241023   4.773   5.121   1.294  0.5718 -0.6095 -0.4656
 6511TIP3    H141024   4.735   5.055   1.237  0.5953  0.4549 -1.7340
 6511TIP3    H241025   4.745   5.205   1.257 -1.6701  0.0940  2.6323
 6512TIP3   OH241026   3.713   5.108   4.963  0.6221  0.1753 -0.3609
 6512TIP3    H141027   3.713   5.038   4.898  0.9166  1.3094 -1.5977
 6512TIP3    H241028   3.757   5.069   5.039  1.5514 -0.7275 -1.3269
 6513TIP3   OH241029   0.485   3.231   2.286 -0.1568 -0.4709 -1.0727
 6513TIP3    H141030   0.534   3.184   2.355  1.8932  0.0601 -2.1350
 6513TIP3    H241031   0.450   3.308   2.330  1.6865  0.2001 -0.7568
 6514TIP3   OH241032   0.190   6.498  12.671  0.4771 -0.1300 -0.8060
 6514TIP3    H141033   0.123   6.539  12.725  0.0921 -1.0970 -0.5540
 6514TIP3    H241034   0.146   6.480  12.588  0.9011  0.8020 -1.2459
 6515TIP3   OH241035   1.228   6.158   0.152  0.0857  0.2508  0.4774
 6515TIP3    H141036   1.280   6.169   0.073  0.0009  0.4093  0.4427
 6515TIP3    H241037   1.152   6.215   0.139 -0.6117 -0.7503  0.0770
 6516TIP3   OH241038   4.786   2.693   3.422 -0.2194 -0.1921 -0.7496
 6516TIP3    H141039   4.737   2.624   3.377  0.1782  0.0493 -1.5682
 6516TIP3    H241040   4.763   2.682   3.514  0.4472 -1.9421 -0.7589
 6517TIP3   OH241041   2.394   3.564  15.958  0.0448  0.0705  0.5380
 6517TIP3    H141042   2.329   3.631  15.980 -0.0102  0.0883  0.3319
 6517TIP3    H241043   2.440   3.547  16.039 -0.6547 -0.4177  0.8449
 6518TIP3   OH241044   3.104   2.085   4.704  0.2319 -0.1313  0.0308
 6518TIP3    H141045   3.116   2.108   4.612  1.7351  1.0712  0.5125
 6518TIP3    H241046   3.031   2.139   4.733  0.4505  0.2807 -0.1757
 6519TIP3   OH241047   2.372   1.340   5.488 -0.6824 -0.0752 -0.2266
 6519TIP3    H141048   2.387   1.341   5.393 -2.2517 -1.0036 -0.5027
 6519TIP3    H241049   2.397   1.252   5.515 -2.2610 -0.5106 -0.1392
 6520TIP3   OH241050   1.571   5.827   3.300 -0.1244 -0.4517  0.3508
 6520TIP3    H141051   1.640   5.780   3.349  1.2937  0.5361 -0.6747
 6520TIP3    H241052   1.537   5.762   3.239 -0.3307 -1.0445  1.0923
 6521TIP3   OH241053   1.833   3.486  10.744 -0.2828 -0.6091  0.5514
 6521TIP3    H141054   1.756   3.441  10.710  0.2580 -0.9109 -0.2864
 6521TIP3    H241055   1.807   3.578  10.749 -0.6372 -0.6847  0.0922
 6522TIP3   OH241056   2.274   3.334   2.590  0.6450 -0.1339  0.2776
 6522TIP3    H141057   2.198   3.280   2.611  0.4138  0.3181  0.6091
 6522TIP3    H241058   2.299   3.374   2.673  0.1258  1.1434 -0.1734
 6523TIP3   OH241059   6.098   3.354  16.867 -0.0782  0.1793 -0.2718
 6523TIP3    H141060   6.086   3.284  16.931 -1.3000  0.7414  0.1178
 6523TIP3    H241061   6.027   3.415  16.884  0.9012  1.4628 -0.6917
 6524TIP3   OH241062   3.114   2.273   3.747 -0.6957 -0.2249  0.1718
 6524TIP3    H141063   3.144   2.323   3.823 -1.2541  0.6294 -0.1564
 6524TIP3    H241064   3.119   2.335   3.674 -1.0070 -0.7688 -0.3177
 6525TIP3   OH241065   4.981   3.575   6.686  0.6553 -0.2078 -0.3058
 6525TIP3    H141066   4.901   3.528   6.708  0.4179  0.4389  0.2284
 6525TIP3    H241067   4.956   3.633   6.613  0.4148  0.6215  0.4278
 6526TIP3   OH241068   5.276   3.560   4.947  0.4540 -0.4246  0.4266
 6526TIP3    H141069   5.283   3.490   5.012  0.2636 -0.5526  0.3105
 6526TIP3    H241070   5.231   3.631   4.993 -0.5471 -0.8661  0.1618
 6527TIP3   OH241071   0.971   4.262   1.453  0.0827  0.8800  0.0195
 6527TIP3    H141072   0.973   4.169   1.476  1.9307  0.8487 -0.1978
 6527TIP3    H241073   0.880   4.278   1.429 -0.5248 -0.5819  1.2199
 6528TIP3   OH241074   0.706   5.621   1.268  0.0999  0.6110 -0.0049
 6528TIP3    H141075   0.725   5.614   1.362 -1.0524  0.6556  0.2385
 6528TIP3    H241076   0.779   5.672   1.233  0.9824 -0.1275  0.7140
 6529TIP3   OH241077   3.904   3.777  13.233  0.3292  0.3487 -0.1538
 6529TIP3    H141078   3.862   3.760  13.317  0.4724 -1.2446 -0.3879
 6529TIP3    H241079   3.990   3.734  13.240 -0.5796 -1.8620 -1.9674
 6530TIP3   OH241080   6.016   2.337  16.025 -0.1166 -0.3850 -0.3097
 6530TIP3    H141081   6.061   2.400  15.969 -1.4095  2.5357  1.7995
 6530TIP3    H241082   6.039   2.362  16.114 -2.7084 -1.2480  0.6726
 6531TIP3   OH241083   1.591   1.126  13.161 -0.2466 -0.2451 -0.2675
 6531TIP3    H141084   1.500   1.108  13.137 -0.9182  0.7854  1.3838
 6531TIP3    H241085   1.643   1.077  13.098 -1.9418  0.0698 -1.9576
 6532TIP3   OH241086   5.279   3.159   2.668  0.1149 -0.8547 -0.4335
 6532TIP3    H141087   5.299   3.068   2.647  0.1971 -0.6974 -1.0334
 6532TIP3    H241088   5.188   3.171   2.642  0.6262 -0.2670 -2.0574
 6533TIP3   OH241089   1.644   0.377   4.092 -0.2896 -0.6294  0.5057
 6533TIP3    H141090   1.627   0.283   4.096  1.0719 -0.9507 -0.6854
 6533TIP3    H241091   1.596   0.406   4.015  0.4399 -0.6166  0.0530
 6534TIP3   OH241092   3.592   2.235  11.690  0.6739 -0.5274 -0.8305
 6534TIP3    H141093   3.599   2.245  11.785  2.9592 -1.8155 -0.8140
 6534TIP3    H241094   3.501   2.253  11.670  0.7984  2.8191  1.2240
 6535TIP3   OH241095   4.319   6.735  12.271 -0.3164 -0.4639 -0.2158
 6535TIP3    H141096   4.224   6.733  12.258 -0.1260 -0.7369 -1.7408
 6535TIP3    H241097   4.331   6.742  12.365 -1.8413 -1.1401  0.0346
 6536TIP3   OH241098   4.577   3.100   3.200  0.9671 -0.0249  0.0995
 6536TIP3    H141099   4.581   3.016   3.155  1.5448  0.1256 -0.1347
 6536TIP3    H241100   4.595   3.165   3.132 -0.3706  0.3606  0.0863
 6537TIP3   OH241101   0.635   2.339   2.444 -0.2173 -0.7759  0.1586
 6537TIP3    H141102   0.670   2.364   2.358 -0.7053 -0.4740  0.0395
 6537TIP3    H241103   0.544   2.369   2.441 -0.1436 -0.4776  0.9000
 6538TIP3   OH241104   4.387   1.006  15.069  0.0828 -0.3323  0.0940
 6538TIP3    H141105   4.314   1.062  15.096  0.6746  1.3450 -1.6243
 6538TIP3    H241106   4.460   1.033  15.125  0.3540  0.6037 -0.6993
 6539TIP3   OH241107   0.638   0.113   2.910  0.3072 -0.1122 -0.0680
 6539TIP3    H141108   0.686   0.035   2.936  0.1119 -0.7575 -1.5774
 6539TIP3    H241109   0.700   0.185   2.921  0.7027 -0.5629  0.6841
 6540TIP3   OH241110   5.057   5.733   4.477 -0.2257  0.0613  0.3978
 6540TIP3    H141111   5.076   5.746   4.570 -0.8087  2.1064  0.2667
 6540TIP3    H241112   5.068   5.639   4.462  1.0916 -0.1038  2.2549
 6541TIP3   OH241113   4.914   4.534   3.294 -0.1216 -0.4576  0.3709
 6541TIP3    H141114   4.873   4.583   3.365 -0.4501 -0.3634  0.1165
 6541TIP3    H241115   4.962   4.599   3.243 -0.5574 -0.3965  0.0335
 6542TIP3   OH241116   0.859   3.396   3.174  0.2373 -0.0885 -0.7807
 6542TIP3    H141117   0.931   3.373   3.232 -0.2882 -0.0206 -0.0875
 6542TIP3    H241118   0.784   3.346   3.208  0.0372 -0.4288 -1.7024
 6543TIP3   OH241119   1.243   3.039   0.036  0.4361 -0.1170  0.4003
 6543TIP3    H141120   1.335   3.034   0.010 -0.2838  0.8381 -2.4311
 6543TIP3    H241121   1.202   3.097  -0.028 -2.3041 -1.0801  1.1935
 6544TIP3   OH241122   5.516   0.397   5.977  0.4044  0.9490  0.0712
 6544TIP3    H141123   5.540   0.426   6.065 -0.6763 -0.3373  0.8081
 6544TIP3    H241124   5.449   0.460   5.949 -0.4860  0.3562  0.8570
 6545TIP3   OH241125   3.657   4.957  12.806 -0.0943  0.4739  0.1528
 6545TIP3    H141126   3.580   4.907  12.777 -0.1215  0.2956  0.5266
 6545TIP3    H241127   3.724   4.891  12.820  0.1115  0.6242 -0.1114
 6546TIP3   OH241128   4.487   6.462   3.756 -0.2914 -0.2462  0.2700
 6546TIP3    H141129   4.498   6.553   3.728 -0.5618 -0.2019  0.3126
 6546TIP3    H241130   4.575   6.424   3.747  0.2368  0.4928  1.9462
 6547TIP3   OH241131   2.887   4.855  14.666  0.3071  0.1009  0.2120
 6547TIP3    H141132   2.823   4.785  14.659 -0.1512  0.4654  0.6668
 6547TIP3    H241133   2.966   4.820  14.626 -0.5371  0.0913 -1.5269
 6548TIP3   OH241134   0.386   5.407   3.457  0.0263 -0.4244  0.6269
 6548TIP3    H141135   0.471   5.398   3.500  0.2241 -1.0591  0.1104
 6548TIP3    H241136   0.393   5.489   3.408 -0.4440  0.6576  2.3361
 6549TIP3   OH241137   0.769   5.116   3.523  0.0502 -0.6778  0.1880
 6549TIP3    H141138   0.688   5.067   3.529 -0.1602 -0.3838 -0.2613
 6549TIP3    H241139   0.821   5.086   3.598  0.3057 -2.2686 -0.6266
 6550TIP3   OH241140   3.203   3.944   0.591 -0.0508  0.0730  0.3621
 6550TIP3    H141141   3.171   4.033   0.602  1.0715  0.4424  0.6753
 6550TIP3    H241142   3.259   3.948   0.514 -0.5809 -0.5281 -0.0628
 6551TIP3   OH241143   2.955   1.637   0.062 -0.4405 -0.1947  0.3180
 6551TIP3    H141144   2.894   1.606   0.128  1.0344 -4.2515 -0.0630
 6551TIP3    H241145   2.907   1.632  -0.021 -0.8216  0.4288  0.5010
 6552TIP3   OH241146   0.238   1.886  12.332  0.2327 -0.1221 -0.2706
 6552TIP3    H141147   0.222   1.937  12.252 -0.4577 -1.3255 -0.9202
 6552TIP3    H241148   0.333   1.890  12.344  0.4824 -0.8881 -1.8346
 6553TIP3   OH241149   1.466   0.457  13.629  0.1844  0.2032  0.0168
 6553TIP3    H141150   1.485   0.433  13.538 -0.1151 -0.4549  0.1205
 6553TIP3    H241151   1.483   0.551  13.633 -0.4855  0.3743 -0.9025
 6554TIP3   OH241152   2.058   3.142   0.024 -0.0757  0.0408 -0.3834
 6554TIP3    H141153   2.099   3.108  -0.056  1.4160 -0.9587  0.7962
 6554TIP3    H241154   2.118   3.118   0.094 -3.6879 -3.3147  1.7101
 6555TIP3   OH241155   4.535   3.367   4.119  0.3123  0.2196  0.6004
 6555TIP3    H141156   4.490   3.301   4.065  0.9657  0.8711 -0.7581
 6555TIP3    H241157   4.500   3.451   4.089  0.9986  0.6148  0.8945
 6556TIP3   OH241158   3.559   3.768   0.452  0.6647  0.2205  0.2408
 6556TIP3    H141159   3.525   3.850   0.415 -1.0893 -0.8680 -0.6179
 6556TIP3    H241160   3.618   3.796   0.522 -1.2030  2.2061  1.0827
 6557TIP3   OH241161   1.575   3.012  13.511 -0.3461 -0.9064  0.1568
 6557TIP3    H141162   1.530   3.092  13.486  1.4426  0.6638  1.7813
 6557TIP3    H241163   1.620   3.034  13.592  0.4738 -3.4620  0.4509
 6558TIP3   OH241164   0.534   1.967  12.339 -0.4167  0.3886  0.0096
 6558TIP3    H141165   0.606   2.029  12.323  1.4020 -1.4318  0.9308
 6558TIP3    H241166   0.534   1.955  12.434 -2.2117  0.6491  0.0599
 6559TIP3   OH241167   5.672   3.352   0.759  0.5029  0.4475 -0.0931
 6559TIP3    H141168   5.611   3.305   0.816  0.3202 -0.6028 -1.1175
 6559TIP3    H241169   5.759   3.327   0.791  0.4015  1.1417  0.7308
 6560TIP3   OH241170   0.953   6.314   2.367 -0.4326  0.2052 -0.5878
 6560TIP3    H141171   0.896   6.308   2.291 -0.2380  1.9689 -0.9023
 6560TIP3    H241172   1.014   6.385   2.345  0.4156 -0.1140  0.6930
 6561TIP3   OH241173   2.361   2.197   0.498  0.3256  0.2016  0.3555
 6561TIP3    H141174   2.377   2.276   0.548  0.4501  0.5891 -0.2930
 6561TIP3    H241175   2.437   2.141   0.516  0.2436  0.2328  0.8002
 6562TIP3   OH241176   3.316   4.787  12.031  0.7429 -0.1413 -0.3143
 6562TIP3    H141177   3.235   4.792  11.980 -0.9013 -2.7316  1.8861
 6562TIP3    H241178   3.360   4.709  11.998  0.0334 -1.4003  1.5965
 6563TIP3   OH241179   4.706   1.876   5.081  0.1397  0.2263 -0.4927
 6563TIP3    H141180   4.618   1.868   5.118  0.5922  0.0991  0.5783
 6563TIP3    H241181   4.734   1.965   5.103  0.1739  0.3575 -1.0623
 6564TIP3   OH241182   3.453   5.721   5.191 -0.4323  0.4387  0.2277
 6564TIP3    H141183   3.382   5.784   5.180 -1.3751 -0.7971 -0.8906
 6564TIP3    H241184   3.409   5.638   5.209  0.7337 -0.3149 -0.3360
 6565TIP3   OH241185   3.671   0.510  17.233  0.5233 -0.5403 -0.3374
 6565TIP3    H141186   3.736   0.562  17.280 -0.6356  1.4189 -0.8003
 6565TIP3    H241187   3.696   0.519  17.141 -0.4733  0.3575 -0.5296
 6566TIP3   OH241188   0.208   3.663   2.686 -0.5982  0.0524  0.5531
 6566TIP3    H141189   0.239   3.740   2.637 -1.3069  0.9683  1.5138
 6566TIP3    H241190   0.141   3.625   2.630  0.2412 -0.2739 -0.2422
 6567TIP3   OH241191   0.363   3.919   4.321  0.0173 -0.2699  0.2504
 6567TIP3    H141192   0.367   3.940   4.227  0.3229  1.2896  0.6115
 6567TIP3    H241193   0.291   3.972   4.355  0.3787 -0.2761  1.0390
 6568TIP3   OH241194   3.124   6.460   0.988  0.1224  0.7313  0.0305
 6568TIP3    H141195   3.156   6.392   0.928 -0.6008 -0.1812  0.6504
 6568TIP3    H241196   3.169   6.443   1.071  1.5062  2.3075 -0.3837
 6569TIP3   OH241197   4.720   6.371   1.308 -0.3645  0.3860 -0.2291
 6569TIP3    H141198   4.687   6.427   1.237  0.6903 -0.5146 -1.4597
 6569TIP3    H241199   4.762   6.432   1.368  1.2655  0.9144 -1.8430
 6570TIP3   OH241200   1.000   0.147   4.492 -0.3508  0.1269  0.1392
 6570TIP3    H141201   1.017   0.053   4.483  0.4350  0.3604 -0.9548
 6570TIP3    H241202   0.954   0.155   4.576  1.2773 -1.0183  1.1741
 6571TIP3   OH241203   6.047   0.869   2.907  0.1642  0.6660 -0.3408
 6571TIP3    H141204   6.112   0.861   2.837  0.6314  2.3775 -0.1418
 6571TIP3    H241205   6.092   0.838   2.985 -0.0710 -0.4279 -0.6301
 6572TIP3   OH241206   5.899   2.506  11.842 -0.1836 -0.0306 -0.7624
 6572TIP3    H141207   5.912   2.584  11.896  0.2654  1.3046 -2.7430
 6572TIP3    H241208   5.960   2.441  11.878 -1.2231  0.2185  1.4845
 6573TIP3   OH241209   5.225   0.561   1.573 -0.1634  0.9404 -0.0698
 6573TIP3    H141210   5.191   0.638   1.528  0.1091  0.6506 -0.7805
 6573TIP3    H241211   5.148   0.518   1.609 -0.5757  0.2887 -1.6703
 6574TIP3   OH241212   4.674   5.891   1.597 -0.3052 -0.0421  0.5522
 6574TIP3    H141213   4.682   5.978   1.557  1.1202 -0.4170 -0.0140
 6574TIP3    H241214   4.698   5.905   1.688  0.2898  0.0958  0.3789
 6575TIP3   OH241215   5.405   4.894   2.138  0.5335 -0.1381  0.1402
 6575TIP3    H141216   5.385   4.801   2.150  2.5173 -0.6129 -0.1214
 6575TIP3    H241217   5.348   4.939   2.200 -2.4750 -1.3219 -1.6684
 6576TIP3   OH241218   2.246   2.381  14.280  0.4439 -0.7594 -0.7833
 6576TIP3    H141219   2.235   2.368  14.374  1.0381  0.9485 -0.4581
 6576TIP3    H241220   2.235   2.293  14.242 -0.1307 -1.4034  0.8318
 6577TIP3   OH241221   4.168   5.573   0.569  0.6482  0.2261 -0.3062
 6577TIP3    H141222   4.143   5.496   0.517  1.3602 -1.0171  1.1607
 6577TIP3    H241223   4.100   5.579   0.636  1.6155 -0.2649  0.7292
 6578TIP3   OH241224   4.739   2.900  14.021 -0.1830  0.4429 -0.2595
 6578TIP3    H141225   4.710   2.897  13.930 -0.0841  0.8271 -0.3049
 6578TIP3    H241226   4.786   2.983  14.028  3.2383 -1.3305 -0.9067
 6579TIP3   OH241227   2.536   1.263   0.898 -0.0500 -0.2885 -0.1696
 6579TIP3    H141228   2.619   1.291   0.938  0.2599  2.1556 -2.4506
 6579TIP3    H241229   2.559   1.244   0.807 -2.3715  2.3795 -1.3606
 6580TIP3   OH241230   1.327   0.053   2.479 -0.1556  0.0934  0.2791
 6580TIP3    H141231   1.421   0.041   2.493  0.1238 -0.2188 -1.6360
 6580TIP3    H241232   1.300   0.116   2.546  1.5476  0.6569  0.4529
 6581TIP3   OH241233   3.038   3.288  13.668  0.3878 -0.7097  0.0781
 6581TIP3    H141234   3.042   3.383  13.658 -2.0661 -0.5335  0.5931
 6581TIP3    H241235   3.054   3.273  13.761 -0.1480 -0.7361  0.1666
 6582TIP3   OH241236   5.116   1.743   1.907 -0.3049  0.3590  0.3063
 6582TIP3    H141237   5.143   1.825   1.866  2.0738 -0.2300  0.6007
 6582TIP3    H241238   5.112   1.680   1.835  0.3691  0.1563  0.4409
 6583TIP3   OH241239   5.307   1.476   3.106  0.5521 -0.0471 -0.5539
 6583TIP3    H141240   5.391   1.506   3.070 -1.0199  0.8556 -3.6560
 6583TIP3    H241241   5.242   1.534   3.066 -1.6689 -1.3310  1.0717
 6584TIP3   OH241242   6.259   1.988   3.364  0.7428  0.0295 -0.1046
 6584TIP3    H141243   6.293   2.075   3.386 -1.3931  0.5868  1.1540
 6584TIP3    H241244   6.213   2.001   3.281 -0.1985  0.2957  0.4442
 6585TIP3   OH241245   2.969   0.650  11.002 -0.2845  0.2618 -0.1045
 6585TIP3    H141246   3.040   0.704  10.968  0.3216 -0.2409  0.3464
 6585TIP3    H241247   2.996   0.628  11.091 -0.8138 -0.2717 -0.0683
 6586TIP3   OH241248   5.647   4.297  13.466 -0.1266  0.2232 -0.4273
 6586TIP3    H141249   5.710   4.253  13.523 -1.2920 -1.5782 -0.4782
 6586TIP3    H241250   5.623   4.231  13.401 -2.8058  0.5048  0.1792
 6587TIP3   OH241251   0.608   5.240  15.421 -0.2911  0.5253 -0.5060
 6587TIP3    H141252   0.663   5.220  15.346 -1.0046 -1.4110 -0.5186
 6587TIP3    H241253   0.667   5.286  15.482  0.0355  3.0308 -2.6139
 6588TIP3   OH241254   1.804   2.463  16.541  0.3486 -0.0004  0.1298
 6588TIP3    H141255   1.832   2.448  16.450 -0.2407 -0.2414 -0.0155
 6588TIP3    H241256   1.713   2.434  16.543 -0.4607  2.4466  0.1330
 6589TIP3   OH241257   3.435   1.278  14.753  0.0489  0.3328  0.4685
 6589TIP3    H141258   3.503   1.317  14.808  1.7269 -0.5815 -0.9088
 6589TIP3    H241259   3.417   1.344  14.686  1.2239 -0.2956 -0.4910
 6590TIP3   OH241260   5.407   1.014   0.507  0.1888  0.1915 -0.5813
 6590TIP3    H141261   5.316   0.990   0.490 -0.0648  1.5097 -1.1698
 6590TIP3    H241262   5.457   0.967   0.439 -0.0047 -0.8529 -0.0037
 6591TIP3   OH241263   6.110   0.064  14.858 -0.3368  0.3262 -0.7190
 6591TIP3    H141264   6.148  -0.023  14.870 -0.0416  0.6219  0.5807
 6591TIP3    H241265   6.016   0.051  14.872 -0.1601  0.4078  0.6108
 6592TIP3   OH241266   2.428   4.041   2.347  0.4203 -0.1161 -0.4725
 6592TIP3    H141267   2.480   3.998   2.416 -1.5921 -2.0662 -0.1064
 6592TIP3    H241268   2.365   3.974   2.320  0.1494  1.1580 -3.1192
 6593TIP3   OH241269   5.309   6.578  14.309  0.4411  0.0442 -0.3242
 6593TIP3    H141270   5.352   6.522  14.245 -1.1873 -1.5519 -0.0753
 6593TIP3    H241271   5.228   6.531  14.331 -0.2740  1.8218  0.9481
 6594TIP3   OH241272   3.297   3.915   3.793 -0.1163 -0.1441  0.3239
 6594TIP3    H141273   3.328   3.827   3.769 -0.9268 -0.7494  1.4509
 6594TIP3    H241274   3.363   3.974   3.756  2.5071 -1.4099  2.7499
 6595TIP3   OH241275   3.486   3.282  14.655  0.0456  0.1791 -0.1092
 6595TIP3    H141276   3.520   3.351  14.712 -0.2898  0.1388  0.1457
 6595TIP3    H241277   3.522   3.301  14.569 -0.8849  1.2660 -0.2571
 6596TIP3   OH241278   0.606   0.535  13.662 -0.7666 -0.1417 -0.4745
 6596TIP3    H141279   0.580   0.557  13.751 -2.3956 -1.9925 -0.4612
 6596TIP3    H241280   0.568   0.449  13.646  0.9997 -0.6234 -2.3433
 6597TIP3   OH241281   3.201   3.615   3.925  0.6423 -0.4704 -0.2332
 6597TIP3    H141282   3.218   3.538   3.980  2.4162  1.0994  1.4802
 6597TIP3    H241283   3.223   3.690   3.980 -1.4633  1.3255 -1.7318
 6598TIP3   OH241284   1.726   4.637  15.912 -0.5175  0.2047 -0.8621
 6598TIP3    H141285   1.749   4.645  16.005 -0.0887 -0.2323 -0.9277
 6598TIP3    H241286   1.647   4.584  15.912 -1.4593  1.5771 -0.6406
 6599TIP3   OH241287   0.939   3.535  14.926  0.7806  0.2975  0.2861
 6599TIP3    H141288   0.960   3.462  14.984  1.1125 -0.7616 -1.1456
 6599TIP3    H241289   0.975   3.510  14.841  0.5664  1.9585 -0.3244
 6600TIP3   OH241290   4.322   6.366   6.966 -0.0693 -0.0027  0.0761
 6600TIP3    H141291   4.367   6.388   7.047 -0.0576 -0.0514  0.0831
 6600TIP3    H241292   4.384   6.312   6.917  0.1110  0.4296 -0.1796
 6601TIP3   OH241293   0.601   1.488  12.118 -0.2499  0.3218 -0.4791
 6601TIP3    H141294   0.687   1.494  12.076  0.3780 -0.1975  0.7100
 6601TIP3    H241295   0.539   1.488  12.046  0.8577 -1.7537 -1.4717
 6602TIP3   OH241296   2.672   2.922  11.593  0.0673  0.1730 -0.0383
 6602TIP3    H141297   2.595   2.979  11.594 -1.7511 -2.2257  0.5707
 6602TIP3    H241298   2.716   2.942  11.510 -1.8997  0.6843 -0.9806
 6603TIP3   OH241299   4.349   2.176   1.218 -0.9144 -0.5690  0.2944
 6603TIP3    H141300   4.434   2.177   1.262 -1.2318  0.1152  0.8969
 6603TIP3    H241301   4.363   2.121   1.141  0.2396  0.0422  0.0557
 6604TIP3   OH241302   2.961   3.350   4.622  0.2144 -0.0863  0.2097
 6604TIP3    H141303   2.934   3.441   4.635 -1.1065 -0.6197  1.3684
 6604TIP3    H241304   3.053   3.348   4.648 -0.0158  0.7042  1.1097
 6605TIP3   OH241305   3.599   1.503  14.328  0.0180  0.1702  0.7239
 6605TIP3    H141306   3.508   1.479  14.310  0.1292 -0.6723  1.2594
 6605TIP3    H241307   3.598   1.599  14.335  0.0493  0.6642 -4.2372
 6606TIP3   OH241308   3.763   5.219  14.032 -0.1453  0.4171  0.2496
 6606TIP3    H141309   3.703   5.207  14.105 -0.5625 -2.4523 -0.5194
 6606TIP3    H241310   3.734   5.300  13.990 -1.6616  0.5737  1.5687
 6607TIP3   OH241311   2.965   3.564  16.795 -0.4904 -0.0491  0.5423
 6607TIP3    H141312   3.048   3.604  16.820 -2.9226  2.9574  4.3100
 6607TIP3    H241313   2.950   3.495  16.859 -0.3826 -1.3944 -0.8426
 6608TIP3   OH241314   4.489   3.899  12.911 -0.1628 -0.2762 -0.3159
 6608TIP3    H141315   4.400   3.906  12.876  0.1062  0.4817 -0.8571
 6608TIP3    H241316   4.546   3.912  12.835  0.4321  1.3794  0.3980
 6609TIP3   OH241317   2.993   2.155  16.018 -0.7191  0.0424  0.8929
 6609TIP3    H141318   3.060   2.217  16.043  1.3869 -1.8815  0.1717
 6609TIP3    H241319   2.978   2.172  15.925  1.1760 -1.6840  0.2426
 6610TIP3   OH241320   1.143   0.174  14.001  0.0458 -0.0606  0.2431
 6610TIP3    H141321   1.216   0.112  14.000 -0.0389 -0.1526 -0.2423
 6610TIP3    H241322   1.180   0.255  14.036  0.3855 -0.0973 -0.0329
 6611TIP3   OH241323   4.785   5.170   2.524  0.7894 -0.1708  0.4466
 6611TIP3    H141324   4.753   5.244   2.577 -1.0747 -2.1428  2.1659
 6611TIP3    H241325   4.724   5.164   2.451  1.1027  0.1307  0.1551
 6612TIP3   OH241326   0.144   0.343  13.397 -0.7234  0.4365  0.0350
 6612TIP3    H141327   0.189   0.261  13.418 -1.5901  0.1216  0.6731
 6612TIP3    H241328   0.114   0.332  13.307  1.6038  1.1597 -0.8622
 6613TIP3   OH241329   3.129   6.661  16.705 -0.4196  0.1540 -0.7094
 6613TIP3    H141330   3.182   6.740  16.694 -0.8314  0.2099 -2.4408
 6613TIP3    H241331   3.065   6.665  16.634 -0.1177 -2.0019 -1.1376
 6614TIP3   OH241332   5.554   6.269   6.694 -0.6394 -0.5187 -0.1063
 6614TIP3    H141333   5.527   6.353   6.656  2.0088 -0.1331 -1.2055
 6614TIP3    H241334   5.484   6.208   6.668 -2.9906  1.4554  1.3772
 6615TIP3   OH241335   3.267   3.493   2.162  0.3553 -0.3142  0.3869
 6615TIP3    H141336   3.247   3.437   2.087 -0.4620 -1.2133  1.2593
 6615TIP3    H241337   3.201   3.470   2.227 -0.0954  1.7895  0.6999
 6616TIP3   OH241338   2.001   5.327   5.530 -0.5816 -0.1171  0.2012
 6616TIP3    H141339   1.986   5.345   5.622 -0.2617 -0.3299  0.2961
 6616TIP3    H241340   1.915   5.338   5.489 -0.9104 -0.8953  0.6655
 6617TIP3   OH241341   6.037   1.654   3.619 -0.0428 -0.0165 -0.1636
 6617TIP3    H141342   6.106   1.599   3.583  0.2676  1.1416 -1.3742
 6617TIP3    H241343   5.983   1.678   3.544 -1.0677  0.0764  0.5850
 6618TIP3   OH241344   6.384   1.711   2.131 -0.4471 -0.1884 -0.3129
 6618TIP3    H141345   6.397   1.627   2.176 -1.4070 -0.6331 -0.8340
 6618TIP3    H241346   6.292   1.708   2.102 -0.7185  1.3835  0.3471
 6619TIP3   OH241347   6.566   2.393  15.903 -0.1168  0.1252  0.4795
 6619TIP3    H141348   6.575   2.402  15.998 -0.3806  0.9793  0.4291
 6619TIP3    H241349   6.482   2.436  15.883 -0.6471 -1.1035  0.0156
 6620TIP3   OH241350   4.821   6.636   5.653  0.0422 -0.2121  0.0256
 6620TIP3    H141351   4.808   6.706   5.589 -0.4768  0.0654  0.4287
 6620TIP3    H241352   4.734   6.602   5.671  0.1461 -0.0903  0.7972
 6621TIP3   OH241353   3.270   4.826   3.936  0.0521 -0.4012 -0.5498
 6621TIP3    H141354   3.301   4.907   3.896 -1.3824  1.3259  1.6875
 6621TIP3    H241355   3.346   4.793   3.986  0.3964 -0.0139 -0.8174
 6622TIP3   OH241356   5.876   3.013   6.199 -0.2601  0.2803  0.5624
 6622TIP3    H141357   5.834   2.947   6.254  0.8454  0.8373  2.1213
 6622TIP3    H241358   5.968   2.986   6.196 -0.2773  0.3463 -0.9119
 6623TIP3   OH241359   5.603   5.929  14.174 -0.1779 -0.0866  0.3441
 6623TIP3    H141360   5.609   6.003  14.234  0.2031  1.2438 -1.2758
 6623TIP3    H241361   5.590   5.969  14.088 -0.0532 -1.9148 -0.5634
 6624TIP3   OH241362   3.224   3.560  16.498  0.3609 -0.1544 -0.0143
 6624TIP3    H141363   3.292   3.603  16.448  0.4785 -0.6685 -0.3039
 6624TIP3    H241364   3.142   3.586  16.455  0.4596 -0.5808 -0.4698
 6625TIP3   OH241365   4.422   3.701   1.710 -0.0979 -0.3039  0.3564
 6625TIP3    H141366   4.471   3.708   1.793 -0.1411 -1.8953  0.5340
 6625TIP3    H241367   4.408   3.607   1.699 -0.2909 -0.0797 -1.3589
 6626TIP3   OH241368   1.334   4.282   1.233  0.0251 -0.1393  0.3060
 6626TIP3    H141369   1.428   4.278   1.217  0.2065 -2.7199  1.8163
 6626TIP3    H241370   1.313   4.200   1.278 -2.6997  1.0415  1.3189
 6627TIP3   OH241371   1.347   3.121   5.006 -0.0084 -0.3497  0.5398
 6627TIP3    H141372   1.402   3.136   4.930  0.7217 -0.9066  0.9523
 6627TIP3    H241373   1.390   3.168   5.077 -1.9896  2.2457  0.1136
 6628TIP3   OH241374   3.756   1.178  11.480  0.2963  0.3595 -0.3109
 6628TIP3    H141375   3.716   1.210  11.399 -3.2536 -0.8914  0.8671
 6628TIP3    H241376   3.712   1.227  11.549  1.7741 -0.1271  0.9848
 6629TIP3   OH241377   2.011   0.411   1.842 -0.4400  0.0811  0.1212
 6629TIP3    H141378   2.070   0.346   1.804 -0.2822  0.5110 -0.3637
 6629TIP3    H241379   2.012   0.392   1.936  0.3297 -0.0215  0.0924
 6630TIP3   OH241380   2.615   6.643  12.982 -0.0647 -0.3940  0.1255
 6630TIP3    H141381   2.632   6.567  13.037  1.5939 -0.4270 -0.3974
 6630TIP3    H241382   2.647   6.618  12.895 -4.1233 -0.9751 -1.3532
 6631TIP3   OH241383   4.297   0.007   3.368 -0.3166 -0.6199  0.0300
 6631TIP3    H141384   4.232   0.017   3.438 -1.1108  3.1015 -1.0875
 6631TIP3    H241385   4.251  -0.039   3.298 -0.7843 -0.8135  0.4697
 6632TIP3   OH241386   0.553   0.644   1.255  1.2217  1.0099 -0.3608
 6632TIP3    H141387   0.487   0.710   1.231  0.6362  1.0736  1.3421
 6632TIP3    H241388   0.628   0.695   1.283  1.3967  0.9372 -0.6917
 6633TIP3   OH241389   2.349   3.890   1.539  0.5834  0.1841 -0.2178
 6633TIP3    H141390   2.381   3.825   1.477 -0.4924 -0.4691 -0.0854
 6633TIP3    H241391   2.279   3.936   1.493 -0.5050 -0.5845  0.6543
 6634TIP3   OH241392   2.288   5.716  17.117  0.3041 -0.4986  0.3438
 6634TIP3    H141393   2.348   5.762  17.176  0.5305  0.0743 -0.3233
 6634TIP3    H241394   2.259   5.784  17.056 -0.8177 -0.8378  0.5019
 6635TIP3   OH241395   0.873   4.791  14.707  0.1498  0.2996  1.2380
 6635TIP3    H141396   0.809   4.745  14.762 -0.2850  0.4419  0.8571
 6635TIP3    H241397   0.938   4.724  14.685 -0.4542 -0.1198  0.7311
 6636TIP3   OH241398   2.978   5.061  17.041  0.3974 -0.2711  0.0881
 6636TIP3    H141399   2.956   5.009  17.119  1.1146 -1.3385 -0.4129
 6636TIP3    H241400   2.988   5.150  17.074  0.3493 -0.6530  1.1587
 6637TIP3   OH241401   3.093   5.478  15.818  0.2914  0.3355 -0.0371
 6637TIP3    H141402   3.146   5.517  15.748 -0.0737 -0.4756 -0.7800
 6637TIP3    H241403   3.130   5.513  15.899  0.3913  1.7144 -0.6542
 6638TIP3   OH241404   0.474   3.684  15.267  0.0348  0.0176  0.6494
 6638TIP3    H141405   0.536   3.757  15.265 -1.3849  1.2300  0.2316
 6638TIP3    H241406   0.406   3.712  15.328  0.0256 -1.4234  1.3180
 6639TIP3   OH241407   3.265   4.945  17.125  0.1217  0.0918 -0.8973
 6639TIP3    H141408   3.220   4.861  17.124 -0.6687  0.5192 -2.1556
 6639TIP3    H241409   3.231   4.989  17.203  0.1088 -0.5255 -0.5530
 6640TIP3   OH241410   2.650   0.265   6.261 -0.2900 -0.1518  0.6352
 6640TIP3    H141411   2.732   0.219   6.276 -1.1424 -0.9323  3.2881
 6640TIP3    H241412   2.663   0.351   6.302  0.5953  1.3102 -2.5550
 6641TIP3   OH241413   5.207   5.648  15.252 -0.5248 -0.2010 -0.0409
 6641TIP3    H141414   5.184   5.731  15.294  1.8032  0.6082 -0.2878
 6641TIP3    H241415   5.128   5.595  15.259 -1.8848  1.8507  0.5849
 6642TIP3   OH241416   0.818   4.782  15.912  0.5859 -0.0186 -0.2414
 6642TIP3    H141417   0.754   4.715  15.938 -0.1127  0.2547 -1.2144
 6642TIP3    H241418   0.903   4.739  15.922  0.0862 -1.5725 -2.3179
 6643TIP3   OH241419   6.341   5.331  14.383 -0.4533  0.0347  0.2319
 6643TIP3    H141420   6.389   5.248  14.387 -0.4130 -0.0125 -1.1841
 6643TIP3    H241421   6.405   5.397  14.411  0.0243 -0.2003 -0.3100
 6644TIP3   OH241422   1.138   0.541  13.644  0.5956  0.6565 -0.1364
 6644TIP3    H141423   1.160   0.633  13.656 -0.2667  0.7962  0.3968
 6644TIP3    H241424   1.171   0.498  13.723 -0.6242  0.7963  0.4581
 6645TIP3   OH241425   2.185   2.452   0.371  0.4848 -0.4403  0.3883
 6645TIP3    H141426   2.178   2.368   0.326  0.4707  0.7281 -1.8878
 6645TIP3    H241427   2.095   2.474   0.397  0.2379 -0.3512 -0.5210
 6646TIP3   OH241428   4.365   1.328  12.549  0.0517  0.3378 -0.2268
 6646TIP3    H141429   4.322   1.412  12.564  1.1965  0.5480  2.2690
 6646TIP3    H241430   4.433   1.347  12.485 -0.9073  0.9002 -1.0864
 6647TIP3   OH241431   3.109   0.247  15.943  0.0726  0.0044 -0.4037
 6647TIP3    H141432   3.070   0.160  15.953  1.2134 -0.3920  0.6817
 6647TIP3    H241433   3.195   0.240  15.984  0.3072  1.5602 -0.5927
 6648TIP3   OH241434   5.587   5.983  12.118  0.0411 -0.2464  0.1542
 6648TIP3    H141435   5.594   6.026  12.033 -0.7145  0.0574  0.2484
 6648TIP3    H241436   5.534   6.042  12.171  0.2452 -0.5873  0.7419
 6649TIP3   OH241437   5.112   5.005   1.458  0.3950 -0.1125  0.2521
 6649TIP3    H141438   5.034   5.030   1.508 -0.0694 -0.8479 -0.0818
 6649TIP3    H241439   5.147   4.930   1.505 -0.3260 -1.1158 -0.7781
 6650TIP3   OH241440   5.004   2.935  14.620 -0.0868  0.6074 -0.2906
 6650TIP3    H141441   5.033   3.024  14.639  0.0383  0.3643  0.6856
 6650TIP3    H241442   4.998   2.931  14.524  0.1884  1.5706 -0.3477
 6651TIP3   OH241443   0.393   4.145  15.583  0.1765  0.6353 -0.0171
 6651TIP3    H141444   0.337   4.165  15.658  0.2685  0.0510  0.2111
 6651TIP3    H241445   0.348   4.185  15.508 -0.9783 -0.5621  0.0292
 6652TIP3   OH241446   1.596   2.968  10.685  0.7717  0.0437  0.3472
 6652TIP3    H141447   1.563   3.055  10.666 -0.8859 -0.4972  0.6523
 6652TIP3    H241448   1.680   2.963  10.639  0.5005  1.5110 -0.3115
 6653TIP3   OH241449   3.545   1.243   0.463 -0.1085  0.3196 -0.3584
 6653TIP3    H141450   3.520   1.163   0.417  0.4828 -0.7766  1.2117
 6653TIP3    H241451   3.635   1.228   0.492 -0.1685  1.3391  0.4052
 6654TIP3   OH241452   3.835   0.357   6.120 -0.4277 -0.0868 -0.3303
 6654TIP3    H141453   3.843   0.406   6.038  0.7547 -0.2357 -0.3228
 6654TIP3    H241454   3.808   0.269   6.093  0.1139 -0.1798 -0.5779
 6655TIP3   OH241455   5.432   1.065  15.941  0.2629 -0.0178 -0.2740
 6655TIP3    H141456   5.437   1.116  16.022 -0.6863  1.3600 -1.0587
 6655TIP3    H241457   5.417   1.130  15.872  3.0679 -0.9792 -1.8509
 6656TIP3   OH241458   6.135   3.863   5.840 -0.0553  0.2637 -0.5101
 6656TIP3    H141459   6.226   3.833   5.828  0.0296  0.8561 -1.3335
 6656TIP3    H241460   6.118   3.846   5.933  1.7930  2.5592  0.3055
 6657TIP3   OH241461   4.004   0.783  16.045  0.5891  0.3379 -0.1032
 6657TIP3    H141462   4.044   0.845  16.105  2.2507 -0.7026 -0.1097
 6657TIP3    H241463   4.022   0.819  15.958  0.6833  0.3603 -0.0735
 6658TIP3   OH241464   4.417   4.831  14.169  0.6216  0.1427  0.3405
 6658TIP3    H141465   4.452   4.809  14.255  2.1956  1.8189  0.1619
 6658TIP3    H241466   4.408   4.926  14.169 -0.5402  0.0600 -0.9200
 6659TIP3   OH241467   5.354   6.600   1.809 -0.4420  0.1566 -0.1195
 6659TIP3    H141468   5.418   6.653   1.759  1.2135 -0.6668  1.0822
 6659TIP3    H241469   5.273   6.650   1.803  0.2360  1.1306 -1.8821
 6660TIP3   OH241470   3.502   2.428  16.446 -0.1170  0.5048  0.1489
 6660TIP3    H141471   3.593   2.442  16.471  0.3748 -0.8312 -0.8177
 6660TIP3    H241472   3.497   2.462  16.356 -0.0664 -1.2145 -0.5170
 6661TIP3   OH241473   2.467   5.092  12.846  0.2810  0.3347 -0.1147
 6661TIP3    H141474   2.376   5.076  12.869 -0.7138 -0.4742 -4.2718
 6661TIP3    H241475   2.512   5.100  12.931 -2.9499 -2.9471  2.0387
 6662TIP3   OH241476   5.128   0.684   5.877  0.7404 -0.4845 -0.3223
 6662TIP3    H141477   5.200   0.633   5.914 -0.2596 -0.2922  1.9973
 6662TIP3    H241478   5.138   0.771   5.916 -0.7305 -0.4613  0.0416
 6663TIP3   OH241479   1.392   0.937  14.762  0.3419  0.1512  0.0596
 6663TIP3    H141480   1.476   0.898  14.787  0.7267  1.8549  1.4934
 6663TIP3    H241481   1.334   0.862  14.750  2.0397 -1.0476 -0.8991
 6664TIP3   OH241482   2.974   1.903   0.256 -0.1193 -0.4647 -0.0769
 6664TIP3    H141483   2.968   1.813   0.224  0.4967 -0.5432  0.0085
 6664TIP3    H241484   3.060   1.908   0.298 -1.1724 -0.5290  2.1420
 6665TIP3   OH241485   1.795   2.404   6.214 -0.0168  0.0402 -0.4650
 6665TIP3    H141486   1.716   2.451   6.243  0.5444  1.3898 -1.0556
 6665TIP3    H241487   1.825   2.357   6.291 -1.8182 -1.1130 -0.4167
 6666TIP3   OH241488   2.590   3.054   0.770  0.3994 -0.6022 -0.1224
 6666TIP3    H141489   2.669   3.001   0.779  0.7140  0.0460  1.1113
 6666TIP3    H241490   2.607   3.110   0.694  1.8925  0.7794  1.1897
 6667TIP3   OH241491   2.199   2.302  11.020 -0.3826  0.4631 -0.0308
 6667TIP3    H141492   2.205   2.230  10.957 -0.5436  1.8838 -1.7078
 6667TIP3    H241493   2.139   2.364  10.979  1.5147  2.5964  0.3386
 6668TIP3   OH241494   3.790   2.250  11.200  0.4731  0.1070 -0.5629
 6668TIP3    H141495   3.740   2.174  11.170 -2.5926  2.0368 -0.5232
 6668TIP3    H241496   3.806   2.233  11.293 -0.4125 -0.3847 -0.4942
 6669TIP3   OH241497   1.014   2.587   2.484 -0.5686 -0.5164  0.1689
 6669TIP3    H141498   1.006   2.553   2.395 -0.5236  2.1365 -0.8803
 6669TIP3    H241499   0.942   2.545   2.532 -1.1445 -1.2750 -1.3182
 6670TIP3   OH241500   1.310   4.414   1.953  0.3571 -0.5316  0.4741
 6670TIP3    H141501   1.288   4.438   1.863  2.5871 -1.1141 -0.2620
 6670TIP3    H241502   1.344   4.495   1.991  2.5644 -1.0940 -0.2609
 6671TIP3   OH241503   1.421   6.051  14.277 -0.2344  0.1556 -0.2383
 6671TIP3    H141504   1.395   6.141  14.258  0.1958  0.0728 -1.2573
 6671TIP3    H241505   1.516   6.051  14.270 -0.2789 -0.5330 -0.9189
 6672TIP3   OH241506   5.067   0.298   0.052 -0.3326  0.1399 -0.2071
 6672TIP3    H141507   5.132   0.236   0.084  0.5556  1.0012 -0.3332
 6672TIP3    H241508   5.066   0.284  -0.043 -3.5096 -2.9476  0.1738
 6673TIP3   OH241509   2.056   3.971  16.977 -0.1805  0.4768 -0.3374
 6673TIP3    H141510   2.098   3.966  16.891  0.2881 -0.3299 -0.0619
 6673TIP3    H241511   1.978   4.026  16.962  0.2478  0.8817 -1.1253
 6674TIP3   OH241512   3.975   6.695   0.071 -0.1699  0.6956  0.3180
 6674TIP3    H141513   4.031   6.622   0.096  0.5331  0.9678 -0.4277
 6674TIP3    H241514   3.962   6.745   0.152  0.6492  0.6147  0.4984
 6675TIP3   OH241515   1.902   1.065   1.942  0.0026 -0.0820  0.6661
 6675TIP3    H141516   1.859   1.001   1.886 -0.7311  0.6448  0.3852
 6675TIP3    H241517   1.875   1.150   1.907 -1.8606  0.4091  3.0969
 6676TIP3   OH241518   2.913   3.337  11.679  0.6290 -0.4721  0.0003
 6676TIP3    H141519   2.826   3.308  11.707  0.5339 -0.5112 -0.3343
 6676TIP3    H241520   2.941   3.398  11.748  0.7347 -1.1783  0.5897
 6677TIP3   OH241521   3.624   5.425  13.911 -0.0901 -0.0609  0.5812
 6677TIP3    H141522   3.636   5.492  13.844 -0.8406 -0.4557  0.0529
 6677TIP3    H241523   3.531   5.429  13.932  0.0819 -0.1505  1.3801
 6678TIP3   OH241524   1.222   3.859   3.857 -0.4193  0.4382 -0.3613
 6678TIP3    H141525   1.187   3.770   3.847  1.0588 -0.1229 -0.7116
 6678TIP3    H241526   1.210   3.879   3.950 -1.9576  0.4014 -0.5348
 6679TIP3   OH241527   6.450   4.255  14.957 -0.4157 -0.6235 -0.3088
 6679TIP3    H141528   6.452   4.162  14.933  1.0573 -0.4779 -0.8003
 6679TIP3    H241529   6.542   4.281  14.961 -0.7826  0.5684  0.8175
 6680TIP3   OH241530   6.403   1.414   1.072 -0.0196 -0.0078 -0.6482
 6680TIP3    H141531   6.399   1.441   0.980 -1.6857 -1.1281 -0.9325
 6680TIP3    H241532   6.349   1.335   1.076  0.4554 -0.2591  1.1974
 6681TIP3   OH241533   5.435   6.011   6.419  0.3931 -0.2641  0.3398
 6681TIP3    H141534   5.409   6.086   6.365 -2.7960 -2.0220 -0.7414
 6681TIP3    H241535   5.399   6.031   6.505  2.1817  0.7977  0.8630
 6682TIP3   OH241536   4.937   1.611  14.490 -0.4048 -0.0420  0.0512
 6682TIP3    H141537   4.921   1.605  14.396 -1.7468  0.3776  0.2403
 6682TIP3    H241538   4.947   1.704  14.507 -1.1412 -0.0360  0.4725
 6683TIP3   OH241539   3.715   1.868  15.325 -0.3630 -0.1308 -0.1397
 6683TIP3    H141540   3.626   1.898  15.346 -1.0039 -0.2948 -2.4608
 6683TIP3    H241541   3.740   1.920  15.248  1.8575  0.4301  0.9128
 6684TIP3   OH241542   0.995   0.901   3.068 -0.0717  0.2266 -0.3775
 6684TIP3    H141543   0.994   0.882   2.974 -0.0665  0.9054 -0.5159
 6684TIP3    H241544   1.052   0.833   3.105 -0.3259 -0.2310 -0.8196
 6685TIP3   OH241545   4.989   6.030  16.019 -0.0590 -0.0237  0.6833
 6685TIP3    H141546   4.964   6.091  15.951 -1.3403 -1.1121  0.1554
 6685TIP3    H241547   5.071   6.065  16.055  0.9599  0.2350 -1.8178
 6686TIP3   OH241548   6.056   0.193   4.906  0.0602 -0.2060  0.4818
 6686TIP3    H141549   6.131   0.189   4.965 -0.9088  0.8263  1.8032
 6686TIP3    H241550   5.983   0.159   4.957 -1.2042  2.5505  0.6103
 6687TIP3   OH241551   1.249   2.255   0.039  0.2744  0.2803  0.4014
 6687TIP3    H141552   1.239   2.346   0.065 -0.1489  0.0123  1.1879
 6687TIP3    H241553   1.287   2.259  -0.049  0.4037  1.2074  0.4974
 6688TIP3   OH241554   5.089   3.323  13.397 -0.3723  0.0839 -0.1733
 6688TIP3    H141555   5.018   3.260  13.389  0.2655 -0.4681 -1.7274
 6688TIP3    H241556   5.046   3.408  13.408 -1.2407 -0.4106  0.3200
 6689TIP3   OH241557   1.637   4.469   3.305 -0.0897  0.1723 -0.0354
 6689TIP3    H141558   1.682   4.454   3.222  0.7002  0.7460  0.2782
 6689TIP3    H241559   1.665   4.557   3.332 -1.1296  0.3968  0.3410
 6690TIP3   OH241560   1.014   5.027  16.127 -0.3071 -1.1473  0.6423
 6690TIP3    H141561   1.002   4.971  16.204  0.3707  0.8645  2.2415
 6690TIP3    H241562   1.083   5.088  16.152  1.0392 -1.4412 -2.1458
 6691TIP3   OH241563   3.270   4.984  14.105 -0.1975 -0.0284 -0.4789
 6691TIP3    H141564   3.348   4.932  14.125  0.3997  0.6570 -0.9704
 6691TIP3    H241565   3.263   5.046  14.178  0.2195  0.4652 -0.8476
 6692TIP3   OH241566   3.373   5.212  16.830 -0.0839 -0.6525  0.0162
 6692TIP3    H141567   3.291   5.173  16.800 -0.9255  0.9758  0.1737
 6692TIP3    H241568   3.374   5.300  16.794  0.2997  0.2998  2.2195
 6693TIP3   OH241569   1.323   0.953  16.252  0.1971 -0.0515 -0.3046
 6693TIP3    H141570   1.302   1.023  16.190  1.3951  2.3388  1.8635
 6693TIP3    H241571   1.298   0.989  16.338  1.3913 -2.0565  0.9282
 6694TIP3   OH241572   3.158   6.537  16.941  0.3963  0.6921  0.1921
 6694TIP3    H141573   3.083   6.502  16.989  0.4890 -0.6641 -0.6028
 6694TIP3    H241574   3.121   6.569  16.859  0.7551 -0.6803 -0.5325
 6695TIP3   OH241575   2.908   5.150  15.066 -0.3283 -0.1731 -0.2032
 6695TIP3    H141576   2.870   5.102  15.139 -0.1813 -0.4893 -0.3335
 6695TIP3    H241577   3.002   5.148  15.081 -0.2282 -1.0981 -0.9227
 6696TIP3   OH241578   0.305   6.180   5.794  0.0297 -0.2779 -0.6796
 6696TIP3    H141579   0.288   6.271   5.817  0.8406 -0.2891 -0.0329
 6696TIP3    H241580   0.223   6.135   5.813  0.5280 -0.2135  1.8076
 6697TIP3   OH241581   6.570   2.993  13.569  0.2711  0.3466  0.0632
 6697TIP3    H141582   6.497   2.948  13.612  0.5322  0.3813  0.5421
 6697TIP3    H241583   6.612   3.044  13.638  1.7225 -0.9182  0.1511
 6698TIP3   OH241584   4.555   5.220   1.551 -0.1989  0.1354 -0.4483
 6698TIP3    H141585   4.500   5.143   1.539  1.3435 -0.8399 -1.3987
 6698TIP3    H241586   4.637   5.186   1.587  0.2837  1.3986 -0.3302
 6699TIP3   OH241587   4.025   4.094   1.613  0.2110 -0.3344  1.1295
 6699TIP3    H141588   4.051   4.159   1.548 -2.8384  0.7066  0.8716
 6699TIP3    H241589   4.034   4.010   1.567 -2.0645  0.4059 -0.7311
 6700TIP3   OH241590   3.094   2.574  15.021  0.3699 -0.4352  0.3395
 6700TIP3    H141591   3.087   2.603  15.112  0.7381  4.0879 -0.9440
 6700TIP3    H241592   3.012   2.604  14.980  0.1695 -2.4967 -0.8336
 6701TIP3   OH241593   4.070   6.418   0.155 -0.2654 -0.4097 -0.2634
 6701TIP3    H141594   4.145   6.440   0.100 -1.0295 -0.4620 -1.3549
 6701TIP3    H241595   4.087   6.329   0.185  0.8216  0.1305  0.7194
 6702TIP3   OH241596   6.070   3.662  12.386 -0.1912  0.6919 -0.1820
 6702TIP3    H141597   6.147   3.611  12.361  0.5528  2.0848 -0.8055
 6702TIP3    H241598   5.998   3.624  12.334  0.1310 -0.4094  0.1738
 6703TIP3   OH241599   3.837   5.370   1.732  0.2682 -0.8532 -0.9763
 6703TIP3    H141600   3.851   5.418   1.813 -1.5843  0.0957 -1.1876
 6703TIP3    H241601   3.750   5.331   1.742 -0.1109 -0.4832 -2.5925
 6704TIP3   OH241602   5.276   0.928  10.819 -0.6534  0.3579 -0.7998
 6704TIP3    H141603   5.358   0.929  10.869 -2.6236 -0.2618  2.5632
 6704TIP3    H241604   5.257   1.020  10.804  0.0075  0.5542 -0.4717
 6705TIP3   OH241605   3.668   3.211  17.075  0.5174  0.4470  0.1743
 6705TIP3    H141606   3.738   3.249  17.127  0.6153  0.0721  0.3227
 6705TIP3    H241607   3.656   3.271  17.001  0.0992  1.1859  0.8494
 6706TIP3   OH241608   4.100   2.885   3.587  0.8092 -0.3653  0.0777
 6706TIP3    H141609   4.126   2.831   3.512 -1.5890 -0.9461 -0.3824
 6706TIP3    H241610   4.106   2.975   3.556  1.2395 -0.5395 -0.3473
 6707TIP3   OH241611   3.474   1.450   3.365 -0.1341  0.1007  0.0493
 6707TIP3    H141612   3.406   1.451   3.433 -0.0022  1.4921  0.1604
 6707TIP3    H241613   3.430   1.481   3.286  0.3114  0.7616  0.0600
 6708TIP3   OH241614   0.483   1.580   3.940 -0.2413  0.2218  0.1485
 6708TIP3    H141615   0.389   1.575   3.959  0.1432  0.0436  2.1894
 6708TIP3    H241616   0.495   1.525   3.863 -1.7397 -0.2446  0.2279
 6709TIP3   OH241617   5.515   3.359  15.066  0.5756 -0.1780  0.1753
 6709TIP3    H141618   5.560   3.387  14.986 -1.2788  1.4746 -0.3303
 6709TIP3    H241619   5.569   3.392  15.137  1.9032 -1.1118 -0.3794
 6710TIP3   OH241620   4.861   0.907   2.410 -0.4219  0.6036  0.2970
 6710TIP3    H141621   4.828   0.917   2.321  0.3907  1.0190  0.0374
 6710TIP3    H241622   4.848   0.994   2.450 -2.8181 -0.1746  1.2898
 6711TIP3   OH241623   2.789   0.127   2.550  0.0562 -0.2578 -0.4867
 6711TIP3    H141624   2.858   0.126   2.617 -0.0204  1.9482 -0.3368
 6711TIP3    H241625   2.821   0.188   2.484  0.0782 -2.3353 -2.4360
 6712TIP3   OH241626   1.794   4.303   1.462  0.3628 -0.2163 -0.1007
 6712TIP3    H141627   1.806   4.377   1.403  1.0663  1.5422  2.1439
 6712TIP3    H241628   1.699   4.296   1.473  0.2945  0.4721 -0.2161
 6713TIP3   OH241629   0.948   0.375   2.206  0.4312 -0.3492 -0.1130
 6713TIP3    H141630   0.893   0.444   2.242  0.8445  0.3008 -0.7026
 6713TIP3    H241631   0.904   0.293   2.229 -0.7625  0.1604 -0.5822
 6714TIP3   OH241632   1.507   4.367  16.717 -0.0687  0.1717  0.0196
 6714TIP3    H141633   1.494   4.417  16.798  1.3940 -1.0209  1.0288
 6714TIP3    H241634   1.599   4.381  16.695 -0.0186 -0.8961 -0.4800
 6715TIP3   OH241635   4.033   4.762   2.881  0.2201 -0.8005  0.0670
 6715TIP3    H141636   4.018   4.794   2.792  0.6090  0.0398  0.3067
 6715TIP3    H241637   3.967   4.693   2.893 -1.4828  0.8012  0.0234
 6716TIP3   OH241638   2.939   0.293   3.247 -0.3210  0.0310 -0.2056
 6716TIP3    H141639   2.921   0.226   3.314 -0.1853 -0.2540 -0.4511
 6716TIP3    H241640   3.024   0.329   3.271 -0.1427 -0.2667 -0.3784
 6717TIP3   OH241641   4.863   0.261   2.132  0.3767  0.1691  0.6927
 6717TIP3    H141642   4.862   0.199   2.205 -1.0327  0.0449  0.5792
 6717TIP3    H241643   4.956   0.278   2.117  0.7812 -1.5740  1.0248
 6718TIP3   OH241644   1.831   3.010   3.977  0.1303  0.1947  0.2938
 6718TIP3    H141645   1.897   3.063   4.021  0.3776  1.2919 -1.3484
 6718TIP3    H241646   1.878   2.934   3.945  0.3553  0.3709  0.2061
 6719TIP3   OH241647   3.242   6.161   4.375  0.6212  0.5153 -0.3488
 6719TIP3    H141648   3.262   6.169   4.282 -0.9751 -0.1336 -0.7684
 6719TIP3    H241649   3.302   6.094   4.407  1.4580  1.0343 -0.8115
 6720TIP3   OH241650   3.264   1.123   0.964 -0.3139 -0.2705  0.3621
 6720TIP3    H141651   3.285   1.140   1.056 -1.2558  1.4446  0.2747
 6720TIP3    H241652   3.200   1.052   0.967 -1.2736  0.6123  1.1221
 6721TIP3   OH241653   0.573   4.886   1.507  0.2441  0.5972  1.0785
 6721TIP3    H141654   0.666   4.880   1.526  0.3364 -0.0080  0.4475
 6721TIP3    H241655   0.533   4.815   1.557  0.5974 -1.5851 -1.6296
 6722TIP3   OH241656   1.047   1.231  16.094  0.1281 -0.1074  0.1117
 6722TIP3    H141657   1.027   1.138  16.084 -0.0677  0.1200 -1.8165
 6722TIP3    H241658   1.045   1.246  16.189 -0.2987 -1.9580  0.4133
 6723TIP3   OH241659   6.324   3.036  11.265  0.1984  0.2104  0.1295
 6723TIP3    H141660   6.275   3.071  11.340 -0.4895  0.5330 -0.4569
 6723TIP3    H241661   6.297   2.945  11.261  1.1215 -0.1035  0.9730
 6724TIP3   OH241662   0.236   0.837  12.936  0.4192 -0.1961 -0.3752
 6724TIP3    H141663   0.298   0.851  13.007  0.9583 -0.9551 -0.6823
 6724TIP3    H241664   0.287   0.856  12.856 -0.1012  0.3894 -0.5719
 6725TIP3   OH241665   0.720   6.466   4.021 -0.4123  0.8717  0.4702
 6725TIP3    H141666   0.680   6.553   4.023  0.8240  1.4493  0.7538
 6725TIP3    H241667   0.763   6.462   3.935 -0.7431  0.4177  0.3280
 6726TIP3   OH241668   3.232   6.265   5.545  0.0523 -0.3453 -0.1024
 6726TIP3    H141669   3.142   6.295   5.529 -0.2854 -0.5691  1.2604
 6726TIP3    H241670   3.262   6.318   5.619  1.3953  0.3935 -1.1540
 6727TIP3   OH241671   1.777   3.992   1.961  0.4166 -0.6524  0.3413
 6727TIP3    H141672   1.790   3.939   2.040 -1.8842  1.3477  2.1297
 6727TIP3    H241673   1.840   4.063   1.969 -0.5125  0.1184  0.9189
 6728TIP3   OH241674   0.261   6.423  17.067  0.1660  0.0658  0.1041
 6728TIP3    H141675   0.355   6.439  17.071  0.3326 -0.9381  0.2485
 6728TIP3    H241676   0.238   6.390  17.154 -0.8759  3.1354  1.0946
 6729TIP3   OH241677   0.668   1.315   4.456 -0.2749  0.2692 -0.0199
 6729TIP3    H141678   0.604   1.250   4.485 -1.1959  0.1073 -2.3186
 6729TIP3    H241679   0.720   1.269   4.391  1.2886  0.8356  0.7988
 6730TIP3   OH241680   4.247   2.231   4.103  0.0236  0.1596 -0.3453
 6730TIP3    H141681   4.241   2.174   4.027 -0.5612 -0.1362 -0.0767
 6730TIP3    H241682   4.289   2.177   4.170  0.8132  0.5134 -0.5433
 6731TIP3   OH241683   0.503   3.069   2.076 -0.4636 -0.3735  0.9542
 6731TIP3    H141684   0.436   3.001   2.080 -0.3148 -0.5109  1.1142
 6731TIP3    H241685   0.492   3.118   2.157 -1.2172  0.4110  0.4014
 6732TIP3   OH241686   3.445   5.893  16.944 -0.2063 -0.6788 -0.1731
 6732TIP3    H141687   3.458   5.986  16.962 -0.4301 -0.2014 -2.3499
 6732TIP3    H241688   3.411   5.890  16.855  0.7758 -2.9181 -0.5133
 6733TIP3   OH241689   5.515   6.277  15.976  0.0304 -0.3605 -0.3365
 6733TIP3    H141690   5.507   6.370  15.954 -0.0364 -0.3886 -0.4341
 6733TIP3    H241691   5.530   6.276  16.070 -0.8673 -0.2865 -0.1819
 6734TIP3   OH241692   0.761   0.583   2.291 -0.1801  0.4692  0.0662
 6734TIP3    H141693   0.738   0.539   2.209  0.3078 -0.7165  0.5425
 6734TIP3    H241694   0.714   0.533   2.359 -0.2181  1.1571  0.5520
 6735TIP3   OH241695   3.932   0.424  14.427 -0.2195  0.1202 -0.0993
 6735TIP3    H141696   3.953   0.477  14.504 -0.6520  1.8480 -1.1260
 6735TIP3    H241697   3.981   0.466  14.356  1.5975 -2.5279 -0.4545
 6736TIP3   OH241698   3.176   6.253   2.848 -0.0550 -0.2832  0.1848
 6736TIP3    H141699   3.116   6.229   2.918  0.6974  0.4647  1.0913
 6736TIP3    H241700   3.258   6.275   2.893  0.1749  1.0311 -0.8624
 6737TIP3   OH241701   4.165   5.783  12.980 -0.6354  0.4089 -0.1717
 6737TIP3    H141702   4.209   5.793  13.064 -0.6820  1.0707 -0.2233
 6737TIP3    H241703   4.160   5.688  12.966  2.3407  0.3097 -0.9573
 6738TIP3   OH241704   5.974   0.633   0.531  0.4177 -0.2809  0.5310
 6738TIP3    H141705   5.939   0.696   0.468 -1.8916  0.3514  2.3742
 6738TIP3    H241706   6.009   0.687   0.602  0.7055 -1.0330  0.9647
 6739TIP3   OH241707   4.319   2.928   2.439  0.8053 -0.2942  0.0242
 6739TIP3    H141708   4.379   2.997   2.413  0.3712 -0.4261 -1.3429
 6739TIP3    H241709   4.299   2.880   2.358 -1.7119  0.2166  0.2888
 6740TIP3   OH241710   2.325   2.709  17.184 -0.3632  0.3394 -0.3797
 6740TIP3    H141711   2.338   2.749  17.270  0.6476 -1.4622  0.3353
 6740TIP3    H241712   2.237   2.670  17.189  0.0832 -0.6171  0.2100
 6741TIP3   OH241713   2.557   5.900   1.467  0.0955  0.0703 -0.3426
 6741TIP3    H141714   2.622   5.970   1.469  2.9056 -2.4210 -1.5048
 6741TIP3    H241715   2.559   5.868   1.377 -0.7853 -1.8232  0.2875
 6742TIP3   OH241716   1.583   6.026   3.994  0.2516 -0.2361  0.3477
 6742TIP3    H141717   1.590   6.121   3.993  0.3676 -0.2378  0.6881
 6742TIP3    H241718   1.605   6.001   4.084  3.7763 -0.8397 -0.6082
 6743TIP3   OH241719   4.664   3.401  10.886  0.4564  0.1268  0.4817
 6743TIP3    H141720   4.667   3.305  10.885 -2.0531  0.0178 -0.2608
 6743TIP3    H241721   4.641   3.423  10.976  0.7845  0.0281  0.5901
 6744TIP3   OH241722   0.309   0.336  14.091 -0.7293 -0.7634 -0.0411
 6744TIP3    H141723   0.386   0.391  14.105 -1.5472  0.5056 -0.4645
 6744TIP3    H241724   0.334   0.250  14.126  1.3076 -0.7035 -1.2874
 6745TIP3   OH241725   0.887   1.292  14.723 -0.3472 -0.3353 -0.0065
 6745TIP3    H141726   0.888   1.387  14.731  0.7842 -0.3540  0.1173
 6745TIP3    H241727   0.811   1.273  14.667 -1.9333  0.4823  1.7945
 6746TIP3   OH241728   2.293   1.012   5.343  0.0630  0.4298  0.5138
 6746TIP3    H141729   2.315   1.073   5.413  1.2633 -0.7435  1.1902
 6746TIP3    H241730   2.324   1.054   5.263  2.1089  0.1222  1.1245
 6747TIP3   OH241731   4.280   0.761  10.922  0.3803 -0.2959  0.3087
 6747TIP3    H141732   4.223   0.685  10.907 -0.6641  0.6190 -0.4662
 6747TIP3    H241733   4.280   0.771  11.017 -0.4285 -0.5620  0.3488
 6748TIP3   OH241734   4.294   0.986   1.843  0.0097  0.4519  0.2588
 6748TIP3    H141735   4.239   1.024   1.911 -0.9715 -0.8034  0.1669
 6748TIP3    H241736   4.250   1.007   1.761  0.6575  1.0635  0.0521
 6749TIP3   OH241737   3.024   4.285   1.509  0.1221  0.2037  0.4147
 6749TIP3    H141738   3.105   4.234   1.507  0.4716  0.7582  0.3458
 6749TIP3    H241739   3.023   4.331   1.425 -0.6983 -0.4695  0.0527
 6750TIP3   OH241740   3.844   1.728  12.356 -0.0095 -0.1215 -0.3606
 6750TIP3    H141741   3.828   1.645  12.402  2.7484 -0.8155 -0.6116
 6750TIP3    H241742   3.756   1.761  12.338 -1.1691 -1.8435  1.7811
 6751TIP3   OH241743   3.825   4.352   1.669 -0.5389  0.5025  0.1043
 6751TIP3    H141744   3.833   4.272   1.721  0.3154 -0.0194 -0.8202
 6751TIP3    H241745   3.908   4.359   1.623 -1.3159  0.8981 -1.2735
 6752TIP3   OH241746   6.472   1.124   3.409  0.1166 -0.7781  0.4304
 6752TIP3    H141747   6.436   1.146   3.495  1.8605 -0.6875  1.1521
 6752TIP3    H241748   6.514   1.039   3.420 -0.4272 -1.1856 -0.5631
 6753TIP3   OH241749   6.335   2.959  12.133  0.4079  0.3675 -0.1675
 6753TIP3    H141750   6.400   3.001  12.077  1.1255 -2.7204 -1.7544
 6753TIP3    H241751   6.378   2.953  12.219  0.9189  1.3424 -0.3531
 6754TIP3   OH241752   1.638   2.908  13.823 -0.1698 -0.1240  0.3431
 6754TIP3    H141753   1.644   2.999  13.849  4.4487 -0.1045 -0.2993
 6754TIP3    H241754   1.678   2.859  13.895 -1.1241 -1.4799 -0.0168
 6755TIP3   OH241755   6.139   5.209   5.186  0.6009  0.2146  0.1151
 6755TIP3    H141756   6.089   5.280   5.226 -0.1092 -0.0621 -0.2706
 6755TIP3    H241757   6.145   5.143   5.255 -0.3625 -0.1361 -0.1308
 6756TIP3   OH241758   6.206   6.738  17.129 -0.2085 -0.1397  0.2205
 6756TIP3    H141759   6.260   6.677  17.181  1.3442  0.8080 -0.2362
 6756TIP3    H241760   6.120   6.734  17.171  0.2658 -1.4961  1.1465
 6757TIP3   OH241761   1.467   6.178  14.620  0.1602  0.1795 -0.1514
 6757TIP3    H141762   1.449   6.272  14.618 -2.0678 -0.1902  1.3647
 6757TIP3    H241763   1.382   6.137  14.606  0.8423 -1.6029  0.8556
 6758TIP3   OH241764   1.571   5.011  15.670 -0.1082 -0.2433  0.0772
 6758TIP3    H141765   1.584   5.010  15.764 -1.7491 -0.1736  0.3173
 6758TIP3    H241766   1.655   4.982  15.634  0.2917 -0.9950  1.5761
 6759TIP3   OH241767   1.772   0.312   4.318  0.3366  0.0005 -0.1583
 6759TIP3    H141768   1.703   0.320   4.385 -0.8873 -0.3235 -1.3489
 6759TIP3    H241769   1.732   0.349   4.239  1.7478  0.3108 -0.7326
 6760TIP3   OH241770   4.008   0.667  13.402  0.1703  0.1257  0.0369
 6760TIP3    H141771   4.013   0.620  13.319 -1.1741 -0.5375  0.3019
 6760TIP3    H241772   3.937   0.730  13.390  0.7703  0.8621  0.2842
 6761TIP3   OH241773   4.472   3.740  13.184 -0.0536 -0.2303  0.4610
 6761TIP3    H141774   4.526   3.764  13.109  1.2758 -1.0935  1.1214
 6761TIP3    H241775   4.499   3.651  13.206 -1.8229 -0.7053  0.7548
 6762TIP3   OH241776   0.317   1.330   7.157  0.1708 -0.3589 -0.1072
 6762TIP3    H141777   0.291   1.306   7.246  1.6793 -0.3856  0.3403
 6762TIP3    H241778   0.309   1.426   7.155  0.9600 -0.2833  0.3266
 6763TIP3   OH241779   5.899   3.738   3.387  0.3104  0.3239 -0.0215
 6763TIP3    H141780   5.949   3.664   3.421 -0.5437 -0.2323  0.0461
 6763TIP3    H241781   5.943   3.762   3.305  1.5451  0.7832  0.7563
 6764TIP3   OH241782   3.406   4.390  14.200  0.3961 -0.0967  0.0926
 6764TIP3    H141783   3.352   4.414  14.125 -0.0087 -0.5778  0.2262
 6764TIP3    H241784   3.402   4.294  14.202 -2.3570  0.0123  2.7377
 6765TIP3   OH241785   4.914   0.622   0.375 -0.3061 -0.3069  0.0188
 6765TIP3    H141786   4.880   0.709   0.399  1.4480  0.4735 -0.2654
 6765TIP3    H241787   4.859   0.594   0.302 -2.4568 -0.5177  1.6447
 6766TIP3   OH241788   2.202   5.248  13.985  0.0114 -0.5832 -0.7532
 6766TIP3    H141789   2.116   5.279  13.954  0.1632 -0.9554 -1.5649
 6766TIP3    H241790   2.264   5.315  13.956 -0.0527 -0.1048  0.2004
 6767TIP3   OH241791   1.803   0.543  16.974 -0.3463 -0.4267  0.0537
 6767TIP3    H141792   1.763   0.626  16.999  1.7805  1.4977 -2.5500
 6767TIP3    H241793   1.897   0.560  16.976  0.1307 -2.7196 -0.7560
 6768TIP3   OH241794   5.275   1.522  13.266 -0.2683 -0.3430  0.3789
 6768TIP3    H141795   5.184   1.551  13.266 -0.5670 -1.2216 -0.7336
 6768TIP3    H241796   5.297   1.512  13.359 -1.1157  0.4432  0.6738
 6769TIP3   OH241797   5.030   4.470  14.165  0.1057  0.2561 -0.1223
 6769TIP3    H141798   5.024   4.456  14.260  1.4142  0.0700 -0.0573
 6769TIP3    H241799   5.123   4.463  14.146 -0.2713 -1.0496 -1.6256
 6770TIP3   OH241800   2.452   2.996   4.090  0.3689 -0.1378  0.2516
 6770TIP3    H141801   2.388   2.927   4.072 -0.8769  1.3680 -1.2100
 6770TIP3    H241802   2.505   3.001   4.011  0.0312  1.0238  0.0897
 6771TIP3   OH241803   0.005   6.154   5.514 -0.6031  0.1216 -0.9490
 6771TIP3    H141804   0.033   6.226   5.571 -0.7817 -0.2984 -0.3329
 6771TIP3    H241805   0.002   6.193   5.426  2.2505  0.0929 -1.1088
 6772TIP3   OH241806   3.886   5.210  14.539  0.0729 -0.2209 -0.2959
 6772TIP3    H141807   3.791   5.203  14.538  0.0429  0.1167 -2.1875
 6772TIP3    H241808   3.918   5.120  14.531 -0.0555 -0.4918  2.0017
 6773TIP3   OH241809   4.751   6.634  12.377  0.4368 -0.4606 -0.7642
 6773TIP3    H141810   4.695   6.590  12.313 -0.0781 -0.9194 -0.0089
 6773TIP3    H241811   4.706   6.622  12.461  1.4722 -0.4979 -0.2022
 6774TIP3   OH241812   2.715   4.633  15.655  0.3417  0.0520 -0.3228
 6774TIP3    H141813   2.642   4.606  15.600 -0.2948  1.3301 -0.1302
 6774TIP3    H241814   2.691   4.720  15.687  0.2980 -0.9755  2.6489
 6775TIP3   OH241815   1.860   3.110  15.534 -0.2449  0.4267  0.0508
 6775TIP3    H141816   1.798   3.144  15.599  1.7210  0.0128  2.2213
 6775TIP3    H241817   1.881   3.022  15.565  1.2961  0.5103 -0.7046
 6776TIP3   OH241818   4.961   3.811  15.837  0.3250  0.0184 -0.0390
 6776TIP3    H141819   4.933   3.720  15.847  1.8403 -0.3267  1.3383
 6776TIP3    H241820   4.976   3.822  15.743  1.4460 -1.5707 -0.0680
 6777TIP3   OH241821   3.823   5.268  16.886  0.7428  0.0185  0.6953
 6777TIP3    H141822   3.759   5.298  16.951  0.4443 -2.1999  1.4962
 6777TIP3    H241823   3.903   5.254  16.937  0.8735 -0.4937  0.3494
 6778TIP3   OH241824   0.570   6.539   0.168 -0.3015 -0.0028 -0.3728
 6778TIP3    H141825   0.591   6.452   0.134 -0.8488 -1.2204  2.2790
 6778TIP3    H241826   0.490   6.564   0.121  1.1765  0.1469 -2.8815
 6779TIP3   OH241827   4.016   3.116   4.710  0.4822  0.2464 -0.0573
 6779TIP3    H141828   3.961   3.071   4.646 -0.6491  1.1802  0.2470
 6779TIP3    H241829   4.036   3.200   4.669  2.9435 -0.6517 -0.8107
 6780TIP3   OH241830   0.937   6.800  16.390 -0.1333  0.4099 -0.3806
 6780TIP3    H141831   0.924   6.868  16.455 -0.9123  0.9752 -1.1179
 6780TIP3    H241832   0.887   6.830  16.314 -1.3007 -1.4801 -0.3732
 6781TIP3   OH241833   6.248   1.705   5.865  0.1240 -0.3022  0.0554
 6781TIP3    H141834   6.313   1.664   5.923  0.2627  1.9686  1.5655
 6781TIP3    H241835   6.284   1.791   5.845 -2.6961  1.3294  1.5424
 6782TIP3   OH241836   5.203   2.899   4.240 -0.0088 -0.1100 -0.1517
 6782TIP3    H141837   5.259   2.974   4.221 -2.6667  1.2120 -3.0503
 6782TIP3    H241838   5.136   2.933   4.299 -0.8260 -0.3641 -0.9290
 6783TIP3   OH241839   0.721   2.332   0.249  0.0293 -0.3792  0.6999
 6783TIP3    H141840   0.695   2.354   0.338 -1.1854 -0.6156  0.4179
 6783TIP3    H241841   0.696   2.240   0.238 -0.9226 -0.0284 -0.2491
 6784TIP3   OH241842   5.339   1.754  13.601 -0.1122  0.1930 -0.3110
 6784TIP3    H141843   5.313   1.712  13.682  1.7732  3.6436  2.1952
 6784TIP3    H241844   5.260   1.800  13.571 -0.4901 -0.1480  0.1676
 6785TIP3   OH241845   6.693   5.591   3.322  0.1933  0.2581  0.1753
 6785TIP3    H141846   6.690   5.656   3.252  0.9714  0.5213  0.3878
 6785TIP3    H241847   6.743   5.633   3.392  2.0606 -1.1506 -0.2886
 6786TIP3   OH241848   2.412   3.721   2.728 -0.0464 -0.1413  0.0566
 6786TIP3    H141849   2.455   3.662   2.790  0.3829  0.4161  0.3034
 6786TIP3    H241850   2.380   3.793   2.783 -0.8847 -0.3191 -0.1869
 6787TIP3   OH241851   3.111   2.706  11.795  0.2326  0.2974  0.2681
 6787TIP3    H141852   3.019   2.726  11.777  0.1478 -1.6149 -1.5708
 6787TIP3    H241853   3.160   2.760  11.733  0.3194  0.5899  0.5894
 6788TIP3   OH241854   2.951   5.217  11.338 -0.0093 -0.2817  0.4115
 6788TIP3    H141855   3.017   5.251  11.277 -0.6325 -0.6272 -0.4772
 6788TIP3    H241856   2.932   5.291  11.396  0.3746  0.1519 -0.0113
 6789TIP3   OH241857   3.146   0.680  14.028 -0.3901  0.5308  0.5280
 6789TIP3    H141858   3.186   0.690  14.114 -1.3163  1.0029  0.9089
 6789TIP3    H241859   3.153   0.767  13.988  0.9895  0.0609 -0.3035
 6790TIP3   OH241860   2.761   5.760  11.538  0.0061  0.2556  0.0113
 6790TIP3    H141861   2.779   5.749  11.445 -2.1099 -0.1741 -0.3612
 6790TIP3    H241862   2.683   5.815  11.542  0.2081  0.4676  1.5324
 6791TIP3   OH241863   4.329   3.860   4.038  0.1463 -0.3899 -0.0224
 6791TIP3    H141864   4.375   3.944   4.033  0.0323 -0.4031 -1.9317
 6791TIP3    H241865   4.238   3.883   4.053  0.1729 -0.1857 -0.1641
 6792TIP3   OH241866   3.005   3.921   2.676 -0.4021 -0.1113 -0.3021
 6792TIP3    H141867   3.003   3.880   2.762 -0.6188  0.6228  0.0456
 6792TIP3    H241868   2.950   3.865   2.621  1.8112 -2.0473 -0.6370
 6793TIP3   OH241869   4.016   4.712   5.344  0.3593 -0.0867 -0.7280
 6793TIP3    H141870   4.008   4.681   5.254  0.8006  1.7735 -1.4329
 6793TIP3    H241871   3.929   4.700   5.382  0.1516 -0.8087 -1.4119
 6794TIP3   OH241872   6.593   2.393   4.498  0.4476  0.4767  0.5334
 6794TIP3    H141873   6.684   2.384   4.469  1.2471  1.7858  2.5207
 6794TIP3    H241874   6.599   2.418   4.590 -1.9653 -0.7863  1.0909
 6795TIP3   OH241875   3.744   3.250  15.091 -0.2308  0.6461 -0.2450
 6795TIP3    H141876   3.669   3.194  15.073 -0.2989  0.9702 -1.0225
 6795TIP3    H241877   3.767   3.232  15.182 -0.4267 -0.4256 -0.4069
 6796TIP3   OH241878   2.067   1.312   2.191 -0.1831  0.7191  0.0117
 6796TIP3    H141879   2.109   1.302   2.276  0.1018 -0.0039 -0.2134
 6796TIP3    H241880   1.974   1.297   2.208  0.0179 -0.6494 -0.0078
 6797TIP3   OH241881   1.599   2.244  13.572  0.2390  0.2245  0.1396
 6797TIP3    H141882   1.615   2.178  13.639 -0.0492  0.2039  0.1879
 6797TIP3    H241883   1.511   2.226  13.540 -0.2096  1.1706  0.8139
 6798TIP3   OH241884   2.416   1.873  13.515  0.0978 -0.5125  0.2243
 6798TIP3    H141885   2.413   1.795  13.460 -0.9592 -0.0329 -0.3997
 6798TIP3    H241886   2.368   1.939  13.466  0.9612  0.5260  0.7716
 6799TIP3   OH241887   4.780   2.765   5.617  0.1664  0.2577 -0.0089
 6799TIP3    H141888   4.714   2.802   5.675 -0.3395  0.5100 -0.7454
 6799TIP3    H241889   4.731   2.713   5.554  0.6663  0.3903 -0.5160
 6800TIP3   OH241890   0.401   2.431   3.760 -0.0863 -0.5887  0.0866
 6800TIP3    H141891   0.359   2.472   3.684 -2.0899  0.8294  1.8989
 6800TIP3    H241892   0.494   2.445   3.747 -0.4471  0.2748 -1.7359
 6801TIP3   OH241893   4.103   3.554   1.633  0.4215 -0.1562  0.0977
 6801TIP3    H141894   4.184   3.511   1.605  0.2858  0.3524 -1.1071
 6801TIP3    H241895   4.034   3.491   1.613  0.5157 -0.5612  1.0587
 6802TIP3   OH241896   6.132   3.428  14.009 -0.1402 -0.1052  0.1560
 6802TIP3    H141897   6.225   3.441  14.027 -0.6030 -1.9968  4.7823
 6802TIP3    H241898   6.125   3.335  13.987 -1.0489 -0.2396  0.9765
 6803TIP3   OH241899   6.318   3.981   5.476 -0.0478  0.0190 -0.2716
 6803TIP3    H141900   6.340   4.069   5.444  0.3463  0.9292  2.4373
 6803TIP3    H241901   6.230   3.965   5.442  0.6731  0.6012 -2.4882
 6804TIP3   OH241902   0.897   5.189  15.554 -0.2784  0.1237 -0.0741
 6804TIP3    H141903   0.901   5.159  15.463 -0.1966 -0.4027  0.0972
 6804TIP3    H241904   0.985   5.174  15.588  0.2778  2.3285 -0.5173
 6805TIP3   OH241905   1.891   2.690   4.435 -0.0132 -0.1117 -0.2385
 6805TIP3    H141906   1.936   2.685   4.519  1.1863  0.4273 -0.8440
 6805TIP3    H241907   1.910   2.777   4.402 -2.0755  0.3970 -0.2010
 6806TIP3   OH241908   6.295   4.873  12.557 -0.4452  0.1495  0.0646
 6806TIP3    H141909   6.248   4.798  12.520 -1.0391  0.9734 -0.8958
 6806TIP3    H241910   6.371   4.885  12.500 -0.5165  0.4537  0.0294
 6807TIP3   OH241911   4.031   2.632   0.469 -0.0943 -0.0136  0.4570
 6807TIP3    H141912   4.003   2.540   0.461  0.0944  0.0110 -0.5523
 6807TIP3    H241913   4.016   2.653   0.561  2.7330 -1.9917  1.4410
 6808TIP3   OH241914   0.264   3.213  11.225  0.4114 -0.6694 -0.3390
 6808TIP3    H141915   0.284   3.179  11.313  0.6544 -1.8609 -0.8497
 6808TIP3    H241916   0.171   3.193  11.212  0.2085  0.0941 -0.1008
 6809TIP3   OH241917   5.109   3.450  15.433 -1.2184  0.0695  0.0386
 6809TIP3    H141918   5.091   3.361  15.463 -2.3858  0.6405  1.0273
 6809TIP3    H241919   5.118   3.441  15.338  0.3230 -1.3675  0.2779
 6810TIP3   OH241920   2.554   3.702  12.080  0.4611 -0.4288  0.1154
 6810TIP3    H141921   2.484   3.767  12.081  1.0617  0.2063  1.0646
 6810TIP3    H241922   2.591   3.708  11.991  0.1292  0.0990  0.0122
 6811TIP3   OH241923   2.767   0.842   1.193 -0.5825 -0.2333 -0.3035
 6811TIP3    H141924   2.801   0.903   1.259 -1.1862  0.9261 -1.0534
 6811TIP3    H241925   2.772   0.891   1.110  2.3032 -2.4207 -1.5454
 6812TIP3   OH241926   6.163   1.909   0.426 -0.1365  0.2262 -0.8659
 6812TIP3    H141927   6.100   1.981   0.426  0.7933  1.1031  0.9100
 6812TIP3    H241928   6.112   1.832   0.450 -0.9411  0.5017 -1.6759
 6813TIP3   OH241929   0.227   4.581   3.448 -0.4694 -0.7266 -0.4088
 6813TIP3    H141930   0.209   4.570   3.355  1.7670  0.7324 -1.0733
 6813TIP3    H241931   0.313   4.540   3.460 -0.2483  0.0543  0.7674
 6814TIP3   OH241932   0.018   2.412   5.690  0.4688  0.2496  0.1259
 6814TIP3    H141933  -0.041   2.468   5.741  0.3111 -1.0681  1.4328
 6814TIP3    H241934  -0.033   2.333   5.673  1.3201 -0.2514 -0.1253
 6815TIP3   OH241935   2.622   1.298  11.829  0.8986  0.4417 -0.5528
 6815TIP3    H141936   2.598   1.211  11.800 -1.3233  0.6900  0.3910
 6815TIP3    H241937   2.545   1.330  11.876  2.7190  1.7596  1.7043
 6816TIP3   OH241938   6.761   6.571  15.839  0.1431  0.1747  0.3122
 6816TIP3    H141939   6.785   6.564  15.747  2.2544  1.3794  0.7499
 6816TIP3    H241940   6.805   6.496  15.880 -1.6448 -0.9609  0.1912
 6817TIP3   OH241941   5.987   0.497  15.455  0.1334 -0.0614 -0.2275
 6817TIP3    H141942   6.013   0.577  15.410  0.9884 -0.8551 -1.1680
 6817TIP3    H241943   5.892   0.494  15.447  0.1311  0.6874 -0.4754
 6818TIP3   OH241944   0.670   4.826  16.792 -0.5015 -0.0438 -0.1270
 6818TIP3    H141945   0.636   4.740  16.770  1.0891 -0.3049 -1.7215
 6818TIP3    H241946   0.626   4.885  16.731  0.2618 -0.0928 -0.7384
 6819TIP3   OH241947   0.381   3.245   3.309  0.1011  0.0737  0.5215
 6819TIP3    H141948   0.465   3.223   3.347  0.9258  0.7653 -0.8538
 6819TIP3    H241949   0.362   3.174   3.248  0.0688  0.2965  0.2672
 6820TIP3   OH241950   0.310   2.446   2.420 -0.2037 -0.0580  0.0081
 6820TIP3    H141951   0.275   2.445   2.509  0.0950 -0.8028  0.1228
 6820TIP3    H241952   0.363   2.525   2.415  1.0726 -0.8317  1.0104
 6821TIP3   OH241953   4.369   6.223  12.464  0.5098 -0.0629 -0.5084
 6821TIP3    H141954   4.289   6.203  12.416  0.6456 -0.3860 -0.6068
 6821TIP3    H241955   4.425   6.267  12.399  0.6813 -0.4724 -0.6415
 6822TIP3   OH241956   2.858   2.652  13.488 -0.1725 -0.4947 -0.7425
 6822TIP3    H141957   2.899   2.585  13.543  0.4656  1.3839  1.0969
 6822TIP3    H241958   2.774   2.669  13.529  0.6330  1.4793  0.1791
 6823TIP3   OH241959   3.313   4.546   3.271 -0.4342 -0.5013 -0.4323
 6823TIP3    H141960   3.335   4.555   3.364 -2.3907 -0.5763  0.0502
 6823TIP3    H241961   3.365   4.472   3.241 -0.6181 -1.1561  0.8691
 6824TIP3   OH241962   3.787   2.803  14.740 -0.4378 -0.1966  0.1038
 6824TIP3    H141963   3.856   2.870  14.739 -0.6114  0.0026  1.0416
 6824TIP3    H241964   3.738   2.820  14.820 -0.9393 -0.9947 -0.0253
 6825TIP3   OH241965   2.147   2.440   3.009  0.6360  0.7708  0.2395
 6825TIP3    H141966   2.145   2.347   2.989 -0.4397  0.6293  0.9561
 6825TIP3    H241967   2.230   2.452   3.055  1.6047  0.5115 -1.3987
 6826TIP3   OH241968   0.040   3.873   0.978 -0.5396  0.0112  0.7619
 6826TIP3    H141969  -0.047   3.861   1.016 -1.1071 -1.2014 -0.8799
 6826TIP3    H241970   0.043   3.814   0.903  1.0548  1.3407 -0.2832
 6827TIP3   OH241971   0.131   2.994   5.378 -1.1284 -0.3893  0.2252
 6827TIP3    H141972   0.172   2.946   5.450 -1.6085 -1.9451 -0.5018
 6827TIP3    H241973   0.040   2.964   5.378 -1.1525 -0.3602 -0.9736
 6828TIP3   OH241974   4.277   5.428   1.854 -0.3986 -0.5012  0.4515
 6828TIP3    H141975   4.360   5.398   1.890  1.7453  3.3667 -0.9467
 6828TIP3    H241976   4.265   5.376   1.775  0.4276 -1.4373  0.9357
 6829TIP3   OH241977   2.741   3.607  11.115 -0.2528  0.2975  0.5993
 6829TIP3    H141978   2.759   3.649  11.199 -0.8620  0.1261  0.8180
 6829TIP3    H241979   2.818   3.554  11.097  1.0899  2.4320 -0.2555
 6830TIP3   OH241980   2.170   2.127  14.232 -0.1482  0.2511  0.3044
 6830TIP3    H141981   2.161   2.069  14.307  0.1874  0.0125  0.1592
 6830TIP3    H241982   2.081   2.132  14.195 -0.4253  0.8137  1.0375
 6831TIP3   OH241983   6.452   6.563   1.195 -0.9554 -0.0774 -0.2018
 6831TIP3    H141984   6.447   6.509   1.117  0.3428  0.5125 -0.7179
 6831TIP3    H241985   6.456   6.500   1.268  2.5113 -0.8008 -0.9035
 6832TIP3   OH241986   0.074   3.091  13.527  0.4930 -0.1976  0.6320
 6832TIP3    H141987   0.092   3.172  13.479  1.5981 -1.6484 -1.4391
 6832TIP3    H241988   0.046   3.029  13.460  2.4690 -2.3924  1.7924
 6833TIP3   OH241989   5.852   5.579  14.957  0.6243  0.3579  0.1408
 6833TIP3    H141990   5.839   5.673  14.968  0.2414  0.3056  0.1352
 6833TIP3    H241991   5.808   5.558  14.875 -2.7696 -0.5289  2.0812
 6834TIP3   OH241992   3.973   4.131  12.227  0.5035 -0.5676  0.1584
 6834TIP3    H141993   4.047   4.093  12.273  0.4213 -0.2295  0.5769
 6834TIP3    H241994   3.992   4.225  12.223  0.4632 -0.5775 -0.4158
 6835TIP3   OH241995   3.739   5.651   2.164 -0.5134 -0.1672 -0.1043
 6835TIP3    H141996   3.676   5.667   2.094  0.2310  2.9159 -0.1834
 6835TIP3    H241997   3.820   5.627   2.119 -0.1624  1.3540 -0.3223
 6836TIP3   OH241998   0.260   2.325  16.507  0.5694 -0.2229  0.1221
 6836TIP3    H141999   0.337   2.309  16.561  0.8819 -0.2831 -0.3373
 6836TIP3    H242000   0.266   2.261  16.437  0.2927  0.0071 -0.1155
 6837TIP3   OH242001   0.328   6.245   4.116  0.2523 -0.1491 -0.4308
 6837TIP3    H142002   0.351   6.337   4.107 -1.9935  0.5926  0.9840
 6837TIP3    H242003   0.325   6.213   4.026 -2.6638  2.1721 -1.2690
 6838TIP3   OH242004   2.341   6.535  13.567  0.5052 -0.1253  0.1373
 6838TIP3    H142005   2.313   6.460  13.515  0.7752 -0.2538  0.1755
 6838TIP3    H242006   2.390   6.590  13.505 -0.9280  0.7256 -0.2420
 6839TIP3   OH242007   0.422   4.815  13.545 -0.0357  0.1272  0.7341
 6839TIP3    H142008   0.506   4.789  13.583 -0.1666 -0.3738  0.6880
 6839TIP3    H242009   0.360   4.806  13.617  0.2672  2.3350  1.2950
 6840TIP3   OH242010   1.941   0.042   5.623 -0.1529 -1.1379  0.4650
 6840TIP3    H142011   1.966  -0.049   5.632  0.0208 -1.1539 -0.1499
 6840TIP3    H242012   1.932   0.056   5.529  1.0085 -0.2107  0.4752
 6841TIP3   OH242013   5.803   1.933  16.655 -0.0550 -0.0550  0.4710
 6841TIP3    H142014   5.714   1.900  16.671 -0.2175 -0.4321 -1.0985
 6841TIP3    H242015   5.854   1.855  16.635  0.2176  0.3383 -0.3822
 6842TIP3   OH242016   6.580   0.266  12.332  0.1049 -0.4638 -0.1514
 6842TIP3    H142017   6.501   0.239  12.285  0.4700 -1.6230 -0.1070
 6842TIP3    H242018   6.652   0.223  12.286  0.4909 -1.4070  1.2979
 6843TIP3   OH242019   0.355   0.850   5.717 -0.0063  0.0688 -0.1109
 6843TIP3    H142020   0.434   0.826   5.765 -0.1000  0.2439  0.1361
 6843TIP3    H242021   0.380   0.846   5.625  0.0286 -0.7757 -0.0616
 6844TIP3   OH242022   0.029   0.751   0.270  0.0402 -0.1177 -0.3779
 6844TIP3    H142023   0.064   0.708   0.348 -1.0242  2.6814  1.7243
 6844TIP3    H242024   0.090   0.823   0.254 -0.3047 -0.0866 -1.5558
 6845TIP3   OH242025   2.872   4.556   1.463 -0.3288 -0.0347 -0.3240
 6845TIP3    H142026   2.861   4.464   1.486 -1.0377  0.2693  0.5938
 6845TIP3    H242027   2.915   4.555   1.377 -1.6127 -1.2255 -0.9680
 6846TIP3   OH242028   1.076   2.132   2.256  0.1077  0.0455  0.0774
 6846TIP3    H142029   1.100   2.087   2.337  0.8413  2.1792  1.0958
 6846TIP3    H242030   0.984   2.108   2.241  0.4206 -1.5684  0.7099
 6847TIP3   OH242031   4.289   0.550   5.987 -0.1942 -0.1587  0.3593
 6847TIP3    H142032   4.352   0.479   5.978  1.9418  1.9056 -1.8573
 6847TIP3    H242033   4.315   0.595   6.068 -1.2144 -1.5420  1.4713
 6848TIP3   OH242034   0.593   3.436  14.529 -0.4777 -0.0585 -0.2596
 6848TIP3    H142035   0.670   3.491  14.513 -0.8564  0.4992 -0.1747
 6848TIP3    H242036   0.521   3.482  14.487 -0.9217 -0.1506  0.3944
 6849TIP3   OH242037   3.010   2.098  14.829  0.0215 -0.0751  0.2552
 6849TIP3    H142038   3.105   2.086  14.825  0.2040  1.0980  0.6159
 6849TIP3    H242039   2.990   2.152  14.752  0.1630  2.5509  1.9695
 6850TIP3   OH242040   4.845   1.216   4.079  0.3109  0.3110 -0.2713
 6850TIP3    H142041   4.766   1.185   4.034  0.4620 -0.0704 -0.2825
 6850TIP3    H242042   4.821   1.301   4.116  0.2858  0.7863 -1.3660
 6851TIP3   OH242043   1.020   2.460   4.976 -0.6694 -0.9846 -0.1392
 6851TIP3    H142044   1.060   2.376   4.997 -0.5262 -0.3393  2.2881
 6851TIP3    H242045   1.069   2.492   4.900 -0.1763 -2.6814 -0.5436
 6852TIP3   OH242046   2.824   5.217   5.898  0.3907  0.0473 -0.4925
 6852TIP3    H142047   2.885   5.188   5.830  0.4552  0.3661 -0.5689
 6852TIP3    H242048   2.823   5.145   5.961 -1.5204 -1.3696 -2.0355
 6853TIP3   OH242049   3.853   0.757   5.050 -0.5624 -0.5187 -0.7209
 6853TIP3    H142050   3.866   0.822   5.119 -0.4443 -1.0690 -0.2275
 6853TIP3    H242051   3.847   0.809   4.970  1.1792 -0.0053 -0.5412
 6854TIP3   OH242052   0.631   4.158   5.458 -0.3566 -0.5021  0.7779
 6854TIP3    H142053   0.577   4.079   5.455  0.6320 -1.1631 -1.1277
 6854TIP3    H242054   0.591   4.213   5.525 -2.0571 -1.9134  0.9534
 6855TIP3   OH242055   4.938   2.565   2.217  0.1950 -0.3026 -0.2877
 6855TIP3    H142056   4.947   2.599   2.306  1.1698 -1.2248 -0.0308
 6855TIP3    H242057   5.027   2.558   2.184 -0.1667  0.1498 -1.3940
 6856TIP3   OH242058   3.100   2.913  10.886  0.6057  0.0915 -0.0717
 6856TIP3    H142059   3.099   2.821  10.914 -0.1470 -0.1861 -0.9595
 6856TIP3    H242060   3.192   2.933  10.871  0.7443 -0.6358 -0.2172
 6857TIP3   OH242061   4.770   5.102   4.589  0.2685  0.4118 -0.3189
 6857TIP3    H142062   4.853   5.081   4.632  1.7960  2.1661 -2.3675
 6857TIP3    H242063   4.730   5.169   4.645 -0.1021 -0.8937  1.0126
 6858TIP3   OH242064   2.060   0.263   6.122  0.1906 -0.8731 -0.8477
 6858TIP3    H142065   2.111   0.344   6.122  1.2789 -1.5622 -1.0962
 6858TIP3    H242066   2.042   0.246   6.030 -0.7598 -0.4749 -0.7472
 6859TIP3   OH242067   1.448   0.251   3.683  0.2022 -0.6613 -0.0539
 6859TIP3    H142068   1.484   0.313   3.618  0.5464 -1.1478 -0.3309
 6859TIP3    H242069   1.355   0.248   3.663  0.1588 -0.1269  0.0467
 6860TIP3   OH242070   1.958   2.770   6.169 -0.4646  0.1206 -0.1313
 6860TIP3    H142071   1.914   2.851   6.144 -1.6456 -0.7532 -0.9270
 6860TIP3    H242072   1.992   2.735   6.086 -1.0607 -0.8324  0.0175
 6861TIP3   OH242073   6.515   1.033   6.146 -0.2778 -0.0649  0.0256
 6861TIP3    H142074   6.510   1.125   6.172 -2.3101 -0.2393  0.3601
 6861TIP3    H242075   6.545   0.988   6.225 -3.2199 -0.1691  1.1522
 6862TIP3   OH242076   1.569   2.838  10.912 -0.0782  0.5887 -0.6384
 6862TIP3    H142077   1.475   2.847  10.929 -1.1412 -2.8270 -4.0165
 6862TIP3    H242078   1.583   2.883  10.828  0.8267 -0.8060 -1.2569
 6863TIP3   OH242079   1.213   0.516   1.564 -0.1158  0.4601  0.1073
 6863TIP3    H142080   1.256   0.598   1.588 -0.0278  0.0868  1.2780
 6863TIP3    H242081   1.276   0.471   1.508 -0.2047  1.2341 -0.6119
 6864TIP3   OH242082   5.213   2.701   2.758  0.0836  0.6565  0.0974
 6864TIP3    H142083   5.190   2.793   2.770 -0.6029  0.4529  0.3835
 6864TIP3    H242084   5.299   2.703   2.717  0.5896  1.4214  1.1495
 6865TIP3   OH242085   4.958   0.995   3.583  0.2605 -0.0232 -0.1587
 6865TIP3    H142086   4.995   1.083   3.586  1.7350 -0.6120 -0.6869
 6865TIP3    H242087   4.938   0.979   3.491 -0.7091  0.0375  0.0339
 6866TIP3   OH242088   0.234   2.043  12.103 -0.5195  0.4326  0.4773
 6866TIP3    H142089   0.176   2.108  12.062  2.1717  2.2588 -0.6237
 6866TIP3    H242090   0.238   1.971  12.040  0.7031  1.6159 -0.8414
 6867TIP3   OH242091   6.164   4.131  16.680 -0.0902 -0.2573 -0.0998
 6867TIP3    H142092   6.161   4.137  16.775  0.8162  0.1651 -0.0943
 6867TIP3    H242093   6.178   4.221  16.650 -1.9798 -0.1323 -0.7160
 6868TIP3   OH242094   6.690   2.657   4.233  0.4467 -0.6360  0.5060
 6868TIP3    H142095   6.625   2.604   4.279 -0.4049 -0.1038 -0.0494
 6868TIP3    H242096   6.640   2.699   4.163  1.5213 -0.6783 -0.2921
 6869TIP3   OH242097   3.060   3.877   4.671 -0.0982  0.9456  0.5267
 6869TIP3    H142098   3.025   3.892   4.583 -2.8445  2.2949  1.7809
 6869TIP3    H242099   3.147   3.917   4.670  0.4863 -0.3325 -1.9847
 6870TIP3   OH242100   6.722   3.817   5.201 -0.9785 -0.3297 -0.2241
 6870TIP3    H142101   6.640   3.865   5.217 -0.4300 -0.1433  2.2278
 6870TIP3    H242102   6.790   3.876   5.234 -0.1391 -1.9010  0.8917
 6871TIP3   OH242103   5.609   5.460  15.966  0.4350 -0.3295 -0.4969
 6871TIP3    H142104   5.518   5.489  15.963  0.5559  0.4458  1.9599
 6871TIP3    H242105   5.603   5.365  15.971 -0.2458 -0.2952 -0.5642
 6872TIP3   OH242106   1.947   6.726   0.938  0.4307 -0.0472  0.0469
 6872TIP3    H142107   1.988   6.760   0.858 -0.5551  1.1672  0.0267
 6872TIP3    H242108   2.019   6.711   0.998  1.1030 -0.0749 -0.7608
 6873TIP3   OH242109   1.197   0.102  13.208  0.7131  0.3901  0.1062
 6873TIP3    H142110   1.101   0.100  13.210  0.7518 -0.5512  1.5454
 6873TIP3    H242111   1.224   0.090  13.299  2.2002  0.7398 -0.2689
 6874TIP3   OH242112   1.352   0.583   5.066 -0.0020 -0.5148  0.3123
 6874TIP3    H142113   1.292   0.632   5.122 -0.5116 -1.2933  0.4584
 6874TIP3    H242114   1.348   0.628   4.982  1.1219  0.9331  1.0238
 6875TIP3   OH242115   1.573   5.846   2.801 -0.1004  0.2089 -1.0810
 6875TIP3    H142116   1.640   5.790   2.840  0.1078 -0.2339 -2.0626
 6875TIP3    H242117   1.592   5.933   2.836 -1.3096 -0.5754  1.5877
 6876TIP3   OH242118   1.266   2.210  11.824  0.3042 -0.3071 -0.0583
 6876TIP3    H142119   1.249   2.303  11.836  2.0277  0.2127 -1.4530
 6876TIP3    H242120   1.179   2.169  11.826 -0.3156  1.0682  2.5107
 6877TIP3   OH242121   0.379   4.499  13.206 -0.1662 -0.1284 -0.5626
 6877TIP3    H142122   0.422   4.458  13.281  0.8264  0.0409 -1.0287
 6877TIP3    H242123   0.401   4.592  13.214 -1.6899  0.1930  0.0168
 6878TIP3   OH242124   5.214   1.547   5.739  0.2498 -0.3638  0.2969
 6878TIP3    H142125   5.238   1.640   5.745  0.0342 -0.3935  2.2088
 6878TIP3    H242126   5.284   1.507   5.689  0.2056  0.8876 -0.7804
 6879TIP3   OH242127   1.249   2.408  10.625 -0.3286  0.0163 -0.5376
 6879TIP3    H142128   1.164   2.450  10.637 -2.1695 -3.8378  0.7502
 6879TIP3    H242129   1.245   2.373  10.536  0.6063  1.3107 -1.0890
 6880TIP3   OH242130   2.077   1.530  16.078  0.1205 -0.1071  0.3904
 6880TIP3    H142131   2.166   1.549  16.048 -0.3176  0.9693 -0.2534
 6880TIP3    H242132   2.038   1.481  16.007 -0.6266  1.6608 -0.4326
 6881TIP3   OH242133   4.123   3.793   0.921 -0.0084  0.1959  0.4040
 6881TIP3    H142134   4.131   3.738   0.844  0.9769 -1.8914  1.9205
 6881TIP3    H242135   4.208   3.784   0.965 -0.7689  0.7925  2.0572
 6882TIP3   OH242136   0.077   1.625  12.719  0.1156 -0.0974 -0.1883
 6882TIP3    H142137   0.150   1.667  12.673  0.3238 -0.3438 -0.0882
 6882TIP3    H242138   0.114   1.543  12.751 -0.0689  0.0027  0.2854
 6883TIP3   OH242139   2.549   0.561   0.916  0.3713 -0.1904  0.0673
 6883TIP3    H142140   2.507   0.603   0.841 -0.6763 -1.4789 -0.0935
 6883TIP3    H242141   2.625   0.516   0.879 -1.2623 -2.5039 -0.6034
 6884TIP3   OH242142   0.822   0.168   5.636  0.1690 -0.1377 -0.0073
 6884TIP3    H142143   0.915   0.148   5.625  0.2055 -0.3670  0.7177
 6884TIP3    H242144   0.777   0.085   5.620  0.2825 -0.7054  2.4220
 6885TIP3   OH242145   6.602   5.087   2.044 -0.5562 -0.0337 -0.4129
 6885TIP3    H142146   6.562   5.143   2.111  0.1675  0.2691 -0.2339
 6885TIP3    H242147   6.579   4.998   2.071  3.2359 -0.2474  2.6316
 6886TIP3   OH242148   5.901   0.422  12.373  0.2562  0.1387  0.2341
 6886TIP3    H142149   5.934   0.478  12.303  0.8430 -0.9012 -0.3302
 6886TIP3    H242150   5.974   0.365  12.395  0.0766  0.4583  1.7222
 6887TIP3   OH242151   5.186   0.156  15.355  0.5031  0.2218  0.7405
 6887TIP3    H142152   5.148   0.105  15.284 -2.2764  3.5890 -0.3443
 6887TIP3    H242153   5.254   0.100  15.392  0.4830 -2.4947 -3.1035
 6888TIP3   OH242154   1.984   6.117   5.949  0.5781 -0.0425 -0.0950
 6888TIP3    H142155   2.032   6.172   6.011  2.5594 -3.1408  1.2456
 6888TIP3    H242156   1.922   6.068   6.002  0.6323 -0.9757 -0.8762
 6889TIP3   OH242157   6.060   0.910   0.594 -0.5030 -0.1546  0.0251
 6889TIP3    H142158   6.067   1.004   0.576 -1.2069 -0.4049 -1.6681
 6889TIP3    H242159   6.145   0.874   0.567 -0.7918 -0.2188 -0.8145
 6890TIP3   OH242160   1.009   4.526   5.546 -0.6114 -0.1792  0.4697
 6890TIP3    H142161   1.074   4.536   5.477 -0.6018 -0.1100  0.4887
 6890TIP3    H242162   1.060   4.520   5.627 -0.6576  0.6576  0.5660
 6891TIP3   OH242163   1.338   5.918  12.747 -0.0569  0.3112 -0.2097
 6891TIP3    H142164   1.273   5.952  12.686  1.1271  0.9619 -1.1314
 6891TIP3    H242165   1.338   5.823  12.732 -1.8065  0.1435  0.8182
 6892TIP3   OH242166   5.396   1.938   3.023  0.3430 -0.2554 -0.1324
 6892TIP3    H142167   5.348   1.991   2.960 -0.8180  1.3762  2.0486
 6892TIP3    H242168   5.335   1.869   3.049 -0.0365  0.4492  0.9029
 6893TIP3   OH242169   1.318   4.108  13.327 -0.2595  0.5923  0.3207
 6893TIP3    H142170   1.339   4.084  13.237  1.2582  0.5193  0.6707
 6893TIP3    H242171   1.230   4.074  13.342 -0.1063 -0.3119 -0.8007
 6894TIP3   OH242172   3.177   6.448  11.311 -0.7802  0.4448 -0.2159
 6894TIP3    H142173   3.227   6.530  11.316  1.1843 -0.6605 -1.0805
 6894TIP3    H242174   3.161   6.436  11.217 -2.9938  0.9320  0.0625
 6895TIP3   OH242175   0.563   3.440   4.448 -0.3091 -0.1231  0.4224
 6895TIP3    H142176   0.519   3.394   4.520 -0.4043  1.3567  1.3480
 6895TIP3    H242177   0.504   3.513   4.427  0.2012  0.0354 -0.4639
 6896TIP3   OH242178   6.548   5.872  16.409 -0.0845 -0.3028 -0.0105
 6896TIP3    H142179   6.544   5.854  16.503 -0.4570  0.5260  0.1436
 6896TIP3    H242180   6.596   5.798  16.372  0.2380 -0.5350  0.8597
 6897TIP3   OH242181   4.002   5.285  17.137  0.3347 -0.0077 -0.2147
 6897TIP3    H142182   3.992   5.195  17.168 -0.3859 -0.1500 -0.8348
 6897TIP3    H242183   4.092   5.308  17.159  0.2318 -0.5372  0.8380
 6898TIP3   OH242184   1.750   3.208  12.708 -0.1967 -0.3002 -0.7798
 6898TIP3    H142185   1.776   3.253  12.628 -1.2542 -0.9069 -1.4733
 6898TIP3    H242186   1.689   3.268  12.751 -1.1550 -0.8138 -1.4139
 6899TIP3   OH242187   3.291   2.771   4.410  0.1182 -0.7064  0.1055
 6899TIP3    H142188   3.222   2.836   4.428  0.8368 -0.0458  0.5169
 6899TIP3    H242189   3.310   2.781   4.317  4.7798  4.2925  1.3425
 6900TIP3   OH242190   4.144   6.248   3.324 -0.0449  0.5566  0.1711
 6900TIP3    H142191   4.089   6.290   3.257  2.6188  1.2957 -1.6336
 6900TIP3    H242192   4.207   6.196   3.274  2.9901  2.3254  2.0216
 6901TIP3   OH242193   0.484   5.374  16.373  0.8302 -0.2048 -0.6381
 6901TIP3    H142194   0.506   5.300  16.316  1.0158  0.5671 -1.5780
 6901TIP3    H242195   0.388   5.379  16.369  0.7975 -0.6064 -0.3139
 6902TIP3   OH242196   2.739   6.387   4.181 -0.1110  0.2278 -0.4647
 6902TIP3    H142197   2.751   6.320   4.113 -0.4297  0.0534 -0.3548
 6902TIP3    H242198   2.825   6.426   4.192  0.0511 -0.0832 -0.6191
 6903TIP3   OH242199   1.620   1.992  14.250  0.2796 -0.0215  0.2107
 6903TIP3    H142200   1.625   2.080  14.289 -0.5339  0.1677 -0.1088
 6903TIP3    H242201   1.605   1.934  14.323 -2.7852  0.4930  0.0263
 6904TIP3   OH242202   5.425   4.388  14.677  0.4959  0.1682 -0.0879
 6904TIP3    H142203   5.385   4.421  14.597  0.1724  1.2215  0.5075
 6904TIP3    H242204   5.481   4.459  14.708  0.2746 -0.0704  0.8696
 6905TIP3   OH242205   1.915   2.636  16.757 -0.6487 -0.1290  0.0210
 6905TIP3    H142206   1.954   2.670  16.837 -1.5206  0.4276  0.2093
 6905TIP3    H242207   1.972   2.668  16.687 -0.7236  0.6185  0.3030
 6906TIP3   OH242208   3.920   2.616  12.877 -0.2215  0.7119  0.3996
 6906TIP3    H142209   3.901   2.666  12.798  2.5333 -0.1108 -0.8363
 6906TIP3    H242210   3.835   2.581  12.904 -1.3504  1.7566 -1.6514
 6907TIP3   OH242211   6.496   5.252   2.232 -0.1783 -0.4054  0.6196
 6907TIP3    H142212   6.406   5.270   2.259 -0.3288  0.9647 -0.7003
 6907TIP3    H242213   6.543   5.236   2.314 -1.7567 -1.8610  1.2683
 6908TIP3   OH242214   6.203   2.751   4.765  0.2786  0.5754 -0.2670
 6908TIP3    H142215   6.291   2.763   4.731  0.4940  1.0951  0.4499
 6908TIP3    H242216   6.151   2.723   4.690  0.8637  1.1434 -0.8793
 6909TIP3   OH242217   4.773   5.964   4.988 -0.2032 -0.6152 -0.0709
 6909TIP3    H142218   4.825   6.032   5.030 -0.7785 -0.7159  0.8270
 6909TIP3    H242219   4.777   5.890   5.049 -1.9068 -0.4037  0.3095
 6910TIP3   OH242220   4.104   6.393   3.759  0.0218  0.2061 -0.8811
 6910TIP3    H142221   4.112   6.441   3.677  2.3903  0.6169 -0.4324
 6910TIP3    H242222   4.148   6.310   3.743  0.5796  0.3236 -0.0193
 6911TIP3   OH242223   6.722   5.921  13.662 -0.2270  0.7224  0.1423
 6911TIP3    H142224   6.813   5.944  13.644  0.8615 -3.7571 -0.6421
 6911TIP3    H242225   6.713   5.929  13.757  1.8848 -1.5645  0.5797
 6912TIP3   OH242226   5.841   6.562   2.167  0.2609 -0.0655 -0.3466
 6912TIP3    H142227   5.808   6.577   2.256 -0.7814 -0.5624 -0.6419
 6912TIP3    H242228   5.778   6.501   2.128  0.0097  1.1129 -1.8370
 6913TIP3   OH242229   1.452   1.382   4.017  0.2282  0.4394  0.2348
 6913TIP3    H142230   1.530   1.434   4.035  0.5122  0.8980 -2.1759
 6913TIP3    H242231   1.486   1.295   3.994  0.0792  0.8066 -1.4113
 6914TIP3   OH242232   5.816   5.283   2.645  0.6339 -0.2689  0.3418
 6914TIP3    H142233   5.873   5.332   2.705  1.8315 -1.2169 -0.0090
 6914TIP3    H242234   5.872   5.215   2.609 -0.3686 -0.3709 -1.0542
 6915TIP3   OH242235   4.959   4.855  11.084  0.4191  0.5439  0.4297
 6915TIP3    H142236   4.909   4.791  11.136  1.6342 -0.0963  0.8536
 6915TIP3    H242237   5.044   4.812  11.070  0.7779  1.5233 -0.4403
 6916TIP3   OH242238   3.771   0.092   5.008  0.1067 -0.4965  0.5221
 6916TIP3    H142239   3.777   0.123   5.098 -1.5243 -0.2552  0.5635
 6916TIP3    H242240   3.681   0.058   5.000  0.3782 -0.9161 -0.8763
 6917TIP3   OH242241   6.059   4.816   1.290 -0.4186 -0.0341  0.1306
 6917TIP3    H142242   6.048   4.775   1.376 -0.7654 -1.2940 -0.4996
 6917TIP3    H242243   6.008   4.896   1.294 -0.9021 -0.3788  0.9007
 6918TIP3   OH242244   6.814   3.036  14.835 -0.4500 -0.3390  0.2556
 6918TIP3    H142245   6.851   3.077  14.757 -0.1837  0.7950  0.9660
 6918TIP3    H242246   6.880   3.050  14.903 -0.8123 -1.0524  0.7644
 6919TIP3   OH242247   1.230   5.405   6.205 -0.4042  0.4773 -0.0609
 6919TIP3    H142248   1.313   5.450   6.187 -0.7416  1.2121  0.2100
 6919TIP3    H242249   1.250   5.312   6.192  0.0641  0.7628 -1.5212
 6920TIP3   OH242250   1.089   4.424  12.977 -0.0970 -0.2453  0.0007
 6920TIP3    H142251   1.154   4.452  13.041  0.4952 -0.7071 -0.3957
 6920TIP3    H242252   1.099   4.329  12.972  2.2698  0.1140 -3.3564
 6921TIP3   OH242253   5.646   1.054  11.246 -0.3135  0.0184  0.1046
 6921TIP3    H142254   5.710   1.049  11.175  0.7171 -2.0253  1.1105
 6921TIP3    H242255   5.670   1.131  11.296  2.1393 -1.3453  1.1295
 6922TIP3   OH242256   6.002   4.174   3.975 -0.1280 -0.4471  0.6474
 6922TIP3    H142257   5.943   4.219   4.036  0.4813  1.2730 -0.0028
 6922TIP3    H242258   5.954   4.174   3.892  0.7244  0.8944  0.1351
 6923TIP3   OH242259   3.624   2.245  13.075  0.2323 -0.2597  0.6022
 6923TIP3    H142260   3.572   2.210  13.002  0.2184 -0.3380  0.6492
 6923TIP3    H242261   3.597   2.337  13.082  0.3323 -0.2159  0.4213
 6924TIP3   OH242262   0.718   5.589   0.132 -0.2929 -0.3677  1.0262
 6924TIP3    H142263   0.752   5.509   0.173 -1.0054 -0.7360  0.9068
 6924TIP3    H242264   0.657   5.557   0.065  1.1869  0.2076 -0.6460
 6925TIP3   OH242265   6.235   0.871  16.261  0.4183 -0.8621 -0.1733
 6925TIP3    H142266   6.156   0.875  16.315 -0.1378 -0.5369 -1.0102
 6925TIP3    H242267   6.265   0.780  16.269 -1.2994 -1.5897 -1.6252
 6926TIP3   OH242268   5.628   1.482  13.661  0.4568 -0.6413  0.3516
 6926TIP3    H142269   5.723   1.476  13.646  0.2175 -2.9861 -0.4083
 6926TIP3    H242270   5.603   1.565  13.620  2.2984  0.3867  1.2480
 6927TIP3   OH242271   2.778   2.282  12.282 -0.5150  0.0100 -0.3843
 6927TIP3    H142272   2.732   2.363  12.259  0.9935  1.0192  0.0075
 6927TIP3    H242273   2.794   2.290  12.376  1.2899  0.1570 -0.6811
 6928TIP3   OH242274   1.330   5.046  11.089  0.3526 -0.2051  0.1035
 6928TIP3    H142275   1.358   5.125  11.043  1.1947  0.3136  1.4885
 6928TIP3    H242276   1.405   4.987  11.085 -0.4757 -1.2063 -1.4540
 6929TIP3   OH242277   3.037   1.893  11.653  0.1925 -0.0295 -0.2544
 6929TIP3    H142278   3.010   1.802  11.638  0.2269 -0.5080  2.3015
 6929TIP3    H242279   2.984   1.922  11.727  1.1274  1.6055 -0.1982
 6930TIP3   OH242280   1.621   1.737   5.108 -0.3930 -0.5441 -0.9440
 6930TIP3    H142281   1.716   1.730   5.094 -0.1369 -0.7787  0.7921
 6930TIP3    H242282   1.601   1.829   5.090  0.0038 -0.6866 -2.1709
 6931TIP3   OH242283   5.351   3.124  15.824  0.0110  0.1576 -0.8051
 6931TIP3    H142284   5.437   3.160  15.846 -1.1048  1.4576  1.6076
 6931TIP3    H242285   5.344   3.045  15.878 -0.5321  0.4009 -0.5071
 6932TIP3   OH242286   6.674   4.843  11.036  0.1211  0.4032 -0.1307
 6932TIP3    H142287   6.761   4.813  11.009 -0.2394  1.0201 -2.0194
 6932TIP3    H242288   6.632   4.763  11.069  1.0712 -0.0754 -0.0245
 6933TIP3   OH242289   0.979   2.453   2.242  0.4331  0.1496 -0.2313
 6933TIP3    H142290   0.895   2.409   2.229 -0.1259  0.5712  1.8672
 6933TIP3    H242291   1.043   2.394   2.202 -0.3569 -2.2530  1.9411
 6934TIP3   OH242292   4.719   3.824  16.645  0.0566 -0.0308  0.2701
 6934TIP3    H142293   4.748   3.874  16.721 -0.2487  1.5318 -0.6074
 6934TIP3    H242294   4.714   3.734  16.676 -1.8409  0.8154  2.6265
 6935TIP3   OH242295   5.042   5.071  11.714 -0.4542 -0.5285  0.7966
 6935TIP3    H142296   4.998   5.063  11.630  0.4265  0.9971  0.1646
 6935TIP3    H242297   4.979   5.116  11.770 -0.5218 -0.3061  0.5422
 6936TIP3   OH242298   4.216   1.865  14.442 -0.9151  0.1467 -0.6318
 6936TIP3    H142299   4.232   1.923  14.517  0.2445 -0.5258 -0.3431
 6936TIP3    H242300   4.148   1.805  14.472 -1.1564  0.5070 -0.4587
 6937TIP3   OH242301   1.735   1.374  12.183 -1.0412  0.1310  0.1602
 6937TIP3    H142302   1.710   1.311  12.251  0.6494  0.6391  1.2861
 6937TIP3    H242303   1.818   1.341  12.149  0.2763  2.1381  1.3221
 6938TIP3   OH242304   4.750   6.542  12.082  0.0330 -0.4563  0.3210
 6938TIP3    H142305   4.754   6.631  12.048 -1.1581 -0.8891 -1.0055
 6938TIP3    H242306   4.659   6.529  12.107  0.4289 -0.9402  1.5300
 6939TIP3   OH242307   0.889   0.811   5.299 -0.6424  0.1750 -0.1043
 6939TIP3    H142308   0.848   0.726   5.282 -0.9386  0.0977  0.9479
 6939TIP3    H242309   0.935   0.832   5.219 -1.2039 -0.6273 -0.6443
 6940TIP3   OH242310   0.062   2.737   0.350  0.1594  0.1119 -0.0797
 6940TIP3    H142311   0.154   2.739   0.377 -0.0011 -1.1222  0.5852
 6940TIP3    H242312   0.037   2.830   0.344  1.9142  0.5177 -1.9405
 6941TIP3   OH242313   2.093   1.933  10.463 -0.4163  0.0551  0.1972
 6941TIP3    H142314   2.124   1.849  10.497 -1.5354 -0.9608 -1.2318
 6941TIP3    H242315   2.158   1.957  10.397  0.8225  1.1775  1.7831
 6942TIP3   OH242316   6.262   3.654  12.639  0.4200  0.1059  0.1710
 6942TIP3    H142317   6.344   3.697  12.617 -1.2470  2.1062 -2.5222
 6942TIP3    H242318   6.209   3.662  12.560 -1.5747 -3.1541  1.0581
 6943TIP3   OH242319   2.965   5.544  12.161 -0.5500 -0.5349  0.1124
 6943TIP3    H142320   2.931   5.550  12.250 -0.1730 -1.4495  0.3249
 6943TIP3    H242321   2.989   5.633  12.138  2.8185 -0.7899  2.3271
 6944TIP3   OH242322   0.001   4.651   4.882 -0.2897 -0.3968 -0.4893
 6944TIP3    H142323  -0.061   4.598   4.831 -1.4738  0.1916  0.3209
 6944TIP3    H242324   0.083   4.602   4.878 -1.1461 -1.8563 -0.4755
 6945TIP3   OH242325   5.965   1.661   6.002 -0.2345 -0.5484  0.3385
 6945TIP3    H142326   5.928   1.728   6.060  0.6350 -0.3306  0.6368
 6945TIP3    H242327   6.059   1.664   6.019  0.4094  1.5103 -3.1217
 6946TIP3   OH242328   2.952   4.289   4.568 -0.7897  0.7840  0.0584
 6946TIP3    H142329   2.903   4.326   4.494 -0.5864  0.1749 -0.3831
 6946TIP3    H242330   2.886   4.277   4.636 -0.7760  2.4282  0.3968
 6947TIP3   OH242331   0.184   2.810   2.949 -0.6763  0.0655 -0.7733
 6947TIP3    H142332   0.151   2.736   2.898  1.2814 -0.3168 -1.5446
 6947TIP3    H242333   0.235   2.861   2.886 -0.7987  1.2865  0.0949
 6948TIP3   OH242334   3.402   3.890   0.847 -0.1881  0.2123 -0.1430
 6948TIP3    H142335   3.388   3.831   0.921 -2.4432  0.4528 -0.3479
 6948TIP3    H242336   3.372   3.841   0.771  0.0047  0.8232 -0.6173
 6949TIP3   OH242337   6.384   2.794  13.505 -0.3868  0.1220 -0.6536
 6949TIP3    H142338   6.342   2.732  13.446  0.5509 -1.7415  0.5927
 6949TIP3    H242339   6.477   2.786  13.486 -0.1489  0.1197  0.4988
 6950TIP3   OH242340   5.665   3.011  12.697  0.4296 -0.1870  0.1663
 6950TIP3    H142341   5.673   3.063  12.777 -1.2098 -0.5889  0.6072
 6950TIP3    H242342   5.754   3.006  12.663  1.2779 -0.6148  2.3572
 6951TIP3   OH242343   3.965   0.095   1.941 -0.1865 -0.1016 -0.4034
 6951TIP3    H142344   3.874   0.068   1.944  0.1825 -1.4396 -1.1053
 6951TIP3    H242345   4.004   0.056   2.019 -0.2721  0.7255  0.0614
 6952TIP3   OH242346   1.188   6.694   2.228 -0.3836  0.3222  0.1887
 6952TIP3    H142347   1.107   6.674   2.182 -1.2708  2.8865  0.5622
 6952TIP3    H242348   1.171   6.776   2.273  1.7684 -0.1124  1.9233
 6953TIP3   OH242349   1.217   0.603   2.774  0.1871 -0.2427  0.1944
 6953TIP3    H142350   1.199   0.562   2.690  0.3622 -1.3401  0.6756
 6953TIP3    H242351   1.153   0.673   2.781  0.7850  0.4690 -1.2698
 6954TIP3   OH242352   4.549   6.000   6.054 -0.7678 -0.0477 -0.7708
 6954TIP3    H142353   4.502   5.916   6.057 -0.9489  0.1060  1.5138
 6954TIP3    H242354   4.610   5.996   6.128  1.1850  0.7320 -2.2910
 6955TIP3   OH242355   5.014   4.413  10.801 -0.4827  0.0533  0.0163
 6955TIP3    H142356   4.991   4.483  10.740 -2.2557  0.7128  1.3974
 6955TIP3    H242357   4.933   4.363  10.811  0.2871 -1.1323  0.4262
 6956TIP3   OH242358   2.387   3.789   3.199  0.6680  0.2924  0.1099
 6956TIP3    H142359   2.296   3.765   3.215  0.9512 -0.7012  0.2403
 6956TIP3    H242360   2.383   3.846   3.122  0.0170 -0.4144 -0.3918
 6957TIP3   OH242361   5.292   4.479   5.721  0.2816 -0.1223 -0.9283
 6957TIP3    H142362   5.205   4.451   5.751 -0.1191 -0.5971 -2.4772
 6957TIP3    H242363   5.347   4.401   5.729  0.3270 -0.0792 -0.8246
 6958TIP3   OH242364   2.411   2.037  14.986 -0.3790  0.6556 -0.4409
 6958TIP3    H142365   2.408   1.970  15.053 -0.8967  1.6714  0.5752
 6958TIP3    H242366   2.417   2.119  15.034  1.0034  1.3001 -1.6822
 6959TIP3   OH242367   1.142   5.638   3.619  0.0447  0.2293 -0.5317
 6959TIP3    H142368   1.155   5.698   3.546  0.0068  0.5988 -0.2355
 6959TIP3    H242369   1.229   5.629   3.659  0.1000 -0.1071 -0.7235
 6960TIP3   OH242370   1.773   2.245   3.497 -0.4124 -0.1472  0.1419
 6960TIP3    H142371   1.791   2.202   3.581  2.3427 -1.6387 -1.1614
 6960TIP3    H242372   1.763   2.173   3.435  1.7257  0.9964 -1.5934
 6961TIP3   OH242373   3.695   3.340   3.628  0.2703  0.0568 -0.5876
 6961TIP3    H142374   3.643   3.417   3.650  0.5880 -0.2047  1.1907
 6961TIP3    H242375   3.756   3.370   3.560  2.0493  2.0641  1.8168
 6962TIP3   OH242376   1.656   0.036   0.665 -0.1443 -0.6006  0.6007
 6962TIP3    H142377   1.701   0.059   0.584  0.5515 -1.0053  0.8650
 6962TIP3    H242378   1.633  -0.056   0.654  0.1300 -0.7115  0.9415
 6963TIP3   OH242379   5.079   4.872   5.272 -0.6659 -0.4305 -0.4340
 6963TIP3    H142380   5.100   4.830   5.356  1.6353  0.7198 -0.3987
 6963TIP3    H242381   5.119   4.815   5.206  0.8093  0.6486 -0.4994
 6964TIP3   OH242382   4.584   5.923  16.592  0.2627 -0.7454  0.1118
 6964TIP3    H142383   4.650   5.857  16.611  0.1875 -0.7425  0.3828
 6964TIP3    H242384   4.537   5.935  16.674  0.8229  0.2572  0.2941
 6965TIP3   OH242385   4.158   3.473   4.015 -0.3894 -0.0368 -0.1781
 6965TIP3    H142386   4.116   3.544   4.063 -0.4511 -0.8615  1.0237
 6965TIP3    H242387   4.247   3.504   3.999 -1.3318  1.6090 -2.5086
 6966TIP3   OH242388   1.148   5.040  16.595 -0.2524 -0.1741 -0.9287
 6966TIP3    H142389   1.220   5.007  16.649 -1.5171 -0.9770  0.2886
 6966TIP3    H242390   1.132   4.969  16.532 -0.7456 -0.4789 -0.4583
 6967TIP3   OH242391   0.120   6.323  17.278 -0.2546  0.3722 -0.0226
 6967TIP3    H142392   0.110   6.388  17.348 -2.0832 -0.5066  0.5568
 6967TIP3    H242393   0.126   6.239  17.324  0.0670 -0.0633 -0.8494
 6968TIP3   OH242394   1.767   6.369  14.980 -0.1390  0.1422  0.1197
 6968TIP3    H142395   1.799   6.333  14.898  0.7163  1.7940 -0.2944
 6968TIP3    H242396   1.837   6.427  15.010 -0.1969 -0.8659  2.3128
 6969TIP3   OH242397   2.947   1.468  15.101  0.5957  0.4083  0.0892
 6969TIP3    H142398   2.897   1.425  15.032  2.2145 -0.5955 -0.4986
 6969TIP3    H242399   2.883   1.485  15.170 -0.7998  0.3231 -1.1619
 6970TIP3   OH242400   5.248   5.333   1.764  0.0470 -0.2629  0.5959
 6970TIP3    H142401   5.240   5.416   1.810 -0.5426 -0.2484  0.4676
 6970TIP3    H242402   5.202   5.270   1.819 -0.2371 -0.3387  0.2757
 6971TIP3   OH242403   5.601   4.587  15.303  0.2610 -0.5368 -0.1999
 6971TIP3    H142404   5.654   4.524  15.352  0.6607  0.8443  1.1770
 6971TIP3    H242405   5.600   4.665  15.358 -1.4238  0.1840 -1.2210
 6972TIP3   OH242406   6.256   1.704   4.346 -0.2327  0.1200  0.4076
 6972TIP3    H142407   6.338   1.688   4.394 -0.1479 -1.0997 -0.1354
 6972TIP3    H242408   6.193   1.645   4.387 -0.2312 -0.7170 -0.7825
 6973TIP3   OH242409   4.784   4.786   5.192  0.0537 -0.4634 -0.2174
 6973TIP3    H142410   4.773   4.693   5.212  1.2358 -0.1935  1.8605
 6973TIP3    H242411   4.850   4.789   5.123  0.0831 -1.1541 -0.2195
 6974TIP3   OH242412   5.488   2.736  17.029 -0.3889  0.7303 -0.1861
 6974TIP3    H142413   5.569   2.753  17.077 -0.7792 -0.2786  0.8489
 6974TIP3    H242414   5.514   2.680  16.956 -0.1765  0.2644  0.2477
 6975TIP3   OH242415   3.287   0.025   4.205 -0.2420 -0.2127  0.4233
 6975TIP3    H142416   3.283   0.065   4.292 -0.9528  2.6643 -0.8589
 6975TIP3    H242417   3.379   0.028   4.181  0.1242 -1.9978  1.4497
 6976TIP3   OH242418   2.644   5.063  13.762 -0.1347 -0.7809  0.0812
 6976TIP3    H142419   2.668   5.150  13.794 -1.2624 -0.5230  0.2545
 6976TIP3    H242420   2.675   5.004  13.831 -0.1957 -0.4370  0.4106
 6977TIP3   OH242421   3.599   0.850  16.260 -0.6624 -0.8439 -0.4047
 6977TIP3    H142422   3.619   0.931  16.214 -0.3832 -0.9741 -0.5144
 6977TIP3    H242423   3.574   0.877  16.348 -0.1769 -0.6694 -0.3225
 6978TIP3   OH242424   1.754   6.508   0.319 -0.1047  0.2893  0.6605
 6978TIP3    H142425   1.687   6.449   0.285 -0.8195  1.9092 -0.8153
 6978TIP3    H242426   1.746   6.502   0.414 -1.0557 -0.9637  0.5072
 6979TIP3   OH242427   3.424   1.714  15.224 -0.0502 -0.5518 -0.0693
 6979TIP3    H142428   3.423   1.694  15.318 -1.4523 -1.1399 -0.2028
 6979TIP3    H242429   3.337   1.689  15.193  0.9951 -2.0748 -1.8825
 6980TIP3   OH242430   1.057   3.455  16.183 -0.0579 -0.2014 -0.0653
 6980TIP3    H142431   1.095   3.542  16.174 -0.9024  0.3025  1.0750
 6980TIP3    H242432   1.132   3.397  16.198  0.5556  0.2304 -1.4196
 6981TIP3   OH242433   1.243   4.808   2.565 -0.0519  0.3426  0.1472
 6981TIP3    H142434   1.254   4.869   2.493 -1.4524  1.0958  0.5433
 6981TIP3    H242435   1.327   4.807   2.610  0.7662  0.0238 -1.3591
 6982TIP3   OH242436   1.652   3.480  15.365  0.1170  0.2475 -0.2887
 6982TIP3    H142437   1.707   3.402  15.371 -0.5805 -0.2100  0.1841
 6982TIP3    H242438   1.582   3.455  15.305 -0.8367  0.0697  0.8899
 6983TIP3   OH242439   4.116   2.114  17.051  0.0735  0.2905 -0.3426
 6983TIP3    H142440   4.059   2.160  17.113  0.2693  1.0707 -0.7394
 6983TIP3    H242441   4.156   2.183  16.999 -0.6467 -0.3999 -1.8304
 6984TIP3   OH242442   6.002   1.242   5.079  0.6415 -0.5349 -0.2691
 6984TIP3    H142443   5.910   1.232   5.056  0.9227 -0.2296 -1.5874
 6984TIP3    H242444   6.046   1.169   5.036  0.7631 -1.8891  2.0557
 6985TIP3   OH242445   5.161   4.453   3.315  0.4349  0.1821  0.4214
 6985TIP3    H142446   5.194   4.506   3.241 -0.4491 -2.2419 -1.7944
 6985TIP3    H242447   5.068   4.473   3.318  0.2649 -0.5711  0.1493
 6986TIP3   OH242448   1.164   3.789   1.019  0.0143 -0.5375  0.3751
 6986TIP3    H142449   1.076   3.759   0.994 -0.0628 -0.6040  0.7098
 6986TIP3    H242450   1.148   3.852   1.090  0.2554 -0.8872  0.7438
 6987TIP3   OH242451   1.786   5.615  11.533  0.1453 -0.7376  0.2212
 6987TIP3    H142452   1.819   5.638  11.620  0.6260 -2.8872  0.6423
 6987TIP3    H242453   1.758   5.524  11.542 -0.7333 -0.6559 -1.6199
 6988TIP3   OH242454   1.042   2.819   2.286  0.4451 -0.4932 -0.1997
 6988TIP3    H142455   1.043   2.747   2.223 -0.8983 -1.1739  0.5279
 6988TIP3    H242456   1.127   2.815   2.330  0.8469 -0.8751 -1.0043
 6989TIP3   OH242457   5.854   3.210   1.881  0.8943  0.2329 -0.0489
 6989TIP3    H142458   5.930   3.258   1.848  0.5100  0.3863 -0.7293
 6989TIP3    H242459   5.806   3.185   1.802  0.2277  0.1628  0.3780
 6990TIP3   OH242460   5.206   1.969   1.492  0.1369  0.4472 -0.2540
 6990TIP3    H142461   5.141   1.996   1.426 -0.7155 -0.3514  0.2435
 6990TIP3    H242462   5.163   1.898   1.539  1.9997 -1.1567 -0.9500
 6991TIP3   OH242463   6.667   6.056   4.554  0.2799 -0.1453  0.0691
 6991TIP3    H142464   6.574   6.064   4.537  0.1497 -1.2045  0.2304
 6991TIP3    H242465   6.708   6.057   4.468 -0.1793 -3.1519 -0.2541
 6992TIP3   OH242466   2.719   5.260  16.394  0.2875  0.1480 -0.3360
 6992TIP3    H142467   2.736   5.353  16.408  3.5260 -0.0944 -2.2931
 6992TIP3    H242468   2.763   5.216  16.467  0.4352  0.0630 -0.4725
 6993TIP3   OH242469   3.643   1.164  14.212 -0.0790  0.3780  0.0116
 6993TIP3    H142470   3.676   1.131  14.296  0.1277 -0.0519 -0.2353
 6993TIP3    H242471   3.549   1.170  14.224 -0.1590 -0.6433 -0.0517
 6994TIP3   OH242472   5.570   2.263   2.356  0.4411  0.5807 -0.1346
 6994TIP3    H142473   5.638   2.328   2.369  2.3983 -1.1430 -1.4964
 6994TIP3    H242474   5.521   2.293   2.280  1.0084  0.7216 -0.4420
 6995TIP3   OH242475   5.924   3.534  13.489  0.2889  0.1391  0.1832
 6995TIP3    H142476   6.007   3.489  13.471  0.8405  0.9637  0.6304
 6995TIP3    H242477   5.901   3.508  13.578 -0.8766 -1.5223 -0.5782
 6996TIP3   OH242478   3.418   6.546  16.929 -0.5457  0.4196 -0.2314
 6996TIP3    H142479   3.322   6.538  16.929 -0.6438  1.1389  1.9735
 6996TIP3    H242480   3.446   6.497  17.007  1.0091 -0.9174 -1.5932
 6997TIP3   OH242481   2.187   0.406  17.209  0.5187  0.1498  0.4536
 6997TIP3    H142482   2.277   0.382  17.233  1.1015  0.4831 -1.3574
 6997TIP3    H242483   2.169   0.355  17.130 -0.9711 -0.0614  0.9153
 6998TIP3   OH242484   2.257   3.305  10.793  0.8106 -0.0081  0.1212
 6998TIP3    H142485   2.207   3.344  10.721  0.2484 -1.4592 -0.2919
 6998TIP3    H242486   2.248   3.367  10.865  0.4920  0.9473 -0.7194
 6999TIP3   OH242487   1.180   6.631   5.342  0.0760  0.1892  0.2469
 6999TIP3    H142488   1.211   6.541   5.332 -0.4910 -0.3674  2.9366
 6999TIP3    H242489   1.086   6.627   5.322  0.1624  0.2910 -0.1766
 7000TIP3   OH242490   2.934   3.636  15.019  0.6916 -0.1794 -0.1956
 7000TIP3    H142491   2.937   3.683  15.103  1.3428  1.1872 -0.9745
 7000TIP3    H242492   3.024   3.638  14.987  0.2206  0.3297 -1.4923
 7001TIP3   OH242493   4.184   5.613  12.575  0.1738  0.4097  0.8371
 7001TIP3    H142494   4.228   5.542  12.623  0.8344 -0.3689 -0.8776
 7001TIP3    H242495   4.182   5.686  12.636 -0.3001 -1.0098  2.5699
 7002TIP3   OH242496   0.032   2.321  16.262  0.8460  0.0292  0.3856
 7002TIP3    H142497  -0.041   2.270  16.228  0.9794 -0.2260  0.4786
 7002TIP3    H242498   0.081   2.259  16.316  0.9769  0.2713  0.5446
 7003TIP3   OH242499   2.702   1.110  12.513  0.0600  0.0442 -0.1933
 7003TIP3    H142500   2.751   1.041  12.557  0.1909  0.4042  0.2343
 7003TIP3    H242501   2.735   1.109  12.423 -0.2210 -0.7081 -0.2874
 7004TIP3   OH242502   5.236   5.166   5.823 -0.5392  0.4356  0.1356
 7004TIP3    H142503   5.198   5.113   5.893  0.5845  1.1632  1.3084
 7004TIP3    H242504   5.296   5.225   5.867  0.3171  0.7920 -1.4713
 7005TIP3   OH242505   4.225   2.145   0.235 -0.0201 -0.5675 -0.4332
 7005TIP3    H142506   4.263   2.124   0.149  0.0223 -0.1016 -0.5257
 7005TIP3    H242507   4.179   2.065   0.260 -1.0410 -0.3157 -1.4397
 7006TIP3   OH242508   0.955   5.294  16.981  0.1181  0.0959  0.2512
 7006TIP3    H142509   1.022   5.311  16.914 -0.2622 -0.6279 -0.3295
 7006TIP3    H242510   0.921   5.380  17.004  3.3928  0.8059  2.8158
 7007TIP3   OH242511   1.002   0.793   4.177 -0.2799 -0.2971  0.2328
 7007TIP3    H142512   1.025   0.713   4.224 -0.3686 -1.0365 -0.9777
 7007TIP3    H242513   0.959   0.763   4.097  0.5147  0.9302 -0.6690
 7008TIP3   OH242514   1.475   6.745  14.257 -0.0472  0.5462  0.0218
 7008TIP3    H142515   1.556   6.762  14.304  0.1892 -0.1234 -0.1294
 7008TIP3    H242516   1.504   6.722  14.168 -0.3591 -0.2287  0.1120
 7009TIP3   OH242517   0.626   5.637   3.767 -0.7072  0.0135 -0.0899
 7009TIP3    H142518   0.588   5.716   3.805 -0.2607  0.3480 -0.3369
 7009TIP3    H242519   0.660   5.588   3.843 -0.5954  0.2655  0.0227
 7010TIP3   OH242520   6.716   3.973   4.725  0.3221  0.2260  0.0589
 7010TIP3    H142521   6.627   3.947   4.701  0.0442  0.9847  0.2504
 7010TIP3    H242522   6.772   3.912   4.677 -0.2614  0.7474 -1.3143
 7011TIP3   OH242523   1.366   3.092  15.199 -0.3296  0.3437 -0.9261
 7011TIP3    H142524   1.321   3.166  15.239 -2.4858 -0.4453 -1.8395
 7011TIP3    H242525   1.459   3.106  15.221 -0.8584  2.5722  0.0423
 7012TIP3   OH242526   0.980   1.164   5.323  0.5596  0.0251  0.4563
 7012TIP3    H142527   0.916   1.102   5.288 -0.0809  1.5097 -1.0778
 7012TIP3    H242528   1.058   1.111   5.341  0.7945 -0.8923 -2.9090
 7013TIP3   OH242529   3.892   6.633   1.343 -0.0637  0.6683 -0.2103
 7013TIP3    H142530   3.902   6.546   1.306 -3.3001  0.3823 -0.5460
 7013TIP3    H242531   3.916   6.624   1.435 -1.1512 -0.7705 -0.0626
 7014TIP3   OH242532   1.955   1.162   0.145 -0.5044  0.2500  0.1493
 7014TIP3    H142533   2.032   1.159   0.201  0.0986 -0.9580 -0.7193
 7014TIP3    H242534   1.957   1.249   0.105  0.1557  0.3855  0.4819
 7015TIP3   OH242535   3.728   1.079   5.074  0.3168 -0.2396  0.2643
 7015TIP3    H142536   3.770   1.081   4.988  0.7027 -0.7894  0.4355
 7015TIP3    H242537   3.677   1.160   5.078  0.8712  0.1345 -0.1910
 7016TIP3   OH242538   4.913   0.017   3.083  0.2078  0.0515 -0.0578
 7016TIP3    H142539   4.902   0.031   3.177  0.8245  1.8812 -0.2412
 7016TIP3    H242540   4.976  -0.054   3.076  0.8077  0.4876  0.9089
 7017TIP3   OH242541   4.081   2.867  16.089 -0.3270 -0.3341  0.1396
 7017TIP3    H142542   4.163   2.906  16.059  0.7562 -1.0703  2.0143
 7017TIP3    H242543   4.046   2.822  16.012  0.6631  0.5922 -0.8690
 7018TIP3   OH242544   2.369   6.672   4.468  0.2085 -0.0680 -0.3130
 7018TIP3    H142545   2.326   6.750   4.503  0.7942 -0.7321  1.9695
 7018TIP3    H242546   2.451   6.667   4.517  0.3142 -1.9539 -0.6672
 7019TIP3   OH242547   3.068   3.272  16.555 -0.2798  0.4479 -0.7323
 7019TIP3    H142548   3.150   3.224  16.544 -1.2309 -1.0433 -1.6905
 7019TIP3    H242549   3.094   3.363  16.565  1.4358  0.1987 -2.5147
 7020TIP3   OH242550   4.367   0.217  17.234  0.3132  0.1869 -0.1085
 7020TIP3    H142551   4.302   0.156  17.199 -0.6717 -0.0275  1.9751
 7020TIP3    H242552   4.406   0.171  17.308  0.0415  1.7830  1.0663
 7021TIP3   OH242553   0.643   1.088   2.825  0.0937  0.3525  0.0517
 7021TIP3    H142554   0.676   1.066   2.912  0.4331  1.0643  0.1043
 7021TIP3    H242555   0.634   1.004   2.781 -2.6583 -0.2605  1.6952
 7022TIP3   OH242556   4.600   4.566   0.978 -0.1283  0.4619 -0.2097
 7022TIP3    H142557   4.601   4.518   0.895 -0.1479 -1.2677  0.7670
 7022TIP3    H242558   4.533   4.633   0.966 -0.4658 -0.0785 -1.4185
 7023TIP3   OH242559   0.615   2.775   4.611  0.3970 -0.4420  0.5167
 7023TIP3    H142560   0.671   2.793   4.686  1.3242 -0.6148 -0.1138
 7023TIP3    H242561   0.544   2.722   4.646  0.8602 -0.5804  1.2583
 7024TIP3   OH242562   3.235   6.064  11.084 -0.0841 -0.2987  0.2706
 7024TIP3    H142563   3.140   6.066  11.095 -0.1654 -0.0730 -0.4634
 7024TIP3    H242564   3.269   6.100  11.166 -0.6649  0.7169  0.0727
 7025TIP3   OH242565   0.550   6.672   2.197  0.4998 -0.4371 -0.1903
 7025TIP3    H142566   0.559   6.711   2.110  1.6553 -1.7780 -0.6925
 7025TIP3    H242567   0.638   6.674   2.234  0.0656 -0.1001  0.8676
 7026TIP3   OH242568   4.301   5.277   2.403  0.0104 -0.1453  0.3242
 7026TIP3    H142569   4.349   5.349   2.444 -1.0168  0.6313  0.2144
 7026TIP3    H242570   4.274   5.222   2.476  0.0018  0.0891  0.4995
 7027TIP3   OH242571   6.544   6.797  13.891 -0.5371  0.3857  0.2064
 7027TIP3    H142572   6.628   6.840  13.875 -0.2547  0.1694  1.0786
 7027TIP3    H242573   6.485   6.867  13.918 -0.1361  0.2614  1.4143
 7028TIP3   OH242574   4.337   6.728  12.545 -0.3115  0.5179 -0.0069
 7028TIP3    H142575   4.290   6.645  12.545 -0.0541  0.3566  1.1561
 7028TIP3    H242576   4.427   6.705  12.568 -0.3579  1.1792  0.8782
 7029TIP3   OH242577   6.378   5.871   1.224 -0.7234 -0.1864 -0.0995
 7029TIP3    H142578   6.337   5.800   1.175 -1.7763 -0.7343  1.5546
 7029TIP3    H242579   6.417   5.828   1.301  4.3302  0.0418 -2.2899
 7030TIP3   OH242580   3.168   3.629   0.482 -0.1705  0.1050  0.7924
 7030TIP3    H142581   3.241   3.676   0.521 -1.9916  1.3158  2.7977
 7030TIP3    H242582   3.131   3.576   0.553 -0.5520 -1.4091 -0.4794
 7031TIP3   OH242583   1.272   6.024   5.520  0.1730 -0.5050 -0.8580
 7031TIP3    H142584   1.196   5.970   5.498  1.0159 -1.7429 -0.7674
 7031TIP3    H242585   1.254   6.056   5.609 -1.2299  0.9943 -1.6449
 7032TIP3   OH242586   6.820   3.924  14.663  0.1624  0.1169 -0.0820
 7032TIP3    H142587   6.877   3.870  14.609 -0.1263 -0.5011  0.2329
 7032TIP3    H242588   6.761   3.862  14.706 -0.8527  0.7557 -0.5240
 7033TIP3   OH242589   0.594   2.698  16.085  0.3023  0.2002  0.3251
 7033TIP3    H142590   0.667   2.717  16.026  0.4846  3.2625  1.4179
 7033TIP3    H242591   0.521   2.749  16.050  0.5994  2.6591  3.0289
 7034TIP3   OH242592   5.130   4.105   5.031 -0.1174 -0.4221 -0.2739
 7034TIP3    H142593   5.047   4.147   5.053  1.2937  3.1497 -1.3564
 7034TIP3    H242594   5.183   4.113   5.111 -0.1787 -1.0545 -0.1669
 7035TIP3   OH242595   6.481   5.098  15.125 -0.1149  0.5153 -0.5473
 7035TIP3    H142596   6.523   5.184  15.124 -0.4198  0.6653 -0.4883
 7035TIP3    H242597   6.491   5.065  15.036  3.4237 -1.0488  0.3714
 7036TIP3   OH242598   4.905   2.665   2.761 -0.1199 -0.0339  0.2666
 7036TIP3    H142599   4.824   2.714   2.772 -0.4484 -0.4644 -0.1788
 7036TIP3    H242600   4.962   2.696   2.831 -1.0353 -0.4662  1.2065
 7037TIP3   OH242601   4.087   3.089  16.401  0.0647  0.4420 -0.2963
 7037TIP3    H142602   4.158   3.137  16.445  1.4357 -0.0425 -1.9545
 7037TIP3    H242603   4.078   3.132  16.316 -0.2732 -0.7761 -0.8803
 7038TIP3   OH242604   6.236   6.497  16.936  0.3388 -0.5739  0.3767
 7038TIP3    H142605   6.275   6.424  16.984 -1.4495 -1.5230  0.4174
 7038TIP3    H242606   6.156   6.518  16.984  0.4148  0.8715 -0.1097
 7039TIP3   OH242607   1.630   5.434   5.659  0.7345 -0.0036 -0.3315
 7039TIP3    H142608   1.655   5.342   5.669  0.1175 -0.2329 -0.9296
 7039TIP3    H242609   1.712   5.482   5.674  0.4160 -0.4568  3.2368
 7040TIP3   OH242610   1.045   6.432   4.934 -0.1376  0.4142 -0.1286
 7040TIP3    H142611   0.961   6.445   4.890 -0.7285 -0.6712  0.6566
 7040TIP3    H242612   1.095   6.379   4.872  0.5871  2.4193 -1.3074
 7041TIP3   OH242613   1.108   4.762   0.755 -0.2451  0.1726  0.1858
 7041TIP3    H142614   1.197   4.744   0.783 -0.6295  1.0076  1.9819
 7041TIP3    H242615   1.059   4.778   0.836 -2.1482 -0.8145 -0.7325
 7042TIP3   OH242616   1.800   2.594   1.673 -0.0566 -0.0212  0.4888
 7042TIP3    H142617   1.862   2.585   1.745 -0.8050 -1.9376  0.9310
 7042TIP3    H242618   1.731   2.530   1.692 -0.9060  0.3263 -1.2694
 7043TIP3   OH242619   4.789   5.386  11.592  0.1452  0.1257  0.5332
 7043TIP3    H142620   4.879   5.378  11.624  0.9341  2.0908 -1.0262
 7043TIP3    H242621   4.757   5.468  11.630  0.2571  1.2301 -1.6298
 7044TIP3   OH242622   4.330   1.604   4.521  0.4477  0.1564 -0.0790
 7044TIP3    H142623   4.351   1.519   4.559  0.2776  0.0751 -0.1639
 7044TIP3    H242624   4.415   1.643   4.501  0.5152 -0.3647 -0.8513
 7045TIP3   OH242625   6.106   2.814  16.274 -0.0272 -0.2606  0.3333
 7045TIP3    H142626   6.150   2.891  16.310  1.6062  0.1529 -2.3900
 7045TIP3    H242627   6.024   2.847  16.238  1.2266  0.4827 -1.9284
 7046TIP3   OH242628   6.659   2.623   1.364  0.0874 -0.0741 -0.2044
 7046TIP3    H142629   6.667   2.588   1.452  2.2959  0.5274 -0.1461
 7046TIP3    H242630   6.602   2.560   1.318 -1.1695 -0.3244  1.6484
 7047TIP3   OH242631   5.102   4.421   5.039 -0.2300  0.0411  0.6396
 7047TIP3    H142632   5.018   4.377   5.026 -0.4427  0.2591  1.2355
 7047TIP3    H242633   5.141   4.377   5.115  0.5005 -0.5097 -0.0600
 7048TIP3   OH242634   6.672   4.444   0.975 -0.3120  0.1698  0.0520
 7048TIP3    H142635   6.613   4.370   0.989 -0.3145  0.3158  0.8703
 7048TIP3    H242636   6.640   4.485   0.895  1.1201 -2.0671 -1.7228
 7049TIP3   OH242637   0.632   6.299  13.134 -0.4275  0.7432 -0.7711
 7049TIP3    H142638   0.626   6.204  13.126 -0.1689  0.4942  1.7149
 7049TIP3    H242639   0.724   6.316  13.155 -0.2982  1.6241 -1.9775
 7050TIP3   OH242640   3.493   5.529  16.851  0.9518  0.7422  0.0743
 7050TIP3    H142641   3.554   5.539  16.924  0.7627  0.7097  0.2389
 7050TIP3    H242642   3.437   5.607  16.855 -1.3432 -0.9671  2.1155
 7051TIP3   OH242643   3.427   1.064  11.602  0.2982  0.2662  0.1114
 7051TIP3    H142644   3.404   0.975  11.629  2.1051 -0.6570 -1.3202
 7051TIP3    H242645   3.407   1.067  11.508 -0.4996  1.6424  0.3013
 7052TIP3   OH242646   2.199   5.507  17.273  0.1886  0.0045 -0.2467
 7052TIP3    H142647   2.139   5.440  17.240 -1.7634  1.3382  0.5293
 7052TIP3    H242648   2.223   5.558  17.196 -1.5615  0.9194 -0.2134
 7053TIP3   OH242649   5.910   1.238  16.610  0.2823 -0.4717 -0.1086
 7053TIP3    H142650   5.964   1.227  16.532  1.1585 -0.4553  0.4778
 7053TIP3    H242651   5.822   1.214  16.583  0.8220 -1.7560 -0.7540
 7054TIP3   OH242652   5.919   3.425  17.251 -0.4240  0.0487 -0.5453
 7054TIP3    H142653   5.936   3.513  17.286  0.6280 -0.5824  0.5838
 7054TIP3    H242654   5.824   3.418  17.248 -0.5344  1.5856 -1.5974
 7055TIP3   OH242655   1.449   3.846  16.748 -0.2747  0.2137  0.0500
 7055TIP3    H142656   1.433   3.940  16.750  2.9549  0.8877 -2.4961
 7055TIP3    H242657   1.520   3.832  16.811  2.4294  0.2188 -2.9215
 7056TIP3   OH242658   0.023   1.740  13.016 -0.1899 -0.1806 -0.3837
 7056TIP3    H142659   0.060   1.676  13.077 -0.2924 -2.0750 -2.2106
 7056TIP3    H242660   0.061   1.716  12.931 -1.7473  0.9757 -1.4322
 7057TIP3   OH242661   4.995   2.327   4.293  0.0677  0.1002 -0.2152
 7057TIP3    H142662   5.040   2.393   4.239 -1.3562  0.8089 -0.5635
 7057TIP3    H242663   5.030   2.340   4.381  0.6988  0.5081 -0.5246
 7058TIP3   OH242664   5.365   0.265  12.617 -0.3177 -0.1055  0.1995
 7058TIP3    H142665   5.287   0.214  12.595 -0.9222  0.8014  0.1972
 7058TIP3    H242666   5.333   0.356  12.622  0.7883  0.2976 -0.0555
 7059TIP3   OH242667   4.606   2.699   4.044  0.5310  0.0877 -0.8064
 7059TIP3    H142668   4.566   2.719   4.129 -0.2376  0.6029 -1.2919
 7059TIP3    H242669   4.625   2.605   4.048 -0.8525 -0.1885 -0.6281
 7060TIP3   OH242670   0.129   4.173  14.743 -0.2513  0.6529 -0.3955
 7060TIP3    H142671   0.207   4.156  14.689  1.2817 -0.1649  1.9978
 7060TIP3    H242672   0.066   4.107  14.714  1.1021 -0.7833 -0.1993
 7061TIP3   OH242673   0.925   4.485  15.191 -0.1650 -0.4168 -0.1977
 7061TIP3    H142674   0.994   4.479  15.125  1.2383 -0.7530  1.2847
 7061TIP3    H242675   0.874   4.562  15.165  1.0104  0.0786 -1.0686
 7062TIP3   OH242676   3.351   1.978  13.840 -1.1620  0.1935  0.2810
 7062TIP3    H142677   3.327   2.056  13.789 -0.0312 -1.0623 -2.2687
 7062TIP3    H242678   3.326   1.904  13.784  1.2838 -1.2144  0.9541
 7063TIP3   OH242679   4.512   6.329   2.647 -0.2710  0.1328  0.7475
 7063TIP3    H142680   4.444   6.347   2.582 -0.6532 -0.7936  0.8861
 7063TIP3    H242681   4.558   6.253   2.614  0.5961  0.6521  0.7476
 7064TIP3   OH242682   4.747   1.364  17.276  0.0899  0.9874  0.2531
 7064TIP3    H142683   4.744   1.269  17.287  1.2471  0.9723  0.4852
 7064TIP3    H242684   4.822   1.392  17.328 -0.5688  2.0939  0.6247
 7065TIP3   OH242685   2.233   2.237  12.509 -0.6432  0.2265  0.8344
 7065TIP3    H142686   2.230   2.159  12.563 -0.8147 -1.0875 -1.0242
 7065TIP3    H242687   2.153   2.233  12.457  0.4595  0.3990 -0.9229
 7066TIP3   OH242688   2.098   3.779   5.720 -0.6610  0.4128 -0.1380
 7066TIP3    H142689   2.096   3.804   5.812  2.9841 -1.5080  0.5370
 7066TIP3    H242690   2.115   3.861   5.673 -2.3914  1.3665  0.8369
 7067TIP3   OH242691   2.158   6.298   3.049 -0.2492  0.5996 -0.1463
 7067TIP3    H142692   2.181   6.216   3.093  0.1870  0.3381 -0.8654
 7067TIP3    H242693   2.083   6.276   2.994  1.6801 -0.0201 -2.5870
 7068TIP3   OH242694   3.647   0.751   0.952  0.3023  0.0686 -0.4764
 7068TIP3    H142695   3.700   0.682   0.913  0.4678 -0.3247  0.4264
 7068TIP3    H242696   3.673   0.831   0.905 -1.0575 -0.7174 -2.6304
 7069TIP3   OH242697   4.333   3.279  11.362  0.7539  0.1258 -0.0921
 7069TIP3    H142698   4.293   3.193  11.349  1.3261  0.0777 -1.6997
 7069TIP3    H242699   4.262   3.342  11.350  0.6244 -0.0629 -0.3054
 7070TIP3   OH242700   5.621   5.304  11.467  0.0517  0.4923  0.9052
 7070TIP3    H142701   5.613   5.366  11.394 -1.3512  0.1468  0.7495
 7070TIP3    H242702   5.714   5.282  11.469 -0.0102 -0.1327 -1.3407
 7071TIP3   OH242703   4.229   5.194   0.764  0.3722 -0.4241  0.0831
 7071TIP3    H142704   4.191   5.221   0.847  1.6386 -0.8214  0.8080
 7071TIP3    H242705   4.158   5.201   0.701 -0.2562  1.1366  0.9500
 7072TIP3   OH242706   0.665   0.459  13.377  0.4243 -0.4968 -0.0371
 7072TIP3    H142707   0.669   0.375  13.331 -0.5182  0.1114 -1.2408
 7072TIP3    H242708   0.654   0.434  13.469 -2.0614 -1.6987 -0.6067
 7073TIP3   OH242709   2.477   6.744  16.701 -0.4269 -0.3972  0.0112
 7073TIP3    H142710   2.425   6.743  16.620 -1.2128 -0.8110  0.5200
 7073TIP3    H242711   2.535   6.668  16.693 -1.6812 -1.4364  0.5928
 7074TIP3   OH242712   6.751   1.825  16.082  0.1992 -0.0396 -0.0539
 7074TIP3    H142713   6.726   1.806  16.172  1.5435 -0.1064  0.3084
 7074TIP3    H242714   6.769   1.739  16.043 -1.7267 -0.1323 -0.8056
 7075TIP3   OH242715   2.138   4.226   2.543  0.5431  0.3530 -0.3011
 7075TIP3    H142716   2.095   4.162   2.485  1.3090 -0.3391 -0.1151
 7075TIP3    H242717   2.202   4.174   2.592 -1.6206  0.5202  2.7933
 7076TIP3   OH242718   1.569   4.207   6.077  0.4283  0.0020  0.5008
 7076TIP3    H142719   1.557   4.144   6.148  1.5365 -1.1848 -0.3403
 7076TIP3    H242720   1.556   4.155   5.997 -2.5890  1.6773 -0.1757
 7077TIP3   OH242721   3.151   5.065   4.776 -0.1571  0.3020  0.8521
 7077TIP3    H142722   3.065   5.101   4.794 -0.9613 -1.4570  0.6996
 7077TIP3    H242723   3.134   4.993   4.714  1.5514  0.7502 -0.1738
 7078TIP3   OH242724   4.355   6.722   2.447 -0.3156 -0.0292  0.1536
 7078TIP3    H142725   4.293   6.651   2.461  2.4844 -3.4268 -3.6157
 7078TIP3    H242726   4.365   6.763   2.533 -3.4544 -2.9519  2.0035
 7079TIP3   OH242727   4.493   5.648   6.599  0.4744  0.3350 -0.1669
 7079TIP3    H142728   4.493   5.723   6.659  0.4019  1.0896 -1.0867
 7079TIP3    H242729   4.401   5.637   6.574  0.4586 -0.1905  0.1340
 7080TIP3   OH242730   6.173   1.335  14.660  0.4320 -0.1266  0.5919
 7080TIP3    H142731   6.187   1.341  14.566 -0.1869 -2.0763  0.3598
 7080TIP3    H242732   6.115   1.260  14.672  0.5814  0.0243  2.5290
 7081TIP3   OH242733   6.461   4.504  13.347 -0.3578 -0.5910 -0.1296
 7081TIP3    H142734   6.368   4.497  13.328 -0.5628  0.0369  0.6232
 7081TIP3    H242735   6.475   4.596  13.369  0.5313 -0.5773 -0.7263
 7082TIP3   OH242736   1.550   5.675   2.191 -0.1121 -0.0381  0.2875
 7082TIP3    H142737   1.508   5.745   2.242  0.9973  0.7986  0.0628
 7082TIP3    H242738   1.641   5.674   2.221  0.7317  0.9002 -2.1290
 7083TIP3   OH242739   3.078   6.686  13.300 -0.4399 -0.2673  0.0263
 7083TIP3    H142740   3.150   6.744  13.272  0.1238 -1.5196 -1.1896
 7083TIP3    H242741   3.054   6.639  13.221 -1.7651 -0.7743  0.7265
 7084TIP3   OH242742   3.066   1.517   2.327  0.0803  0.3560  0.3376
 7084TIP3    H142743   3.019   1.571   2.263 -0.5192 -1.5106 -0.8240
 7084TIP3    H242744   3.005   1.447   2.349  0.4146  0.7821  2.7369
 7085TIP3   OH242745   6.808   1.397  14.558  0.3096  0.0671  0.1051
 7085TIP3    H142746   6.865   1.453  14.505 -0.8863  1.1630 -0.0588
 7085TIP3    H242747   6.751   1.354  14.494 -0.8359  1.0440  0.4613
 7086TIP3   OH242748   1.351   2.856   2.108  0.3652 -0.4298 -0.2662
 7086TIP3    H142749   1.442   2.844   2.134 -0.0990 -1.7340  0.7707
 7086TIP3    H242750   1.315   2.768   2.099 -1.1070  0.0632  0.4602
 7087TIP3   OH242751   4.070   6.672  15.435  0.3985  0.2692  0.4884
 7087TIP3    H142752   3.999   6.728  15.467  0.5624  1.2090 -0.7415
 7087TIP3    H242753   4.024   6.601  15.388  0.2315  0.1978  0.7600
 7088TIP3   OH242754   5.792   0.835  17.014  0.3005 -0.3426  0.3781
 7088TIP3    H142755   5.815   0.904  16.951  1.8972  0.8786  2.2254
 7088TIP3    H242756   5.875   0.790  17.031 -0.1981 -0.9357  1.2685
 7089TIP3   OH242757   0.735   1.923   6.031 -0.0759 -0.4805  0.1518
 7089TIP3    H142758   0.757   1.835   6.063  1.0849 -0.0134  0.6765
 7089TIP3    H242759   0.690   1.908   5.948  0.2098 -1.5742  0.1878
 7090TIP3   OH242760   1.047   1.490   0.332 -0.0058 -0.1440  0.0101
 7090TIP3    H142761   1.041   1.505   0.238  0.2486 -1.9498 -0.3145
 7090TIP3    H242762   1.037   1.395   0.342 -0.4345  0.0749  1.8381
 7091TIP3   OH242763   2.950   0.219   2.332  0.3524  1.0883  0.3991
 7091TIP3    H142764   2.924   0.135   2.294 -1.2349  0.5407  2.5836
 7091TIP3    H242765   3.045   0.212   2.342  0.4400  0.2047 -0.9598
 7092TIP3   OH242766   2.809   5.544   6.173 -0.2881 -0.1400 -0.4922
 7092TIP3    H142767   2.896   5.504   6.177 -0.6050 -0.7842 -0.0593
 7092TIP3    H242768   2.813   5.617   6.235  0.4070  0.7423 -1.5561
 7093TIP3   OH242769   2.624   2.706  11.365  0.0373 -0.1911  0.5114
 7093TIP3    H142770   2.702   2.673  11.410  0.0052  1.1002  1.5508
 7093TIP3    H242771   2.654   2.784  11.319 -0.4261 -0.2487  0.1105
 7094TIP3   OH242772   3.773   5.660   3.622 -0.1658  0.1408  0.5776
 7094TIP3    H142773   3.740   5.658   3.532 -2.5376 -0.2591  1.4085
 7094TIP3    H242774   3.854   5.710   3.617 -1.7816  2.6949 -1.3344
 7095TIP3   OH242775   6.583   2.713   3.579 -0.4650  0.6407  0.2860
 7095TIP3    H142776   6.647   2.752   3.518 -0.2292  0.8586  0.6719
 7095TIP3    H242777   6.520   2.783   3.596 -0.9810  0.3353 -0.3273
 7096TIP3   OH242778   0.925   2.663   0.172 -0.0303 -0.3692 -0.2476
 7096TIP3    H142779   0.869   2.605   0.121 -0.8531 -2.2633  2.6956
 7096TIP3    H242780   1.009   2.618   0.177 -0.0141 -0.2834  0.2585
 7097TIP3   OH242781   2.029   5.859   4.427 -0.1080 -0.0426  0.4428
 7097TIP3    H142782   2.017   5.927   4.493  2.0112 -1.2426  2.1218
 7097TIP3    H242783   2.124   5.851   4.417 -0.3815 -0.4236 -2.2141
 7098TIP3   OH242784   1.474   5.893   4.687 -0.3919  0.3824  0.2017
 7098TIP3    H142785   1.453   5.976   4.645  0.5897  1.7090  2.2384
 7098TIP3    H242786   1.390   5.860   4.719 -0.7569  0.6688 -0.4469
 7099TIP3   OH242787   1.126   1.818  11.327 -0.4976  0.3130  0.4951
 7099TIP3    H142788   1.039   1.812  11.289 -0.1512 -1.9079 -0.0244
 7099TIP3    H242789   1.113   1.807  11.421 -0.9724  1.9718  0.6255
 7100TIP3   OH242790   2.587   5.378   0.403 -0.4687 -0.1374 -0.4141
 7100TIP3    H142791   2.549   5.449   0.351  1.1976 -1.4225 -3.4865
 7100TIP3    H242792   2.681   5.388   0.393 -0.1744 -1.7887  0.5214
 7101TIP3   OH242793   4.450   5.603  12.968 -0.1868 -0.1100  0.3914
 7101TIP3    H142794   4.368   5.608  12.919 -0.0901 -0.0556  0.2303
 7101TIP3    H242795   4.446   5.519  13.014 -0.4659  0.0356  0.6290
 7102TIP3   OH242796   5.090   3.418   3.416  0.0823 -0.3151 -0.3642
 7102TIP3    H142797   5.180   3.389   3.406  0.3538 -0.3896  2.0540
 7102TIP3    H242798   5.074   3.417   3.510 -2.0858  0.7951 -0.6743
 7103TIP3   OH242799   1.276   3.393  14.140  0.2792 -0.1426 -0.4425
 7103TIP3    H142800   1.244   3.363  14.055 -0.4132  1.0224 -0.5935
 7103TIP3    H242801   1.270   3.315  14.196 -0.1119 -0.6790 -1.2200
 7104TIP3   OH242802   6.721   1.190  11.804 -0.2068  0.6861 -0.2555
 7104TIP3    H142803   6.644   1.136  11.787  0.1593  0.1390 -0.1737
 7104TIP3    H242804   6.780   1.172  11.730  0.6074 -0.2842  0.6172
 7105TIP3   OH242805   1.173   6.586   0.005  0.4500 -0.4590 -0.4780
 7105TIP3    H142806   1.232   6.513  -0.014 -0.5158 -1.1065 -1.0899
 7105TIP3    H242807   1.221   6.641   0.066  0.9442 -1.9682  0.5344
 7106TIP3   OH242808   2.116   1.535   0.037  0.0224 -0.5549 -0.1496
 7106TIP3    H142809   2.167   1.461   0.003  1.5987  0.1711  0.5975
 7106TIP3    H242810   2.182   1.602   0.057 -1.3184  0.7427 -0.0379
 7107TIP3   OH242811   6.590   6.374   4.072  0.1765  0.6096 -0.0572
 7107TIP3    H142812   6.579   6.424   3.991  1.6388 -0.0816 -0.7121
 7107TIP3    H242813   6.578   6.439   4.142  1.9567  1.9074 -0.8963
 7108TIP3   OH242814   6.613   3.682   2.411 -0.0450 -0.3229 -0.1750
 7108TIP3    H142815   6.706   3.668   2.393  0.3041  2.6817 -0.8287
 7108TIP3    H242816   6.573   3.692   2.325 -0.8613 -0.7579  0.1470
 7109TIP3   OH242817   3.805   5.456  12.413 -0.2140  0.2266 -0.1607
 7109TIP3    H142818   3.780   5.442  12.322 -2.1228  1.7761  0.0899
 7109TIP3    H242819   3.878   5.518  12.409  0.7203 -0.9042 -0.7008
 7110TIP3   OH242820   0.230   6.819  17.266  0.2147 -0.3431 -0.4516
 7110TIP3    H142821   0.145   6.863  17.260  0.8005  0.6686 -1.6538
 7110TIP3    H242822   0.234   6.763  17.188  0.5321 -0.5884 -0.2603
 7111TIP3   OH242823   4.943   5.222  17.066  0.3958  0.5323  0.0022
 7111TIP3    H142824   4.864   5.218  17.120  0.3708 -0.5507 -0.1093
 7111TIP3    H242825   4.919   5.179  16.984  0.9697  0.5865 -0.1974
 7112TIP3   OH242826   6.164   3.955   1.211  0.2385 -0.0279 -0.4245
 7112TIP3    H142827   6.163   4.047   1.237 -0.5668 -0.0558 -0.3243
 7112TIP3    H242828   6.071   3.932   1.201  0.3618 -1.3314  1.2991
 7113TIP3   OH242829   6.719   5.283  14.998 -0.3264 -0.4320 -0.2517
 7113TIP3    H142830   6.701   5.190  14.985 -0.8725 -0.3600 -0.0229
 7113TIP3    H242831   6.755   5.313  14.914 -1.5942 -0.5040 -0.8268
 7114TIP3   OH242832   0.901   1.572  15.454 -0.1254 -0.0126 -0.0205
 7114TIP3    H142833   0.825   1.564  15.397 -1.7299  0.5401  1.9727
 7114TIP3    H242834   0.864   1.580  15.542  2.2728 -0.6963  1.0949
 7115TIP3   OH242835   2.749   6.539  16.893  0.1613  0.0960 -0.5679
 7115TIP3    H142836   2.734   6.540  16.798 -0.3440 -1.8728 -0.5243
 7115TIP3    H242837   2.734   6.630  16.920 -0.5097  0.5145 -2.2453
 7116TIP3   OH242838   4.658   4.302   2.626  0.5102  0.4081 -0.3324
 7116TIP3    H142839   4.718   4.294   2.552  1.4305  0.2406  0.4162
 7116TIP3    H242840   4.571   4.293   2.588  1.0492 -1.9959 -1.0717
 7117TIP3   OH242841   3.226   5.019  16.128  0.2316 -0.2319 -0.6863
 7117TIP3    H142842   3.236   5.041  16.036 -2.3039  1.3330 -0.6387
 7117TIP3    H242843   3.151   5.071  16.157  1.1611 -0.4724  2.3326
 7118TIP3   OH242844   3.079   2.452  16.955  0.1349  0.4828  0.1124
 7118TIP3    H142845   3.174   2.462  16.963  0.0179  1.1365  0.7327
 7118TIP3    H242846   3.055   2.393  17.026 -0.2329  2.2193  1.4513
 7119TIP3   OH242847   4.616   0.829   4.321 -0.2711 -0.6082 -0.5979
 7119TIP3    H142848   4.585   0.778   4.396  0.2859 -0.3614 -0.1954
 7119TIP3    H242849   4.692   0.781   4.289  1.7549  1.2407  1.2995
 7120TIP3   OH242850   4.604   5.171  16.664  0.1636  0.2677  0.6947
 7120TIP3    H142851   4.537   5.127  16.717 -0.7561 -0.1835 -0.8326
 7120TIP3    H242852   4.616   5.256  16.707 -0.7479 -0.0005  1.4948
 7121TIP3   OH242853   6.134   2.974   1.027 -0.3955 -0.1744 -0.0777
 7121TIP3    H142854   6.067   2.953   0.962  0.5403 -2.6488 -0.3034
 7121TIP3    H242855   6.101   2.938   1.109  0.8418 -1.8597 -0.2874
 7122TIP3   OH242856   0.076   6.091  14.316  0.5195 -0.1219 -0.5279
 7122TIP3    H142857   0.140   6.153  14.352 -1.5373  1.6588  0.2045
 7122TIP3    H242858   0.023   6.065  14.392  2.2017 -3.8944 -0.5777
 7123TIP3   OH242859   5.363   1.090  14.097  0.8917  0.2969 -0.0880
 7123TIP3    H142860   5.424   1.122  14.164 -0.3385  0.1491  1.1210
 7123TIP3    H242861   5.383   0.997  14.089  0.0638  0.0071  1.1380
 7124TIP3   OH242862   1.918   2.390  14.706  0.0997  0.6551 -0.1945
 7124TIP3    H142863   1.935   2.375  14.799  1.4355  3.5704  0.0660
 7124TIP3    H242864   1.825   2.370  14.695 -0.8310  3.2526  2.4390
 7125TIP3   OH242865   2.087   0.510   1.483  0.1534 -0.7963 -0.6169
 7125TIP3    H142866   2.066   0.421   1.453  1.8308 -1.3771 -0.1374
 7125TIP3    H242867   2.072   0.506   1.578 -3.1824  0.4602 -1.0267
 7126TIP3   OH242868   1.797   4.147   3.118 -0.1953  0.1869  0.0199
 7126TIP3    H142869   1.772   4.146   3.211  1.9516  3.0988  0.7220
 7126TIP3    H242870   1.777   4.236   3.089  1.7800  0.1662 -1.5180
 7127TIP3   OH242871   5.372   5.920   2.380 -0.6043 -0.3264 -0.0088
 7127TIP3    H142872   5.316   5.888   2.309 -0.8622 -1.5431  0.7330
 7127TIP3    H242873   5.365   5.854   2.448  1.5640 -0.3919  0.1925
 7128TIP3   OH242874   4.569   3.707  10.845 -0.3380 -0.0097  0.7448
 7128TIP3    H142875   4.589   3.619  10.812  1.3206  0.6502 -0.0764
 7128TIP3    H242876   4.639   3.724  10.908 -0.3407  0.9442  0.4866
 7129TIP3   OH242877   4.076   1.201   4.614 -0.4795  0.1839 -0.0906
 7129TIP3    H142878   4.069   1.297   4.616  0.9995  0.3070  0.7366
 7129TIP3    H242879   4.131   1.182   4.538  1.1771  0.1803  1.0644
 7130TIP3   OH242880   4.959   2.827   6.132 -0.1012 -0.8098 -0.1696
 7130TIP3    H142881   4.889   2.795   6.188 -0.3716 -1.0719 -0.6601
 7130TIP3    H242882   4.928   2.911   6.100 -0.5135 -1.2661 -0.9816
 7131TIP3   OH242883   2.394   5.795   2.180 -0.3283 -0.1112  0.2719
 7131TIP3    H142884   2.488   5.782   2.192 -0.4375 -0.3052  0.9786
 7131TIP3    H242885   2.365   5.718   2.131 -0.2970 -0.5948  0.9997
 7132TIP3   OH242886   2.298   6.617   2.711 -0.5400 -0.0888 -0.0040
 7132TIP3    H142887   2.248   6.565   2.775 -1.5177 -0.7200 -1.2667
 7132TIP3    H242888   2.279   6.708   2.734 -1.7711 -0.3228 -0.0913
 7133TIP3   OH242889   4.151   3.381   4.780  0.6175 -0.1918  0.3415
 7133TIP3    H142890   4.155   3.464   4.827 -1.4956 -0.0985  0.4251
 7133TIP3    H242891   4.088   3.396   4.709 -1.4864 -2.2966  1.6581
 7134TIP3   OH242892   3.620   0.251   5.905  0.0192  0.2222 -0.2262
 7134TIP3    H142893   3.568   0.321   5.944 -0.5309  1.7626 -3.5047
 7134TIP3    H242894   3.660   0.291   5.828  2.6382 -2.1147 -0.1727
 7135TIP3   OH242895   4.709   6.194   2.259 -0.3148 -0.3561  0.0267
 7135TIP3    H142896   4.787   6.220   2.210 -0.8425  1.0146 -0.1102
 7135TIP3    H242897   4.640   6.253   2.228 -2.1696 -3.5255 -2.0712
 7136TIP3   OH242898   6.011   2.528  12.338 -0.0712 -0.0083  0.1896
 7136TIP3    H142899   5.919   2.538  12.315 -0.1365 -1.7330 -0.3688
 7136TIP3    H242900   6.010   2.476  12.419  0.4237 -0.1524  0.1012
 7137TIP3   OH242901   1.118   4.564  15.839 -0.4182 -1.1869 -0.5262
 7137TIP3    H142902   1.169   4.555  15.759 -0.8990 -1.6955 -0.7750
 7137TIP3    H242903   1.140   4.651  15.872 -0.8061 -0.6708 -1.6129
 7138TIP3   OH242904   2.362   0.909  10.894  0.6579 -0.1333 -0.0384
 7138TIP3    H142905   2.422   0.949  10.831 -1.0829  0.3129 -1.4546
 7138TIP3    H242906   2.363   0.816  10.872 -0.7931  0.1741 -1.4888
 7139TIP3   OH242907   5.440   3.863   5.522  0.1500  0.4666 -0.5123
 7139TIP3    H142908   5.502   3.910   5.578  0.1452 -2.0986  1.7472
 7139TIP3    H242909   5.492   3.833   5.448  0.9593  0.8001 -0.0853
 7140TIP3   OH242910   2.149   1.590   1.091 -0.1734  0.1821 -0.0272
 7140TIP3    H142911   2.233   1.549   1.108 -0.3841  0.2741  1.2896
 7140TIP3    H242912   2.109   1.537   1.023  1.0860  0.3321 -0.8992
 7141TIP3   OH242913   0.340   4.619  10.898  0.3478  0.0312 -0.1235
 7141TIP3    H142914   0.409   4.579  10.952 -0.3228  0.9006  1.4306
 7141TIP3    H242915   0.369   4.606  10.808  0.3671 -3.5490  0.3288
 7142TIP3   OH242916   0.048   2.923   3.844  0.1529  0.0209 -0.3622
 7142TIP3    H142917   0.133   2.968   3.842  0.7933 -1.2025 -0.9978
 7142TIP3    H242918   0.070   2.830   3.835 -1.3017 -0.2346 -1.3365
 7143TIP3   OH242919   0.176   1.784  11.437  0.5197 -0.5613  0.2409
 7143TIP3    H142920   0.106   1.766  11.375  0.6432 -0.2397  0.0114
 7143TIP3    H242921   0.148   1.739  11.518 -0.2923  0.1707  0.3719
 7144TIP3   OH242922   4.738   3.566   4.215  0.7671 -0.1332  0.0042
 7144TIP3    H142923   4.649   3.531   4.213  0.8684 -0.4450  0.7364
 7144TIP3    H242924   4.727   3.659   4.199  0.1940  0.0186  1.2026
 7145TIP3   OH242925   2.169   0.764  15.870  0.0013  0.2672 -0.1143
 7145TIP3    H142926   2.203   0.683  15.908  0.4686  0.3312 -0.3943
 7145TIP3    H242927   2.245   0.804  15.827 -0.7483 -0.3684 -2.1093
 7146TIP3   OH242928   0.255   1.420  15.675  0.3005 -0.2309  0.2773
 7146TIP3    H142929   0.241   1.464  15.591 -0.8936 -1.0565  0.0214
 7146TIP3    H242930   0.218   1.480  15.740 -3.3842 -1.7557 -0.2659
 7147TIP3   OH242931   6.070   6.721   2.199 -0.2456  0.6184 -0.2275
 7147TIP3    H142932   5.992   6.719   2.144 -0.8294  1.8102  0.5309
 7147TIP3    H242933   6.083   6.814   2.219  0.9785  0.3699  0.2023
 7148TIP3   OH242934   4.490   1.482   5.966  0.0063 -0.5661  0.7236
 7148TIP3    H142935   4.487   1.453   5.875  0.2773 -0.7233  0.7637
 7148TIP3    H242936   4.582   1.471   5.991  0.4703  1.8273  0.2476
 7149TIP3   OH242937   6.560   2.638   0.577 -0.1135 -0.1548  0.1755
 7149TIP3    H142938   6.552   2.595   0.492  0.4928 -0.7293  0.4119
 7149TIP3    H242939   6.509   2.719   0.567  0.3509  0.0205 -0.8928
 7150TIP3   OH242940   5.721   1.027  13.363 -0.0133  0.1500  1.0238
 7150TIP3    H142941   5.759   1.023  13.276  0.5175  1.0088  1.2066
 7150TIP3    H242942   5.767   1.099  13.406 -0.2474 -0.2812  2.0206
 7151TIP3   OH242943   6.138   5.951   5.469 -0.1603  0.1934 -0.8513
 7151TIP3    H142944   6.163   6.033   5.512 -0.3851  0.3030 -0.9279
 7151TIP3    H242945   6.214   5.894   5.480  0.1728  0.5708 -1.2072
 7152TIP3   OH242946   2.533   6.485   2.653 -0.5668 -0.6488 -0.1095
 7152TIP3    H142947   2.502   6.447   2.735 -0.6653  1.3117  0.7731
 7152TIP3    H242948   2.464   6.547   2.627  0.1704 -0.1378 -0.8838
 7153TIP3   OH242949   6.468   3.506  12.986 -0.0901  0.5692  0.2754
 7153TIP3    H142950   6.374   3.520  12.992  0.2107  2.6108  0.6328
 7153TIP3    H242951   6.493   3.475  13.073 -0.1748  1.7677  0.7368
 7154TIP3   OH242952   2.967   1.057  13.159 -0.4221 -0.0783 -0.8848
 7154TIP3    H142953   2.975   1.023  13.249 -0.7875 -0.8107 -1.1252
 7154TIP3    H242954   3.048   1.029  13.116  0.4933  1.6794 -0.3287
 7155TIP3   OH242955   2.287   3.198  11.304  0.5008 -0.6206 -0.9717
 7155TIP3    H142956   2.240   3.150  11.373  1.4515 -0.7825 -0.4299
 7155TIP3    H242957   2.225   3.264  11.275  0.2134 -0.3238  0.2960
 7156TIP3   OH242958   4.869   0.729   4.270 -0.3737 -0.5288 -0.1847
 7156TIP3    H142959   4.936   0.794   4.288 -0.7353 -0.5749  1.3824
 7156TIP3    H242960   4.918   0.650   4.247  0.0660  0.1813 -1.7119
 7157TIP3   OH242961   2.871   4.163   5.833  0.2394  0.1165 -0.5375
 7157TIP3    H142962   2.917   4.228   5.886 -1.0636 -0.0517  0.8141
 7157TIP3    H242963   2.783   4.198   5.821 -0.9412 -2.0434  1.4561
 7158TIP3   OH242964   0.280   3.469  15.405 -0.2411 -0.5058 -0.3992
 7158TIP3    H142965   0.316   3.494  15.320 -0.2992  1.7133  0.2132
 7158TIP3    H242966   0.203   3.524  15.416  0.7208  0.4640  1.8404
 7159TIP3   OH242967   4.012   3.035  14.742 -0.0331 -0.3484  0.3027
 7159TIP3    H142968   3.976   3.082  14.817  2.8305  1.0760  0.8292
 7159TIP3    H242969   4.102   3.066  14.734  0.5570 -2.4638 -2.0902
 7160TIP3   OH242970   3.256   0.287  13.783 -0.4969  0.4624  0.1084
 7160TIP3    H142971   3.243   0.268  13.690 -0.1287  3.3898 -0.5796
 7160TIP3    H242972   3.314   0.217  13.813 -0.0322 -0.1338 -2.0366
 7161TIP3   OH242973   2.414   5.980   3.405 -0.2287  0.2377  0.4024
 7161TIP3    H142974   2.324   5.948   3.406  0.0553 -0.5511  1.5610
 7161TIP3    H242975   2.454   5.940   3.328 -0.5337 -0.3290  0.5423
 7162TIP3   OH242976   4.779   6.299  12.806 -0.2439  0.0587 -0.0876
 7162TIP3    H142977   4.813   6.250  12.731 -1.4399 -0.7534 -0.1092
 7162TIP3    H242978   4.712   6.357  12.768 -1.5110 -1.0225  0.4798
 7163TIP3   OH242979   1.640   1.677   2.242  0.4665  0.1927 -0.0924
 7163TIP3    H142980   1.624   1.624   2.164  0.0393 -1.5953  1.1749
 7163TIP3    H242981   1.576   1.748   2.237 -0.4505 -0.6661 -0.6957
 7164TIP3   OH242982   6.784   4.230   4.729  0.0483 -0.2270  0.0627
 7164TIP3    H142983   6.755   4.143   4.700 -0.2329 -1.3303  3.3863
 7164TIP3    H242984   6.880   4.221   4.736  0.1212  0.0525 -0.5570
 7165TIP3   OH242985   1.849   3.108  13.160 -0.2194 -0.5073  0.3988
 7165TIP3    H142986   1.847   3.150  13.247  0.9696  0.1685  0.1157
 7165TIP3    H242987   1.870   3.016  13.179 -0.3994 -0.4559  0.8622
 7166TIP3   OH242988   3.511   1.458   0.302 -0.3504 -0.0796 -0.9500
 7166TIP3    H142989   3.512   1.374   0.346 -0.8412  0.5668  0.3193
 7166TIP3    H242990   3.600   1.469   0.268  0.2580 -0.2336  0.5701
 7167TIP3   OH242991   4.700   5.495  16.438  0.2638  0.1122 -0.4469
 7167TIP3    H142992   4.731   5.582  16.414  1.1523 -0.4987 -1.5412
 7167TIP3    H242993   4.648   5.467  16.363 -0.8782  0.1093  0.3359
 7168TIP3   OH242994   2.998   5.974   1.747 -0.4620  0.3271  0.1407
 7168TIP3    H142995   2.990   6.067   1.767  0.2821  0.0794  1.6661
 7168TIP3    H242996   2.946   5.962   1.667 -0.0185  2.1645 -0.4528
 7169TIP3   OH242997   0.826   2.107   1.290 -0.2696  0.6683 -0.2923
 7169TIP3    H142998   0.746   2.056   1.281 -1.2423  1.9814  0.8253
 7169TIP3    H242999   0.893   2.053   1.248 -1.5958 -0.7470 -0.6377
 7170TIP3   OH243000   4.635   6.240  11.836  0.1724  0.0015 -0.0995
 7170TIP3    H143001   4.660   6.176  11.770 -0.1985  0.4387 -0.6734
 7170TIP3    H243002   4.695   6.225  11.909  1.0641 -0.0125 -0.8264
 7171TIP3   OH243003   1.684   6.370   1.220 -0.3116 -0.1606 -0.3459
 7171TIP3    H143004   1.766   6.372   1.269 -0.1542 -0.5741 -0.5851
 7171TIP3    H243005   1.650   6.459   1.225  0.6711  0.2697 -1.1151
 7172TIP3   OH243006   5.507   3.382  16.183 -0.0539 -0.6955  0.1267
 7172TIP3    H143007   5.501   3.287  16.184 -1.5463 -0.6277 -0.5462
 7172TIP3    H243008   5.444   3.412  16.248  1.7846 -0.1902  1.7428
 7173TIP3   OH243009   0.681   3.600   5.645 -0.2227  0.1258  0.2806
 7173TIP3    H143010   0.621   3.614   5.571 -0.4685  1.6085  0.7393
 7173TIP3    H243011   0.623   3.588   5.720  0.0463  1.7635  0.7609
 7174TIP3   OH243012   4.260   0.967  11.617  0.0949 -0.4364  0.4491
 7174TIP3    H143013   4.188   0.957  11.554  0.1260 -2.5920  0.6918
 7174TIP3    H243014   4.230   1.034  11.678  0.5525  2.5927 -2.4990
 7175TIP3   OH243015   1.990   2.085  13.330 -0.1490  0.2998 -0.1910
 7175TIP3    H143016   1.946   2.066  13.247 -2.5346  1.0865  0.8505
 7175TIP3    H243017   1.991   2.181  13.335  0.7625  0.2719  0.3049
 7176TIP3   OH243018   5.426   2.459   1.816  0.1049  0.1055  0.7161
 7176TIP3    H143019   5.512   2.484   1.851  0.6731  1.5008 -1.5245
 7176TIP3    H243020   5.441   2.450   1.721 -1.3482 -3.4730  0.7316
 7177TIP3   OH243021   5.588   5.237   2.489 -0.8162 -0.7856 -0.1425
 7177TIP3    H143022   5.564   5.328   2.476  2.1361  0.1260  0.3007
 7177TIP3    H243023   5.622   5.234   2.579  3.2587 -1.2738 -1.5856
 7178TIP3   OH243024   1.286   1.638  14.185  0.2960 -0.5225 -0.4754
 7178TIP3    H143025   1.214   1.641  14.248  0.8153 -0.8735  0.1416
 7178TIP3    H243026   1.250   1.591  14.110 -0.1423 -0.6313 -0.1991
 7179TIP3   OH243027   4.246   4.472   3.139  0.6507 -0.7275 -0.2806
 7179TIP3    H143028   4.204   4.516   3.213  1.1988  0.4924 -0.6955
 7179TIP3    H243029   4.339   4.469   3.161  1.0514  1.0607 -1.6098
 7180TIP3   OH243030   6.675   3.890  17.278 -0.3103 -0.5807 -0.1343
 7180TIP3    H143031   6.674   3.824  17.208 -1.7261 -0.1400 -0.5484
 7180TIP3    H243032   6.768   3.904  17.297  0.2540  1.3534 -3.8597
 7181TIP3   OH243033   3.244   6.253   0.850 -0.1808 -0.3234  0.3229
 7181TIP3    H143034   3.308   6.277   0.782  0.4178 -0.5172  0.8108
 7181TIP3    H243035   3.287   6.183   0.899  0.4169  1.4383  2.4210
 7182TIP3   OH243036   2.001   0.713  14.265  0.4658 -0.0232  0.4209
 7182TIP3    H143037   2.051   0.795  14.270 -1.8288  1.3949  0.8506
 7182TIP3    H243038   2.027   0.675  14.181  0.8935  1.6017 -0.2189
 7183TIP3   OH243039   3.699   6.596   3.563 -0.0790  0.6553 -0.5715
 7183TIP3    H143040   3.709   6.678   3.612 -0.9976 -0.1266  0.9831
 7183TIP3    H243041   3.605   6.577   3.567 -0.0706  0.2330 -2.0945
 7184TIP3   OH243042   1.842   2.073  11.383  0.1254 -0.0510 -0.1098
 7184TIP3    H143043   1.853   1.979  11.369  0.5808 -0.2966  1.7764
 7184TIP3    H243044   1.904   2.114  11.323  0.2651 -0.9695 -0.5980
 7185TIP3   OH243045   0.273   2.031   1.552  0.5474 -0.3207  0.3931
 7185TIP3    H143046   0.179   2.039   1.568  0.3058 -1.1706 -0.5540
 7185TIP3    H243047   0.294   2.104   1.494  0.6110  0.2693  1.1483
 7186TIP3   OH243048   2.931   2.096   2.206  0.5279 -0.5751 -0.3319
 7186TIP3    H143049   2.950   2.023   2.265 -1.1217 -1.9746 -1.4627
 7186TIP3    H243050   2.990   2.084   2.132  0.7035 -0.3940 -0.2210
 7187TIP3   OH243051   1.214   6.571   0.839 -0.0397 -0.7696  0.0136
 7187TIP3    H143052   1.266   6.648   0.864 -0.5981  0.0725 -1.3776
 7187TIP3    H243053   1.169   6.545   0.920  1.6886 -0.8497  0.9712
 7188TIP3   OH243054   1.738   2.056   5.828 -0.0623 -0.0237 -0.7537
 7188TIP3    H143055   1.824   2.075   5.865 -0.3754  0.1723 -0.1235
 7188TIP3    H243056   1.713   2.137   5.783 -0.3548  0.2662 -0.0804
 7189TIP3   OH243057   4.343   2.058  16.408  0.4802 -0.5222  0.0312
 7189TIP3    H143058   4.325   2.008  16.488 -2.6089 -0.7532 -0.7536
 7189TIP3    H243059   4.361   1.991  16.341 -0.7975 -0.5097 -0.3431
 7190TIP3   OH243060   3.471   3.449   4.548 -0.3191 -0.7152 -0.6421
 7190TIP3    H143061   3.526   3.524   4.529  1.3139 -1.6994  0.1625
 7190TIP3    H243062   3.436   3.424   4.462 -0.6402  0.7513 -0.9608
 7191TIP3   OH243063   3.113   4.220  13.222  0.2449 -0.0428  0.0666
 7191TIP3    H143064   3.042   4.260  13.172  2.2637  2.7519 -0.6680
 7191TIP3    H243065   3.135   4.285  13.289  0.7289 -1.7777  1.6432
 7192TIP3   OH243066   1.890   0.156  16.472  0.3498 -0.0025 -0.5879
 7192TIP3    H143067   1.925   0.118  16.552  2.1509 -0.4883 -1.5770
 7192TIP3    H243068   1.806   0.195  16.498  0.2084 -1.4618  1.1910
 7193TIP3   OH243069   0.113   2.470   1.301  0.2804  0.0729 -0.1419
 7193TIP3    H143070   0.125   2.464   1.396  1.4983 -3.0161 -0.4008
 7193TIP3    H243071   0.200   2.495   1.268  0.4251 -0.9208 -0.5465
 7194TIP3   OH243072   1.052   3.482  14.301  0.2409  0.0169  0.4091
 7194TIP3    H143073   1.145   3.479  14.280  0.7289  0.3774  2.4192
 7194TIP3    H243074   1.034   3.396  14.339 -0.0460  0.2461  0.7955
 7195TIP3   OH243075   3.103   1.713   3.004  0.2698  0.1100 -0.2113
 7195TIP3    H143076   3.032   1.767   2.967 -1.3235 -1.3877  0.5964
 7195TIP3    H243077   3.150   1.680   2.927 -0.0152  0.9668 -0.7642
 7196TIP3   OH243078   2.015   2.874  13.467 -0.3333 -0.4825  0.9867
 7196TIP3    H143079   2.088   2.864  13.528 -2.6865 -1.8763  3.6675
 7196TIP3    H243080   1.938   2.879  13.523 -2.5190 -1.1626 -1.8824
 7197TIP3   OH243081   0.124   4.964  11.004  0.5088 -0.4051 -0.1795
 7197TIP3    H143082   0.098   5.013  10.926 -0.7240  0.0753  0.5205
 7197TIP3    H243083   0.103   4.873  10.983  1.1869 -0.4227 -0.8146
 7198TIP3   OH243084   3.687   2.236   4.815  0.0953  0.1333  0.1927
 7198TIP3    H143085   3.677   2.318   4.863  0.6466 -0.4038  1.2211
 7198TIP3    H243086   3.608   2.186   4.835  1.1592 -0.8445  2.0127
 7199TIP3   OH243087   4.389   3.230   0.150 -0.2054  0.4926 -0.1481
 7199TIP3    H143088   4.358   3.200   0.235  1.1879  1.3100  0.6750
 7199TIP3    H243089   4.350   3.317   0.141  1.8919  1.5862  0.9577
 7200TIP3   OH243090   5.889   0.513   4.976 -0.1772  0.1967 -0.3304
 7200TIP3    H143091   5.797   0.529   4.997  0.3778  0.9538  1.7387
 7200TIP3    H243092   5.917   0.590   4.928 -0.8225 -0.3926 -1.6593
 7201TIP3   OH243093   4.174   4.314   5.510  0.1617 -0.6218 -0.9128
 7201TIP3    H143094   4.134   4.293   5.426 -1.9887 -0.3176  0.0052
 7201TIP3    H243095   4.155   4.407   5.524 -1.5908 -1.2443  1.0007
 7202TIP3   OH243096   4.405   0.282   0.401 -0.8254  0.2623 -0.6142
 7202TIP3    H143097   4.468   0.248   0.465  1.6181 -1.2045 -3.6677
 7202TIP3    H243098   4.426   0.236   0.320 -3.7836  2.1249 -2.5399
 7203TIP3   OH243099   6.758   4.300  17.187  0.3192  0.0198 -0.8810
 7203TIP3    H143100   6.684   4.266  17.137  0.0852 -0.4697 -0.2084
 7203TIP3    H243101   6.758   4.248  17.268  1.7776 -0.4169 -1.1441
 7204TIP3   OH243102   4.235   0.818  11.205 -0.1740  0.4456 -0.1828
 7204TIP3    H143103   4.234   0.737  11.257 -0.0942  1.6393  1.6921
 7204TIP3    H243104   4.316   0.862  11.232  1.2819 -0.1478 -3.2789
 7205TIP3   OH243105   5.790   5.210   6.684  0.0471 -0.0200  0.6838
 7205TIP3    H143106   5.708   5.218   6.635 -0.8415 -1.4062  1.8703
 7205TIP3    H243107   5.810   5.116   6.681  2.0554  0.4226 -0.2950
 7206TIP3   OH243108   4.726   1.469  11.700 -0.1982  0.7229  0.4889
 7206TIP3    H143109   4.650   1.411  11.688  1.7811 -1.9406  0.2750
 7206TIP3    H243110   4.743   1.505  11.613 -0.7793  0.7644  0.3913
 7207TIP3   OH243111   5.603   2.177  13.626  0.2370 -0.4521  0.0594
 7207TIP3    H143112   5.548   2.153  13.551 -0.1358 -0.4105  0.3123
 7207TIP3    H243113   5.662   2.243  13.592 -0.4232  0.1065 -0.0220
 7208TIP3   OH243114   2.251   4.052  12.079  0.5440  0.0445 -0.3170
 7208TIP3    H143115   2.237   4.075  12.171  1.5678 -0.3018 -0.0744
 7208TIP3    H243116   2.222   3.961  12.072  1.6384 -0.3317 -0.0511
 7209TIP3   OH243117   0.759   6.252  16.092 -0.1888  0.0302  0.0871
 7209TIP3    H143118   0.688   6.315  16.098 -1.1859 -0.9593 -0.9170
 7209TIP3    H243119   0.716   6.167  16.101  1.1101 -0.5113  1.2819
 7210TIP3   OH243120   0.403   6.337   2.023 -0.2539 -0.2153 -0.4103
 7210TIP3    H143121   0.477   6.395   2.003  0.2185 -0.0773  1.6666
 7210TIP3    H243122   0.420   6.257   1.974  0.6431  0.2757 -0.9004
 7211TIP3   OH243123   2.268   5.404   5.566  0.5110  0.6670  0.8227
 7211TIP3    H143124   2.303   5.354   5.639 -0.6050  0.4194  1.2020
 7211TIP3    H243125   2.173   5.396   5.575  0.3579  0.9259 -0.4522
 7212TIP3   OH243126   5.837   2.750   1.804  0.2791  0.1362  0.1751
 7212TIP3    H143127   5.918   2.800   1.817  1.0154 -0.6956 -1.1582
 7212TIP3    H243128   5.792   2.757   1.888  0.6107  2.6053  0.2050
 7213TIP3   OH243129   5.066   5.360   1.465  0.5269 -0.6145 -0.3536
 7213TIP3    H143130   5.105   5.419   1.530  0.3217 -1.2217  0.3256
 7213TIP3    H243131   5.093   5.397   1.381  1.2369 -0.1153  0.0802
 7214TIP3   OH243132   3.250   4.570  15.909 -0.0387  0.1132 -0.1816
 7214TIP3    H143133   3.267   4.476  15.913  2.5115  0.5074 -0.8014
 7214TIP3    H243134   3.255   4.599  16.000 -3.0555 -0.6742  0.2780
 7215TIP3   OH243135   6.051   1.263   3.625  0.3307 -0.3508 -0.6672
 7215TIP3    H143136   6.105   1.319   3.569 -1.5066  3.0227  0.7239
 7215TIP3    H243137   5.971   1.248   3.575  0.0885 -0.2099 -0.3279
 7216TIP3   OH243138   6.721   0.090  13.481  0.7219 -0.1357  0.4133
 7216TIP3    H143139   6.659   0.018  13.475  1.3351 -0.6989  0.7318
 7216TIP3    H243140   6.667   0.168  13.491  0.0671 -0.6151  0.6213
 7217TIP3   OH243141   4.320   1.811   5.868 -0.3116 -0.2887 -0.6555
 7217TIP3    H143142   4.362   1.807   5.954  0.2859 -1.4249 -0.9901
 7217TIP3    H243143   4.383   1.769   5.808 -0.6416  0.6401 -1.6773
 7218TIP3   OH243144   2.451   0.878  12.785 -0.5596 -0.0432 -0.4172
 7218TIP3    H143145   2.544   0.859  12.774  0.0180  2.0641  0.5648
 7218TIP3    H243146   2.434   0.862  12.878 -1.0210  0.1523 -0.4663
 7219TIP3   OH243147   3.879   5.989  14.793  0.0664  0.6406 -0.1003
 7219TIP3    H143148   3.961   6.009  14.838 -0.3661  2.6148 -0.1485
 7219TIP3    H243149   3.852   6.072  14.754 -2.0039  0.0322 -0.0105
 7220TIP3   OH243150   2.095   1.739  10.874  0.2911 -0.1638 -0.1606
 7220TIP3    H143151   2.033   1.667  10.863  0.4912 -0.4238  0.3616
 7220TIP3    H243152   2.064   1.807  10.815 -0.4439 -0.3265  0.0259
 7221TIP3   OH243153   3.874   6.085   0.087  0.0862  0.2876  0.3827
 7221TIP3    H143154   3.949   6.089   0.146  0.3976 -0.0936  0.0156
 7221TIP3    H243155   3.909   6.046   0.006 -0.3504  0.7368 -0.0268
 7222TIP3   OH243156   3.617   4.301   3.763 -0.1823  0.2299  0.6391
 7222TIP3    H143157   3.608   4.206   3.774  2.7287 -0.1414  0.2402
 7222TIP3    H243158   3.708   4.313   3.736 -0.5734  3.1336  0.5101
 7223TIP3   OH243159   3.157   6.730  16.184 -0.0895  0.0722 -0.7312
 7223TIP3    H143160   3.108   6.685  16.115 -0.2197  1.7639 -1.7792
 7223TIP3    H243161   3.096   6.796  16.219  0.2574 -0.2096  0.4249
 7224TIP3   OH243162   5.951   6.778  14.342 -0.0634  0.2014  0.1780
 7224TIP3    H143163   5.906   6.841  14.286 -0.4989 -1.5597 -1.4890
 7224TIP3    H243164   6.042   6.779  14.311  0.0720  0.4779  0.5804
 7225TIP3   OH243165   4.931   6.155   6.705 -0.4101 -0.0958  0.5217
 7225TIP3    H143166   5.003   6.098   6.734  1.2040  0.7555 -1.6957
 7225TIP3    H243167   4.855   6.122   6.752  1.4226 -0.9725  2.9992
 7226TIP3   OH243168   2.373   1.186   3.308 -0.0122  0.1338  0.4652
 7226TIP3    H143169   2.407   1.127   3.376 -0.6826 -0.6113  0.1696
 7226TIP3    H243170   2.293   1.222   3.346 -0.1595  0.0471  0.2384
 7227TIP3   OH243171   4.252   3.011  10.388 -0.4750  0.2306  0.1771
 7227TIP3    H143172   4.161   2.985  10.376 -0.2566 -0.3371 -0.2752
 7227TIP3    H243173   4.247   3.096  10.432 -1.2286  0.4583 -0.3290
 7228TIP3   OH243174   3.637   0.203   1.681  0.0540  0.2916 -0.3739
 7228TIP3    H143175   3.589   0.127   1.715 -0.1054  0.7435  0.4104
 7228TIP3    H243176   3.599   0.278   1.726  0.4024  0.8197 -0.9483
 7229TIP3   OH243177   1.512   3.293   2.108  0.0920  0.2102 -0.1970
 7229TIP3    H143178   1.473   3.269   2.025  2.0851 -0.2023 -1.0423
 7229TIP3    H243179   1.482   3.383   2.123 -1.3042 -0.1531 -0.7059
 7230TIP3   OH243180   0.939   2.043   0.371  0.5121  0.1912  0.6066
 7230TIP3    H143181   0.961   2.100   0.445  1.6222 -0.9692  1.1912
 7230TIP3    H243182   0.981   2.085   0.296  0.5464  0.6402  0.8702
 7231TIP3   OH243183   0.887   6.228  16.514 -0.1784 -0.4707 -0.1680
 7231TIP3    H143184   0.931   6.170  16.452 -1.6933 -1.1983 -0.5831
 7231TIP3    H243185   0.870   6.308  16.465  0.2853 -0.3435 -0.1297
 7232TIP3   OH243186   0.149   5.304   3.608  0.0532 -0.4032 -0.5993
 7232TIP3    H143187   0.238   5.340   3.603  0.3647 -1.1866 -0.6851
 7232TIP3    H243188   0.158   5.214   3.578 -1.1288  0.1136 -2.5900
 7233TIP3   OH243189   3.203   4.159  16.894 -0.5903  0.1986 -0.6202
 7233TIP3    H143190   3.229   4.231  16.952 -0.7803  1.5808 -2.2166
 7233TIP3    H243191   3.123   4.190  16.852 -1.3549 -1.4613 -0.4415
 7234TIP3   OH243192   1.577   5.214  14.375  0.0000  0.3887  0.2303
 7234TIP3    H143193   1.606   5.125  14.353 -1.8839 -0.0920 -0.3915
 7234TIP3    H243194   1.566   5.213  14.470 -0.2569 -0.1159  0.1969
 7235TIP3   OH243195   5.822   6.019   1.040  0.0703  0.2808  0.1990
 7235TIP3    H143196   5.770   5.952   1.085  1.9927 -0.5682  1.2106
 7235TIP3    H243197   5.900   5.973   1.010  0.6308  1.7066 -0.5884
 7236TIP3   OH243198   3.110   5.537  16.746 -0.1056 -0.5041  0.9042
 7236TIP3    H143199   3.142   5.529  16.835 -0.5898  1.9559  1.3439
 7236TIP3    H243200   3.099   5.631  16.732 -0.7368 -0.8756 -1.4984
 7237TIP3   OH243201   3.933   4.970  16.299  0.4314 -0.0873 -0.3130
 7237TIP3    H143202   3.937   5.043  16.237 -0.2901  1.4816  1.4080
 7237TIP3    H243203   4.023   4.958  16.328  0.5765  0.0684 -0.7036
 7238TIP3   OH243204   4.230   6.207  16.701 -0.0923  0.0945  0.0020
 7238TIP3    H143205   4.141   6.238  16.683  0.3414  0.6239 -1.2340
 7238TIP3    H243206   4.286   6.284  16.688  0.5890 -0.3259  0.4169
 7239TIP3   OH243207   6.287   2.161   1.452 -0.4473 -0.0924 -0.1319
 7239TIP3    H143208   6.241   2.080   1.476 -0.5452 -0.7409 -2.3737
 7239TIP3    H243209   6.251   2.184   1.366  0.1843  1.8858  0.1107
 7240TIP3   OH243210   1.359   4.513  12.746  0.1575 -0.5792 -0.4701
 7240TIP3    H143211   1.391   4.599  12.772 -0.9842 -0.5396  0.8791
 7240TIP3    H243212   1.345   4.467  12.829 -0.3195 -1.6650 -1.1439
 7241TIP3   OH243213   3.670   0.863   2.639  0.7670  0.4414  0.3175
 7241TIP3    H143214   3.682   0.892   2.549  0.7198  1.1831  0.5485
 7241TIP3    H243215   3.595   0.803   2.635  0.0693  1.3072  0.0309
 7242TIP3   OH243216   4.555   5.905  14.009  0.3475 -0.7041 -0.0102
 7242TIP3    H143217   4.542   5.899  13.914 -1.3703  0.3725  0.1362
 7242TIP3    H243218   4.567   5.815  14.038  0.0629 -1.1162 -1.1449
 7243TIP3   OH243219   3.247   4.017   1.926  0.2114  0.5443 -0.0609
 7243TIP3    H143220   3.330   4.048   1.891  1.4239 -1.4356  0.9804
 7243TIP3    H243221   3.197   4.096   1.944  2.1991  1.7782  0.0915
 7244TIP3   OH243222   5.585   5.623   0.999  0.2451  0.2945 -0.6702
 7244TIP3    H143223   5.618   5.686   1.064  1.0991 -0.5620 -0.2626
 7244TIP3    H243224   5.619   5.539   1.029 -1.0755 -0.3956 -1.0890
 7245TIP3   OH243225   2.324   6.625  13.082  0.1740  0.1657  0.2454
 7245TIP3    H143226   2.357   6.540  13.052 -1.6849 -0.1952 -0.8753
 7245TIP3    H243227   2.229   6.620  13.068  0.0115  2.3259  0.4185
 7246TIP3   OH243228   0.479   0.185   5.855  0.1330  0.1225 -0.3746
 7246TIP3    H143229   0.559   0.133   5.868 -1.9726 -3.1422  0.2486
 7246TIP3    H243230   0.461   0.179   5.761 -0.0403 -0.1828 -0.3231
 7247TIP3   OH243231   1.452   1.091   5.768 -0.0331 -0.3360 -0.3414
 7247TIP3    H143232   1.393   1.160   5.798 -0.2942  0.0527 -1.7244
 7247TIP3    H243233   1.478   1.118   5.680 -1.1852 -2.6483 -1.4452
 7248TIP3   OH243234   4.223   5.019   2.061  0.3442 -0.6689 -0.3433
 7248TIP3    H143235   4.162   4.970   2.116 -0.3997  0.4654 -0.1358
 7248TIP3    H243236   4.191   5.006   1.972 -0.9867  0.9429 -0.1381
 7249TIP3   OH243237   5.725   3.486  13.304 -0.2481 -0.2817  0.3387
 7249TIP3    H143238   5.705   3.580  13.303  0.5482 -0.0986  1.1057
 7249TIP3    H243239   5.786   3.475  13.377  0.1307 -1.3060 -0.1241
 7250TIP3   OH243240   6.534   0.271  12.619 -0.0118  0.8375  0.1184
 7250TIP3    H143241   6.475   0.197  12.636  1.8549 -0.8192 -0.3320
 7250TIP3    H243242   6.537   0.278  12.524  0.2547  1.1048  0.1473
 7251TIP3   OH243243   4.029   1.275  13.246  0.3192  0.3622  0.7326
 7251TIP3    H143244   4.003   1.226  13.168  0.0402 -0.7186  1.4915
 7251TIP3    H243245   3.970   1.351  13.248  0.6209  0.6353 -0.3375
 7252TIP3   OH243246   2.501   0.459  10.975 -0.2241 -0.7697  0.2701
 7252TIP3    H143247   2.425   0.420  11.019 -2.3825  0.5601 -2.1260
 7252TIP3    H243248   2.552   0.385  10.944 -0.8482 -1.6861  1.4207
 7253TIP3   OH243249   3.189   4.897   3.112  0.0456 -0.3427  0.2628
 7253TIP3    H143250   3.158   4.809   3.133 -0.7758 -0.1282 -0.0323
 7253TIP3    H243251   3.117   4.936   3.063 -0.5043  1.2621  2.2825
 7254TIP3   OH243252   5.253   1.056   1.341 -0.4552  0.4807  0.2350
 7254TIP3    H143253   5.296   1.098   1.415 -0.1015 -0.6967  0.7039
 7254TIP3    H243254   5.312   1.071   1.267  0.1851 -0.1053  0.6240
 7255TIP3   OH243255   4.476   5.776  15.380 -0.3718  0.4005 -0.2863
 7255TIP3    H143256   4.402   5.737  15.334 -1.4621  1.7320  0.2884
 7255TIP3    H243257   4.478   5.867  15.349  0.2491  0.7102  0.6245
 7256TIP3   OH243258   2.164   4.361  10.620 -0.0284  0.3720 -0.0996
 7256TIP3    H143259   2.225   4.295  10.653 -1.0069 -1.2291 -1.4475
 7256TIP3    H243260   2.098   4.369  10.688 -0.6167 -1.0109 -0.4942
 7257TIP3   OH243261   6.480   0.168  15.549 -0.7365 -0.7771  0.0814
 7257TIP3    H143262   6.491   0.124  15.464 -0.1819 -0.1905 -0.1546
 7257TIP3    H243263   6.562   0.152  15.595 -0.6433 -0.2281  0.1061
 7258TIP3   OH243264   3.150   4.008  13.945 -0.0188 -0.3908  0.5463
 7258TIP3    H143265   3.235   3.991  13.905  0.1738  1.0406  0.3224
 7258TIP3    H243266   3.095   4.036  13.872 -0.5118 -0.7096  0.7934
 7259TIP3   OH243267   1.686   4.979  14.299  0.5901  0.2156 -0.0384
 7259TIP3    H143268   1.720   4.914  14.239 -0.5546 -0.6668  0.2599
 7259TIP3    H243269   1.730   4.960  14.382  0.7686  0.2514 -0.1245
 7260TIP3   OH243270   0.932   2.393  11.772 -0.0845 -0.0683 -0.2679
 7260TIP3    H143271   0.851   2.347  11.749 -0.0072 -0.7554  0.8072
 7260TIP3    H243272   0.980   2.399  11.690 -1.1208  0.1369 -0.8697
 7261TIP3   OH243273   5.004   3.390  12.577 -0.0014 -0.3805  0.4108
 7261TIP3    H143274   4.968   3.308  12.611  2.1212 -1.1090  0.9852
 7261TIP3    H243275   5.047   3.431  12.652 -1.3141  1.4435  0.2105
 7262TIP3   OH243276   3.687   3.944  13.154  0.2049  0.1923 -0.2068
 7262TIP3    H143277   3.765   3.893  13.177 -1.7686 -2.7085  0.3801
 7262TIP3    H243278   3.661   3.909  13.069 -0.8115  0.7153 -0.1152
 7263TIP3   OH243279   2.366   2.602  14.590  0.6432  0.0230  0.6257
 7263TIP3    H143280   2.446   2.583  14.541 -0.2637 -0.1757 -0.8159
 7263TIP3    H243281   2.316   2.521  14.587 -0.1694  0.5194  0.3965
 7264TIP3   OH243282   0.814   3.927   2.176 -0.2376  0.8172  0.3333
 7264TIP3    H143283   0.762   3.881   2.242 -1.2380  0.3258 -0.7801
 7264TIP3    H243284   0.757   3.997   2.145 -0.1874  0.3743 -0.7785
 7265TIP3   OH243285   3.185   3.020   4.852  0.7230 -0.5097  0.4437
 7265TIP3    H143286   3.139   2.940   4.876  1.6905 -1.7873 -1.8402
 7265TIP3    H243287   3.202   3.064   4.935 -1.3928 -1.7788  1.5893
 7266TIP3   OH243288   1.498   3.742  12.283  0.5412 -0.4650  0.3932
 7266TIP3    H143289   1.509   3.830  12.246 -0.7881 -0.2292  0.5468
 7266TIP3    H243290   1.433   3.753  12.351 -0.1394 -1.7045 -0.0575
 7267TIP3   OH243291   0.795   2.910   2.398  0.0254  0.2188 -0.0474
 7267TIP3    H143292   0.886   2.887   2.383 -0.0505 -0.3015  0.2872
 7267TIP3    H243293   0.775   2.874   2.484 -0.0288  1.7193  0.5877
 7268TIP3   OH243294   1.709   1.684  12.065 -0.3038 -0.2583 -0.4924
 7268TIP3    H143295   1.621   1.658  12.037 -0.9592  0.2458  1.0690
 7268TIP3    H243296   1.731   1.623  12.135  0.8100 -0.7049 -1.2239
 7269TIP3   OH243297   1.556   4.764   5.766  0.1150  0.3618  0.1495
 7269TIP3    H143298   1.509   4.711   5.701 -0.2056 -0.4328  1.0169
 7269TIP3    H243299   1.627   4.708   5.795  0.5587  0.9078  0.1149
 7270TIP3   OH243300   0.198   5.229   3.339 -0.6945  0.3541 -0.0230
 7270TIP3    H143301   0.196   5.162   3.407 -0.8107  0.5978  0.2129
 7270TIP3    H243302   0.273   5.284   3.362 -0.9210  0.6193  0.0805
 7271TIP3   OH243303   2.240   1.018  13.533 -0.1963 -0.3828  0.0520
 7271TIP3    H143304   2.265   0.929  13.556 -0.1484 -0.6728 -1.0804
 7271TIP3    H243305   2.150   1.027  13.563 -0.3966 -1.0145 -0.3613
 7272TIP3   OH243306   1.000   5.234   5.518  0.4851 -0.0786  0.4233
 7272TIP3    H143307   1.025   5.274   5.601  2.6585 -2.0905  0.7915
 7272TIP3    H243308   0.974   5.308   5.463 -0.1768  1.3608  2.5850
 7273TIP3   OH243309   4.837   5.712  15.643 -0.4161 -0.2401 -0.1929
 7273TIP3    H143310   4.845   5.749  15.731  1.9697  1.7905 -1.2175
 7273TIP3    H243311   4.926   5.688  15.619 -0.8491  0.3573 -2.5371
 7274TIP3   OH243312   2.673   2.702   0.233  0.0204 -0.1137 -0.3094
 7274TIP3    H143313   2.763   2.669   0.239  0.2989  0.5930 -0.5974
 7274TIP3    H243314   2.620   2.636   0.279  0.7352 -0.3127  0.2333
 7275TIP3   OH243315   4.429   6.614  13.578 -0.0556  0.5307  0.3655
 7275TIP3    H143316   4.400   6.705  13.566 -0.7752  0.2369 -0.0893
 7275TIP3    H243317   4.520   6.615  13.548 -0.4479  0.8174 -0.8303
 7276TIP3   OH243318   5.071   5.461   4.438 -0.7331  0.1202  0.6902
 7276TIP3    H143319   5.114   5.479   4.354 -1.7974 -1.3054 -0.1709
 7276TIP3    H243320   5.122   5.389   4.476  0.7228  1.8140  2.0250
 7277TIP3   OH243321   2.465   1.575  14.258 -0.3473  0.3001  0.3703
 7277TIP3    H143322   2.470   1.482  14.280 -1.2623 -0.3959 -2.2401
 7277TIP3    H243323   2.540   1.614  14.303  0.7960 -1.9051  0.4481
 7278TIP3   OH243324   2.688   5.515  16.256  0.5265  0.2206 -0.2045
 7278TIP3    H143325   2.634   5.587  16.222 -1.3217 -0.3391  1.4478
 7278TIP3    H243326   2.724   5.474  16.177 -0.7715  1.1427 -1.3230
 7279TIP3   OH243327   2.076   6.264  11.365 -0.1504  0.0142  0.0991
 7279TIP3    H143328   2.002   6.262  11.425 -0.7747 -1.3705 -0.7082
 7279TIP3    H243329   2.077   6.178  11.325  1.0791  0.4792 -0.9010
 7280TIP3   OH243330   5.138   5.749   4.150  0.1319 -0.2089  0.2453
 7280TIP3    H143331   5.087   5.668   4.139 -0.9072  0.3615  0.8166
 7280TIP3    H243332   5.226   5.718   4.172 -0.0825 -1.1984 -0.2464
 7281TIP3   OH243333   1.268   2.360   0.760 -0.4262 -0.2507 -0.3260
 7281TIP3    H143334   1.304   2.313   0.684 -1.8642 -1.0666 -0.5247
 7281TIP3    H243335   1.276   2.452   0.737 -1.4553 -0.4999 -1.7800
 7282TIP3   OH243336   1.551   3.078   0.732  0.4243  0.2914 -0.5452
 7282TIP3    H143337   1.582   3.120   0.812  1.9074  0.1774 -1.0460
 7282TIP3    H243338   1.456   3.078   0.740  0.4996  1.6586  0.5208
 7283TIP3   OH243339   5.256   2.799  13.464 -0.0339  0.4459  0.0061
 7283TIP3    H143340   5.253   2.714  13.420  0.4694 -1.4353  3.4751
 7283TIP3    H243341   5.345   2.830  13.450  0.1082 -0.1096 -0.3440
 7284TIP3   OH243342   5.048   0.935  12.360 -0.3603  0.2829 -0.2638
 7284TIP3    H143343   5.036   0.846  12.392  2.1903  0.3753  1.1379
 7284TIP3    H243344   5.085   0.924  12.273  0.9135 -0.0852  0.3016
 7285TIP3   OH243345   0.073   2.985   2.355 -0.3046  0.5464  0.0321
 7285TIP3    H143346  -0.011   2.940   2.364 -1.0963  2.1323  0.6979
 7285TIP3    H243347   0.050   3.072   2.322  1.1122  0.8301 -0.2151
 7286TIP3   OH243348   5.838   3.745   3.655 -0.3651 -0.0831 -0.0365
 7286TIP3    H143349   5.857   3.736   3.561 -0.5749  1.5590 -0.2593
 7286TIP3    H243350   5.772   3.814   3.659  0.7307  0.9101  1.4287
 7287TIP3   OH243351   3.067   5.992   3.057  0.1886 -0.2152 -0.6827
 7287TIP3    H143352   3.092   5.908   3.019  0.4616  0.3032 -1.6509
 7287TIP3    H243353   3.119   5.999   3.137  0.7668 -0.5901 -1.0271
 7288TIP3   OH243354   5.036   2.727  15.165  0.4079 -0.4109  0.4868
 7288TIP3    H143355   5.045   2.766  15.078  2.4148  2.1462  1.7364
 7288TIP3    H243356   5.101   2.657  15.166  0.9683  0.0968  0.1920
 7289TIP3   OH243357   6.291   5.272   3.535 -0.5151  0.0685  0.4367
 7289TIP3    H143358   6.344   5.337   3.580  0.4376  0.0338 -0.6069
 7289TIP3    H243359   6.354   5.216   3.489 -1.3534 -1.2585  0.8784
 7290TIP3   OH243360   1.395   6.110  15.615 -0.4211 -0.8319  0.0869
 7290TIP3    H143361   1.320   6.071  15.570 -0.3752  1.6710 -2.2956
 7290TIP3    H243362   1.466   6.107  15.550  0.7172 -0.6028  1.3111
 7291TIP3   OH243363   2.359   4.833  16.715 -0.3199 -0.0719  0.2531
 7291TIP3    H143364   2.439   4.789  16.685 -0.7021  0.2047 -1.2495
 7291TIP3    H243365   2.332   4.784  16.793  0.7722 -0.7825  0.1897
 7292TIP3   OH243366   5.856   2.824   5.947  0.2749 -0.1704 -1.1883
 7292TIP3    H143367   5.837   2.807   6.039  1.3670  1.4056 -0.6603
 7292TIP3    H243368   5.874   2.737   5.910 -0.2090 -0.8130  0.0669
 7293TIP3   OH243369   0.254   2.295   2.671  0.5563  0.1795  0.1025
 7293TIP3    H143370   0.213   2.284   2.757  0.8301 -1.3089  0.0529
 7293TIP3    H243371   0.328   2.353   2.687 -0.7618  1.7963  0.4351
 7294TIP3   OH243372   3.750   5.494   5.934 -0.0025  0.3863 -0.3942
 7294TIP3    H143373   3.681   5.428   5.927 -0.2099  0.6237 -0.5808
 7294TIP3    H243374   3.705   5.574   5.962  0.1792  0.5742 -0.6392
 7295TIP3   OH243375   0.766   0.497   4.159 -0.7797 -0.2783  0.1258
 7295TIP3    H143376   0.812   0.419   4.129  1.1591  0.9370 -0.0958
 7295TIP3    H243377   0.779   0.498   4.254 -0.1178  0.2024  0.0332
 7296TIP3   OH243378   5.007   4.224  15.208 -0.2501 -0.2763 -0.3611
 7296TIP3    H143379   4.934   4.188  15.258  0.5859  1.1411  1.9899
 7296TIP3    H243380   5.058   4.273  15.273  0.9066  1.6085 -2.6116
 7297TIP3   OH243381   6.741   3.988  16.192  0.5724 -0.1127  0.0926
 7297TIP3    H143382   6.650   3.999  16.165  0.1094 -1.1987  1.1695
 7297TIP3    H243383   6.782   3.942  16.119  0.1611  0.0487 -0.2430
 7298TIP3   OH243384   5.775   3.434  11.530 -0.5789 -0.3188 -0.4301
 7298TIP3    H143385   5.754   3.388  11.449 -2.3837  1.0508 -0.7825
 7298TIP3    H243386   5.691   3.441  11.576  0.2168 -0.0781  1.0218
 7299TIP3   OH243387   0.934   6.677  15.427 -0.1776  0.3468  0.5940
 7299TIP3    H143388   0.899   6.738  15.362 -2.0551  1.3933  2.5206
 7299TIP3    H243389   0.916   6.591  15.391  0.9372  0.8954 -1.3599
 7300TIP3   OH243390   6.367   0.449   0.482  0.8481  0.0183 -0.3146
 7300TIP3    H143391   6.347   0.464   0.575 -0.4140 -0.6303 -0.4726
 7300TIP3    H243392   6.286   0.470   0.436  0.8600 -1.5323 -1.0864
 7301TIP3   OH243393   2.406   0.142   2.385  0.3465  0.3383 -0.1324
 7301TIP3    H143394   2.461   0.085   2.441 -0.2366  0.0861  0.1842
 7301TIP3    H243395   2.333   0.167   2.441 -0.3716 -0.1152 -0.8676
 7302TIP3   OH243396   0.224   6.216  14.580  0.7786 -0.1012 -0.4877
 7302TIP3    H143397   0.142   6.263  14.564  0.2509 -1.2974 -1.3846
 7302TIP3    H243398   0.265   6.263  14.652 -0.8786  0.2998  0.2241
 7303TIP3   OH243399   4.830   4.629  13.553  0.0861 -0.7846 -0.1895
 7303TIP3    H143400   4.766   4.651  13.621  0.6886  0.4980 -0.0213
 7303TIP3    H243401   4.812   4.692  13.483 -0.1802 -1.7557 -1.0008
 7304TIP3   OH243402   0.796   5.160  11.306  0.2720  0.3556  0.0513
 7304TIP3    H143403   0.808   5.130  11.396 -0.3285 -1.5232 -0.4794
 7304TIP3    H243404   0.864   5.226  11.294  0.8773  0.0465  1.6171
 7305TIP3   OH243405   3.088   3.343   5.581 -1.2806  1.1140  1.1273
 7305TIP3    H143406   3.064   3.261   5.623  0.2705  1.0013  1.8442
 7305TIP3    H243407   3.148   3.385   5.643 -1.4880  2.4566  0.4510
 7306TIP3   OH243408   6.779   4.586  16.810 -0.7518 -0.2551  0.0262
 7306TIP3    H143409   6.866   4.556  16.837 -0.3647 -0.8502 -1.8065
 7306TIP3    H243410   6.768   4.670  16.854  0.6372 -0.3027  0.4968
 7307TIP3   OH243411   0.997   5.265   4.679 -0.0167  0.0091 -0.3528
 7307TIP3    H143412   1.000   5.170   4.689 -0.4387  0.0084 -0.2046
 7307TIP3    H243413   1.052   5.299   4.750  0.1791 -0.1270 -0.4399
 7308TIP3   OH243414   3.768   1.114   4.374  0.8116  0.3107  0.8452
 7308TIP3    H143415   3.833   1.046   4.361 -1.1920 -1.3012 -0.9785
 7308TIP3    H243416   3.714   1.083   4.447  0.5452  0.4468  0.7092
 7309TIP3   OH243417   6.159   6.376   4.626 -0.5217 -0.1239  0.4885
 7309TIP3    H143418   6.145   6.303   4.566  1.0899  1.5542 -2.0501
 7309TIP3    H243419   6.251   6.370   4.651  0.1035  1.9319 -1.1143
 7310TIP3   OH243420   3.260   0.325   0.607 -0.2665 -0.0118 -0.6059
 7310TIP3    H143421   3.206   0.403   0.594 -0.6635  0.2327  2.0993
 7310TIP3    H243422   3.317   0.348   0.681  0.2646 -1.9334 -0.3913
 7311TIP3   OH243423   4.557   4.459  12.221  0.4824 -0.6120  0.6095
 7311TIP3    H143424   4.648   4.487  12.233  0.5146 -0.9761  1.2087
 7311TIP3    H243425   4.531   4.424  12.306 -0.6430  0.6983  0.8396
 7312TIP3   OH243426   5.916   5.357   3.652 -0.0843 -0.6023 -0.8395
 7312TIP3    H143427   5.904   5.315   3.737  0.8270  0.6359 -0.0763
 7312TIP3    H243428   5.921   5.284   3.590  1.0031 -1.6138  0.3875
 7313TIP3   OH243429   0.471   2.488   0.131  0.3423  0.5940  0.2324
 7313TIP3    H143430   0.535   2.427   0.167  0.3835 -1.3936 -3.0103
 7313TIP3    H243431   0.387   2.443   0.142 -0.0702  1.5398  1.0370
 7314TIP3   OH243432   4.512   3.826   1.481  0.2533  0.4220  0.3297
 7314TIP3    H143433   4.584   3.890   1.481  0.3308  0.3357  1.2990
 7314TIP3    H243434   4.488   3.817   1.573 -1.5852  1.1097 -0.0611
 7315TIP3   OH243435   5.063   0.203  10.940  0.5564  0.4960  0.4631
 7315TIP3    H143436   5.027   0.160  10.863 -0.2649  1.1104  0.4892
 7315TIP3    H243437   5.006   0.279  10.953  0.9623  0.6424  1.4086
 7316TIP3   OH243438   0.808   1.518  13.282  1.1420  0.5574  0.3632
 7316TIP3    H143439   0.757   1.534  13.203 -0.6725 -0.2509  1.3403
 7316TIP3    H243440   0.865   1.595  13.289 -0.1417  1.6279 -0.6031
 7317TIP3   OH243441   6.034   5.923  15.895  0.2332  0.2328  0.0590
 7317TIP3    H143442   5.982   5.868  15.836 -0.6674  0.3158  0.7678
 7317TIP3    H243443   5.986   6.005  15.900  0.8586  0.6021  0.0898
 7318TIP3   OH243444   3.924   2.437   0.803  0.4540  0.5212  0.0609
 7318TIP3    H143445   3.896   2.360   0.852  0.6015 -0.0195 -0.6959
 7318TIP3    H243446   3.987   2.480   0.861  0.5249 -0.0357  0.4065
 7319TIP3   OH243447   0.489   5.365   5.523  0.2635  0.0212 -0.0324
 7319TIP3    H143448   0.448   5.341   5.439  0.6665  2.2428 -0.8806
 7319TIP3    H243449   0.562   5.421   5.499  1.2968 -0.5368  1.7390
 7320TIP3   OH243450   2.042   3.963  16.357 -0.1036  0.0461  0.1347
 7320TIP3    H143451   2.065   3.959  16.265  1.2406  0.7388  0.4249
 7320TIP3    H243452   1.999   4.048  16.368 -0.3959 -0.1003  0.1052
 7321TIP3   OH243453   1.592   2.680  12.422 -0.0866 -0.3556  0.3364
 7321TIP3    H143454   1.566   2.771  12.438  1.5611  0.4772 -1.5170
 7321TIP3    H243455   1.510   2.630  12.429 -1.1263  1.3496  0.6506
 7322TIP3   OH243456   4.835   6.525  13.542 -0.3619  0.2207  0.0327
 7322TIP3    H143457   4.892   6.514  13.619 -0.3027 -0.2328 -0.0729
 7322TIP3    H243458   4.783   6.602  13.562 -0.5587 -0.0674  0.6700
 7323TIP3   OH243459   0.025   3.204   5.202  0.1982  0.0060  0.1268
 7323TIP3    H143460  -0.052   3.257   5.223  1.5359  1.7493  0.6553
 7323TIP3    H243461   0.062   3.180   5.286  1.7540  1.4300 -0.1280
 7324TIP3   OH243462   0.055   0.836   3.487 -0.6453 -0.0202  0.2967
 7324TIP3    H143463   0.145   0.817   3.514 -0.2428  0.7301 -0.5173
 7324TIP3    H243464   0.023   0.753   3.451  0.0505 -0.0296 -0.3176
 7325TIP3   OH243465   3.222   5.715  16.314 -0.9432 -0.2838  0.0534
 7325TIP3    H143466   3.296   5.776  16.314 -2.1748  1.2115  0.3864
 7325TIP3    H243467   3.254   5.641  16.366 -0.4740  1.3705  2.2100
 7326TIP3   OH243468   0.234   1.751   1.184  0.1496  0.4445 -0.0408
 7326TIP3    H143469   0.253   1.680   1.246 -2.0818 -0.0260  0.1582
 7326TIP3    H243470   0.139   1.747   1.171  0.3547  1.6101 -2.2133
 7327TIP3   OH243471   3.529   3.752  15.200  0.1084  0.7441  0.6101
 7327TIP3    H143472   3.442   3.790  15.207  0.0099  1.0506 -1.8279
 7327TIP3    H243473   3.530   3.680  15.263 -1.4810  1.5119  1.5236
 7328TIP3   OH243474   3.255   5.017  11.573  0.5662 -0.1994 -0.4220
 7328TIP3    H143475   3.327   5.020  11.510  0.6477 -0.9429 -0.3637
 7328TIP3    H243476   3.222   4.927  11.569 -0.3173  0.1136 -0.3977
 7329TIP3   OH243477   0.179   6.533   2.865 -0.2572  0.5456 -0.0059
 7329TIP3    H143478   0.146   6.622   2.868 -1.8235 -0.0457  1.3492
 7329TIP3    H243479   0.160   6.502   2.777 -1.6729  0.8392  0.1968
 7330TIP3   OH243480   3.805   5.953   5.437 -0.6284  0.3774  0.1499
 7330TIP3    H143481   3.723   6.001   5.445 -1.4697 -0.8541 -0.8456
 7330TIP3    H243482   3.779   5.862   5.424  0.8908 -0.0264 -0.2334
 7331TIP3   OH243483   6.544   4.482   1.940 -0.5005  0.3553 -0.3084
 7331TIP3    H143484   6.481   4.554   1.931  0.1215  0.9342 -0.1008
 7331TIP3    H243485   6.594   4.505   2.019  0.3252  0.1784 -0.7788
 7332TIP3   OH243486   0.056   4.214  16.227  0.4580 -0.0285 -0.0308
 7332TIP3    H143487   0.023   4.127  16.207  0.6566 -0.1938  0.3622
 7332TIP3    H243488   0.132   4.199  16.283 -0.0361  0.4241  0.7694
 7333TIP3   OH243489   1.056   1.428  15.273 -0.0828 -0.1755 -0.1295
 7333TIP3    H143490   1.149   1.431  15.299  0.0263  0.4555 -0.5862
 7333TIP3    H243491   1.009   1.449  15.354  0.2577  1.6924 -0.3857
 7334TIP3   OH243492   6.275   3.222  13.075  0.0113  0.4517  0.5209
 7334TIP3    H143493   6.223   3.179  13.143 -1.3929  0.0189 -0.7933
 7334TIP3    H243494   6.278   3.314  13.101 -1.2189  0.4392  0.7620
 7335TIP3   OH243495   6.097   5.462  14.365  0.6539  0.0699  0.3497
 7335TIP3    H143496   6.140   5.520  14.302  0.6857  1.3303  1.5091
 7335TIP3    H243497   6.169   5.410  14.402  0.8556  0.4864  0.5436
 7336TIP3   OH243498   6.395   3.861   4.882  0.4860 -0.2193 -0.2814
 7336TIP3    H143499   6.341   3.818   4.948  0.6749 -1.4204 -0.9090
 7336TIP3    H243500   6.410   3.949   4.918  0.4779 -0.8097  1.2114
 7337TIP3   OH243501   1.812   6.697  16.758 -0.4707 -0.3896  0.2907
 7337TIP3    H143502   1.781   6.663  16.842 -0.8358 -0.5248  0.1022
 7337TIP3    H243503   1.751   6.661  16.693 -0.9056  0.6934  0.0964
 7338TIP3   OH243504   5.659   5.239  12.506 -0.0514 -0.3475 -0.7511
 7338TIP3    H143505   5.749   5.237  12.539  0.1834  0.4688 -1.3211
 7338TIP3    H243506   5.653   5.167  12.444 -0.7583 -2.4855  1.7157
 7339TIP3   OH243507   6.646   4.957   0.784  0.0488  0.0552  0.3255
 7339TIP3    H143508   6.677   4.950   0.694  0.6591  0.6883  0.4763
 7339TIP3    H243509   6.555   4.926   0.781 -0.5683  1.9013 -0.8755
 7340TIP3   OH243510   6.568   6.123   0.811 -0.2959 -0.4610  0.0189
 7340TIP3    H143511   6.611   6.205   0.837  0.4144 -0.3297 -1.5481
 7340TIP3    H243512   6.542   6.082   0.894  2.2602 -0.2085  0.9809
 7341TIP3   OH243513   0.143   3.775  11.853 -0.3584 -0.4421  0.2544
 7341TIP3    H143514   0.144   3.717  11.777  0.5374 -0.7459  0.4912
 7341TIP3    H243515   0.205   3.735  11.914  1.4452  1.5737 -0.1957
 7342TIP3   OH243516   4.776   6.786   0.818 -0.5559 -0.2369 -0.1070
 7342TIP3    H143517   4.832   6.861   0.801 -0.0377 -0.5930  0.0177
 7342TIP3    H243518   4.693   6.824   0.847  0.5107  0.2679  2.4321
 7343TIP3   OH243519   0.498   5.893  13.584 -0.2287 -0.3813  0.1195
 7343TIP3    H143520   0.499   5.985  13.612  2.5409 -0.5858  0.7559
 7343TIP3    H243521   0.550   5.892  13.504  0.6138 -1.5745  0.6757
 7344TIP3   OH243522   5.479   6.089  12.552  0.0138 -0.4163 -0.2877
 7344TIP3    H143523   5.553   6.043  12.512  0.5108  1.9714 -2.2298
 7344TIP3    H243524   5.457   6.158  12.490 -2.4135  0.3276  1.3252
 7345TIP3   OH243525   2.912   3.900   5.271  0.0192  0.6873 -0.6921
 7345TIP3    H143526   2.866   3.949   5.340 -2.4872 -0.6705 -1.3234
 7345TIP3    H243527   2.875   3.935   5.190 -1.0231 -1.4841 -1.1719
 7346TIP3   OH243528   2.804   4.452  16.267 -0.1809  0.2738 -0.2835
 7346TIP3    H143529   2.811   4.532  16.216  0.4767  1.0647  1.0259
 7346TIP3    H243530   2.739   4.473  16.335 -0.1743 -0.3717 -0.0746
 7347TIP3   OH243531   0.371   0.553  14.705 -0.3531 -0.2172 -0.3481
 7347TIP3    H143532   0.370   0.475  14.760 -0.9402 -0.1070 -0.1899
 7347TIP3    H243533   0.462   0.565  14.680 -0.2602 -0.9301 -0.3403
 7348TIP3   OH243534   2.741   6.117  10.405  0.7559  0.1426 -0.5328
 7348TIP3    H143535   2.804   6.110  10.333  1.1114  2.5926 -0.5013
 7348TIP3    H243536   2.774   6.189  10.458 -0.3993 -0.5814  1.2056
 7349TIP3   OH243537   4.635   5.003  12.593 -0.0533 -0.4089 -0.3630
 7349TIP3    H143538   4.654   5.079  12.649  0.0962 -0.5858 -0.1678
 7349TIP3    H243539   4.593   4.941  12.652  0.9290 -0.9521 -0.2342
 7350TIP3   OH243540   4.263   6.161   3.813 -0.3116  0.3358  0.0115
 7350TIP3    H143541   4.328   6.099   3.779  0.1014  1.5455 -1.4427
 7350TIP3    H243542   4.314   6.223   3.865 -0.5675  0.1093  0.5291
 7351TIP3   OH243543   3.042   3.881   3.005 -0.4140  0.0338  0.0466
 7351TIP3    H143544   3.071   3.863   3.095 -2.0959 -0.0999  0.5757
 7351TIP3    H243545   3.122   3.872   2.953  0.7995  1.1529  1.6499
 7352TIP3   OH243546   2.126   4.213  13.767 -0.2650 -0.0642 -0.4736
 7352TIP3    H143547   2.202   4.251  13.811 -1.4746  0.0808  1.5353
 7352TIP3    H243548   2.072   4.288  13.742 -0.6538 -0.2549 -0.2091
 7353TIP3   OH243549   5.441   4.557   2.798 -0.3465  0.4066 -0.5768
 7353TIP3    H143550   5.424   4.480   2.745  0.3231 -0.0821 -0.0918
 7353TIP3    H243551   5.389   4.626   2.757 -1.6028 -0.4908 -0.5031
 7354TIP3   OH243552   2.332   3.318   4.466 -0.5095  0.5132 -0.1766
 7354TIP3    H143553   2.284   3.385   4.514  2.0226  1.4142  1.2048
 7354TIP3    H243554   2.267   3.250   4.449 -1.8842  0.8577  3.1828
 7355TIP3   OH243555   1.069   4.367  11.433 -0.0280 -0.0344  0.3548
 7355TIP3    H143556   1.090   4.397  11.522 -2.7016  1.0132  0.6835
 7355TIP3    H243557   1.068   4.446  11.380  0.5473 -0.5347 -0.4187
 7356TIP3   OH243558   6.008   2.060   5.916  0.0933 -0.3040 -0.1311
 7356TIP3    H143559   6.101   2.041   5.911  0.4843  1.6617 -0.9451
 7356TIP3    H243560   5.994   2.092   6.005  0.1631 -0.7536  0.0407
 7357TIP3   OH243561   3.178   0.612  12.096  0.1808  0.3929  0.0135
 7357TIP3    H143562   3.268   0.611  12.063  0.0014 -0.6183 -0.4564
 7357TIP3    H243563   3.179   0.679  12.165  1.7595 -0.9017  1.3056
 7358TIP3   OH243564   5.896   6.479  11.604  1.2147 -0.8813  0.0216
 7358TIP3    H143565   5.894   6.397  11.654 -0.0003  0.0448  1.5217
 7358TIP3    H243566   5.825   6.470  11.540  0.5298 -0.6527  0.7474
 7359TIP3   OH243567   4.733   5.590   3.628  0.1684  0.0410 -0.3611
 7359TIP3    H143568   4.784   5.671   3.628 -0.2231  0.3105 -2.3075
 7359TIP3    H243569   4.797   5.521   3.642  0.4868  0.6777  1.4763
 7360TIP3   OH243570   4.508   6.284   6.032 -0.5628 -0.4594 -0.2551
 7360TIP3    H143571   4.517   6.191   6.011 -0.7936 -0.5130 -0.1239
 7360TIP3    H243572   4.453   6.320   5.963 -0.0076 -0.2977 -0.6205
 7361TIP3   OH243573   4.689   0.261   5.223 -0.0488 -0.3779  0.1521
 7361TIP3    H143574   4.715   0.318   5.295 -3.7095  0.7759  0.6997
 7361TIP3    H243575   4.610   0.216   5.255  0.5290 -2.8664 -1.6924
 7362TIP3   OH243576   2.458   2.800  10.198  0.1895 -0.6555 -0.3237
 7362TIP3    H143577   2.363   2.812  10.207  0.1565 -0.1464 -1.2551
 7362TIP3    H243578   2.494   2.888  10.196  0.5747 -0.8190 -0.9906
 7363TIP3   OH243579   1.866   5.487   0.123 -0.6696 -0.5107  0.4316
 7363TIP3    H143580   1.937   5.432   0.153 -2.3599 -2.1683  1.4915
 7363TIP3    H243581   1.840   5.538   0.200 -0.6255  0.1130  0.0437
 7364TIP3   OH243582   1.997   2.889   2.716 -0.0540 -0.0852  0.5724
 7364TIP3    H143583   1.922   2.910   2.771 -0.5907 -0.4349 -0.0192
 7364TIP3    H243584   2.003   2.794   2.720 -0.4698 -0.1602 -0.4563
 7365TIP3   OH243585   1.924   3.460   2.567  0.7020  0.1215  0.6159
 7365TIP3    H143586   1.902   3.423   2.482  1.7711  1.9859 -0.5062
 7365TIP3    H243587   1.964   3.388   2.616  0.5936 -0.8155 -0.6685
 7366TIP3   OH243588   0.836   4.394  14.650  0.8234 -0.5379  0.4331
 7366TIP3    H143589   0.858   4.487  14.645 -0.2755 -0.3392 -1.0029
 7366TIP3    H243590   0.920   4.349  14.647  1.1926  0.2860 -2.4241
 7367TIP3   OH243591   2.706   6.111   1.593  0.0283 -0.4632  0.8202
 7367TIP3    H143592   2.705   6.197   1.635 -1.3261 -1.1362  2.2043
 7367TIP3    H243593   2.794   6.103   1.557  0.7066  0.7972  2.1625
 7368TIP3   OH243594   2.857   3.384  16.043 -0.3693  0.1672 -0.1555
 7368TIP3    H143595   2.918   3.318  16.010 -1.5157  0.6301 -3.3517
 7368TIP3    H243596   2.911   3.463  16.053 -0.0863  0.1381 -1.3710
 7369TIP3   OH243597   6.684   2.645  10.563 -0.0493  0.0579 -0.1832
 7369TIP3    H143598   6.608   2.591  10.541 -0.8606  0.5441  1.3144
 7369TIP3    H243599   6.652   2.703  10.632  1.9474 -0.3613  1.1198
 7370TIP3   OH243600   3.404   1.547  15.825  0.7056  0.5328 -0.1467
 7370TIP3    H143601   3.462   1.485  15.781  0.7241  0.3710  0.1016
 7370TIP3    H243602   3.318   1.507  15.820  1.1281 -0.7758  2.3029
 7371TIP3   OH243603   3.642   6.383  11.989  0.1876 -0.2816  0.0797
 7371TIP3    H143604   3.716   6.416  12.039 -0.2913  0.5702  0.2404
 7371TIP3    H243605   3.605   6.314  12.044  0.9491 -0.8072 -0.0686
 7372TIP3   OH243606   0.088   5.858  12.227 -0.6296 -0.3630  0.4428
 7372TIP3    H143607   0.074   5.940  12.275 -2.7475 -0.6659  0.3908
 7372TIP3    H243608   0.172   5.870  12.183 -0.6672  1.5718  0.8598
 7373TIP3   OH243609   1.101   5.913  11.901  0.2990  0.3396 -0.1516
 7373TIP3    H143610   1.091   5.901  11.996 -0.0111 -0.8092 -0.3187
 7373TIP3    H243611   1.090   6.007  11.887 -0.1501  0.4477  0.8907
 7374TIP3   OH243612   5.315   5.987   5.798 -0.1391  0.3644 -0.0607
 7374TIP3    H143613   5.271   6.016   5.878 -1.7075  1.8542 -1.4262
 7374TIP3    H243614   5.343   6.068   5.755 -0.6696 -0.3188 -1.7565
 7375TIP3   OH243615   1.534   0.874   0.288  0.2631  0.6365 -0.2506
 7375TIP3    H143616   1.477   0.924   0.346 -0.4648 -2.0364  1.4562
 7375TIP3    H243617   1.620   0.916   0.296  0.2441  0.1575  3.0167
 7376TIP3   OH243618   4.966   0.647  12.691 -0.4162 -0.2364  0.2139
 7376TIP3    H143619   4.952   0.585  12.619 -2.9883 -1.0144  1.3329
 7376TIP3    H243620   4.881   0.691  12.701  0.9095  2.3628  0.4830
 7377TIP3   OH243621   3.627   3.774   2.302  0.1851 -0.8083  0.1085
 7377TIP3    H143622   3.569   3.824   2.244 -0.8361  0.4156  2.1079
 7377TIP3    H243623   3.701   3.748   2.247  1.9045  4.8810 -0.5105
 7378TIP3   OH243624   1.849   1.422  14.363  0.1842  0.3085  0.1335
 7378TIP3    H143625   1.842   1.468  14.279 -0.4805  0.2980  0.1768
 7378TIP3    H243626   1.765   1.438  14.406 -0.7428 -2.3357 -0.5715
 7379TIP3   OH243627   5.240   6.484   1.505  0.5423 -0.2987 -0.1258
 7379TIP3    H143628   5.194   6.549   1.453 -0.7376 -1.2616 -0.2307
 7379TIP3    H243629   5.184   6.471   1.582  0.3554 -1.8741 -0.5154
 7380TIP3   OH243630   5.840   4.254   1.995 -0.1855 -0.1397  0.2682
 7380TIP3    H143631   5.821   4.337   1.950  0.0647 -0.6913 -0.8651
 7380TIP3    H243632   5.755   4.212   2.004 -0.6273  1.2648  2.9055
 7381TIP3   OH243633   1.375   4.323   6.527 -0.5680  0.0330 -0.7988
 7381TIP3    H143634   1.462   4.296   6.556 -0.3912  1.1171 -0.2969
 7381TIP3    H243635   1.376   4.309   6.432  0.5133  1.0113 -0.9461
 7382TIP3   OH243636   1.780   2.642   0.993 -0.6511  0.0130  0.7596
 7382TIP3    H143637   1.751   2.557   1.025 -1.2555  0.2528  0.8434
 7382TIP3    H243638   1.865   2.655   1.035 -0.5930 -0.5065  0.8135
 7383TIP3   OH243639   5.658   1.169  15.435  0.9081 -0.0651  0.4808
 7383TIP3    H143640   5.680   1.260  15.414 -0.8673  0.1858 -0.4559
 7383TIP3    H243641   5.685   1.158  15.526  3.2304  0.6962 -0.0847
 7384TIP3   OH243642   3.026   0.757  16.955  0.2317 -0.3551  0.2037
 7384TIP3    H143643   2.944   0.735  16.997  0.0678 -0.5682 -0.2223
 7384TIP3    H243644   3.082   0.789  17.026 -0.0386 -0.7110  0.5759
 7385TIP3   OH243645   1.617   6.017  14.787 -0.0338  0.4429  0.4536
 7385TIP3    H143646   1.545   6.070  14.754  2.1929  2.2622 -1.7617
 7385TIP3    H243647   1.612   5.936  14.737 -0.4474  0.6449  0.1690
 7386TIP3   OH243648   2.112   0.488   0.467 -0.2820 -0.1459 -0.2906
 7386TIP3    H143649   2.115   0.540   0.387  0.6002 -1.0151 -0.8336
 7386TIP3    H243650   2.073   0.546   0.532 -2.2443  0.1223 -1.6765
 7387TIP3   OH243651   4.265   2.927  16.616  0.4601  0.2930 -1.2193
 7387TIP3    H143652   4.253   2.886  16.530 -2.1325  1.8317 -1.6300
 7387TIP3    H243653   4.285   3.019  16.596 -0.3718  0.7060 -0.1839
 7388TIP3   OH243654   1.009   1.219   5.603 -0.1258 -0.0004 -0.0333
 7388TIP3    H143655   0.981   1.128   5.618 -0.8586 -0.0949 -1.8224
 7388TIP3    H243656   1.001   1.231   5.508  2.1219  1.2289 -0.1191
 7389TIP3   OH243657   0.426   4.324  16.393  0.3837 -0.4623 -0.1398
 7389TIP3    H143658   0.483   4.324  16.469  0.5441 -0.4959 -0.2600
 7389TIP3    H243659   0.388   4.412  16.390  0.2877 -0.4983  0.0435
 7390TIP3   OH243660   4.273   5.198  13.251 -0.1549  0.2211 -0.1149
 7390TIP3    H143661   4.256   5.103  13.246 -1.0702  0.3496  0.4713
 7390TIP3    H243662   4.297   5.213  13.342  1.7899  0.2828 -0.5945
 7391TIP3   OH243663   1.493   6.035  12.433  0.4028 -0.2946 -0.2090
 7391TIP3    H143664   1.573   6.062  12.387  1.2778 -1.8571  0.3666
 7391TIP3    H243665   1.514   6.047  12.525 -0.5659  0.7009 -0.1055
 7392TIP3   OH243666   6.426   2.482  16.572 -0.5670  0.5796 -0.5960
 7392TIP3    H143667   6.476   2.549  16.618  0.7238 -0.1637 -0.8811
 7392TIP3    H243668   6.384   2.431  16.641  1.9674 -1.0021 -0.1693
 7393TIP3   OH243669   0.503   0.176   4.836 -0.0457  0.2609 -0.1926
 7393TIP3    H143670   0.505   0.145   4.926  0.4857 -0.6350 -0.5041
 7393TIP3    H243671   0.437   0.121   4.793  0.1747  0.2383 -0.5085
 7394TIP3   OH243672   3.725   2.485  14.683  0.4325  0.3522  0.3155
 7394TIP3    H143673   3.740   2.579  14.677 -0.1263  0.4573  0.4915
 7394TIP3    H243674   3.698   2.470  14.774  2.4658 -0.2709  0.8370
 7395TIP3   OH243675   0.852   6.748   4.266  0.1839  0.0961 -0.3064
 7395TIP3    H143676   0.937   6.793   4.256  0.0376  0.6104  0.6756
 7395TIP3    H243677   0.867   6.683   4.335 -0.5734  1.1392  0.8777
 7396TIP3   OH243678   3.225   0.166   6.501  0.4208  0.0960  0.4890
 7396TIP3    H143679   3.175   0.223   6.560  0.6514 -0.4303  1.2036
 7396TIP3    H243680   3.163   0.140   6.434  0.7713  2.6951 -0.9318
 7397TIP3   OH243681   6.458   2.683  16.074  0.9381  0.7111 -0.2026
 7397TIP3    H143682   6.416   2.607  16.034  1.0353  0.4801  0.1305
 7397TIP3    H243683   6.437   2.676  16.168  1.0731  1.0123 -0.1479
 7398TIP3   OH243684   3.221   1.230  13.773 -0.4543 -0.0065  0.0887
 7398TIP3    H143685   3.286   1.201  13.708 -0.8256 -1.6145  0.4201
 7398TIP3    H243686   3.193   1.316  13.742  1.6109  0.5810 -0.2335
 7399TIP3   OH243687   4.562   3.054  15.835  0.6912  0.4215 -0.2381
 7399TIP3    H143688   4.522   3.139  15.850  1.4650  1.0111 -1.5124
 7399TIP3    H243689   4.587   3.024  15.923 -0.4158  1.0783  0.3118
 7400TIP3   OH243690   6.351   1.106   5.084  0.2922 -0.3057  0.2302
 7400TIP3    H143691   6.352   1.016   5.051  0.5738  0.1281 -0.9898
 7400TIP3    H243692   6.323   1.098   5.175  0.4760 -1.6418  0.1830
 7401TIP3   OH243693   3.440   2.787  14.014 -0.4556  0.1040  0.4950
 7401TIP3    H143694   3.454   2.760  13.923 -0.4163 -3.1027  1.3616
 7401TIP3    H243695   3.528   2.798  14.050 -0.4333 -0.3423  0.5854
 7402TIP3   OH243696   4.440   6.713   5.464  0.0680  0.6309  0.3837
 7402TIP3    H143697   4.521   6.671   5.436 -0.3795  0.2707 -0.3804
 7402TIP3    H243698   4.375   6.687   5.398 -0.3183  2.1406  0.1429
 7403TIP3   OH243699   2.339   3.697  17.291  0.8295 -0.5714  0.3461
 7403TIP3    H143700   2.333   3.608  17.326  1.1525 -1.4713 -1.8361
 7403TIP3    H243701   2.432   3.718  17.295  0.9163 -0.8152 -0.2589
 7404TIP3   OH243702   6.218   6.496   4.128 -0.1368 -0.0027  0.1736
 7404TIP3    H143703   6.239   6.476   4.036 -2.0745  0.4124 -0.3731
 7404TIP3    H243704   6.144   6.556   4.123 -1.5636 -1.5641  2.0632
 7405TIP3   OH243705   3.178   2.530  14.693 -0.1299 -0.4480  0.0266
 7405TIP3    H143706   3.129   2.575  14.762 -1.4276 -0.4941 -0.8443
 7405TIP3    H243707   3.138   2.561  14.612  1.4636 -0.3093 -0.7141
 7406TIP3   OH243708   3.000   2.003   0.582 -0.2051 -0.5767 -0.0502
 7406TIP3    H143709   3.082   2.043   0.613  1.5434 -3.2359 -1.0475
 7406TIP3    H243710   2.998   2.021   0.488  0.5856 -2.6825 -0.5059
 7407TIP3   OH243711   0.407   0.859  13.248  0.2302 -0.0703  0.0726
 7407TIP3    H143712   0.317   0.848  13.279  0.3201  0.6252  0.5995
 7407TIP3    H243713   0.459   0.803  13.305  0.0801 -0.7822 -0.4929
 7408TIP3   OH243714   6.591   2.806  11.571  0.4232  0.2908  0.1283
 7408TIP3    H143715   6.533   2.812  11.648  0.2531 -1.1427  0.1221
 7408TIP3    H243716   6.578   2.717  11.538  0.5146  0.8816 -1.5620
 7409TIP3   OH243717   1.601   5.689  11.355 -0.1552 -0.0762  1.2368
 7409TIP3    H143718   1.530   5.634  11.387  1.2205 -3.0275 -0.5229
 7409TIP3    H243719   1.676   5.668  11.411  0.5487 -0.5122  0.1641
 7410TIP3   OH243720   5.963   2.767  11.982  0.4269 -0.0280 -0.2576
 7410TIP3    H143721   5.937   2.735  12.068 -0.9059  0.1912 -0.5660
 7410TIP3    H243722   5.902   2.838  11.963 -0.4681 -1.2497 -2.1504
 7411TIP3   OH243723   4.974   0.858  11.938  0.6101 -0.7810  0.5841
 7411TIP3    H143724   4.929   0.845  11.854  0.4018 -0.8258  0.7008
 7411TIP3    H243725   4.944   0.785  11.993  0.4482 -0.5374  0.8231
 7412TIP3   OH243726   2.316   2.621   2.395 -0.1857  0.1895 -0.0206
 7412TIP3    H143727   2.239   2.643   2.343 -0.5243  0.5864  0.6574
 7412TIP3    H243728   2.311   2.526   2.406  0.5601 -0.0823 -1.7854
 7413TIP3   OH243729   2.712   6.565   2.978  0.7491 -0.3522  0.7070
 7413TIP3    H143730   2.702   6.511   3.056 -0.1196 -0.6232  0.4140
 7413TIP3    H243731   2.676   6.512   2.907  0.0442  0.5472  0.3813
 7414TIP3   OH243732   4.801   3.063   2.005 -0.5093 -0.4588  0.1861
 7414TIP3    H143733   4.778   3.043   2.096 -0.6886  1.5264  0.6148
 7414TIP3    H243734   4.732   3.124   1.976  1.1543  1.2471 -0.2877
 7415TIP3   OH243735   1.740   1.522   5.394 -0.0493  0.5499 -0.2435
 7415TIP3    H143736   1.802   1.481   5.334  0.3487  0.0535  0.5003
 7415TIP3    H243737   1.796   1.568   5.457 -0.4568  0.4442  0.1902
 7416TIP3   OH243738   1.691   6.089  14.253  0.6990  0.0057  0.2240
 7416TIP3    H143739   1.686   6.184  14.241  0.3594  0.0069  0.3932
 7416TIP3    H243740   1.764   6.063  14.197 -0.2020  0.1615 -1.0375
 7417TIP3   OH243741   3.262   3.644   1.559  0.1581 -0.1576  0.0989
 7417TIP3    H143742   3.275   3.655   1.653  1.5536 -0.8049 -0.0046
 7417TIP3    H243743   3.179   3.598   1.552 -0.0651  0.0849  1.0051
 7418TIP3   OH243744   3.941   3.429   4.317  0.6304  0.2552 -0.2026
 7418TIP3    H143745   3.849   3.404   4.307  0.7362  0.2233 -1.1596
 7418TIP3    H243746   3.989   3.369   4.261  1.1144  1.0758 -0.6831
 7419TIP3   OH243747   4.316   4.037   6.419  0.8836  0.1195  0.1740
 7419TIP3    H143748   4.269   3.954   6.419  1.6990 -0.3543 -0.8652
 7419TIP3    H243749   4.399   4.018   6.463  0.9769  0.4305  0.1340
 7420TIP3   OH243750   0.898   5.221  15.265  0.1174 -0.0890 -0.3361
 7420TIP3    H143751   0.983   5.182  15.245  0.4681 -0.0090  1.0061
 7420TIP3    H243752   0.835   5.159  15.229  0.7126 -0.9475  0.0815
 7421TIP3   OH243753   3.006   5.073  12.312 -0.4318 -0.2500 -0.5111
 7421TIP3    H143754   3.051   5.157  12.316 -0.6026 -0.1381 -0.8907
 7421TIP3    H243755   3.076   5.008  12.300 -0.2086 -0.2690  0.8065
 7422TIP3   OH243756   0.248   0.022   5.840 -0.3018  0.0200 -0.5563
 7422TIP3    H143757   0.169   0.073   5.854 -0.4513  0.7916 -3.8525
 7422TIP3    H243758   0.319   0.078   5.873 -0.9567  0.0744  0.7682
 7423TIP3   OH243759   4.806   4.105  11.730 -0.1587  0.1438  0.2436
 7423TIP3    H143760   4.839   4.098  11.640 -1.3674 -0.2295 -0.1741
 7423TIP3    H243761   4.783   4.197  11.740 -0.9084  0.0011 -0.1461
 7424TIP3   OH243762   2.422   6.051  17.059  0.2498  0.4810 -0.0628
 7424TIP3    H143763   2.331   6.043  17.089  0.5621 -2.3470  0.2852
 7424TIP3    H243764   2.470   6.077  17.137 -0.1992  1.7364 -0.1897
 7425TIP3   OH243765   6.394   5.888  15.479  0.0388  0.3746  0.2522
 7425TIP3    H143766   6.436   5.949  15.540 -0.6275 -0.1714  1.2666
 7425TIP3    H243767   6.462   5.869  15.414  0.5963  1.3520  0.5431
 7426TIP3   OH243768   5.632   5.449  13.989 -0.3292 -0.5638  0.3661
 7426TIP3    H143769   5.650   5.541  14.006 -1.1235 -0.5771  1.2981
 7426TIP3    H243770   5.704   5.421  13.931  0.1929  0.4981  0.4860
 7427TIP3   OH243771   4.126   3.135  10.786  0.6702  0.1509 -0.0231
 7427TIP3    H143772   4.177   3.207  10.822 -0.4397  0.5457  0.8116
 7427TIP3    H243773   4.050   3.177  10.745 -0.5492 -0.5690  1.4212
 7428TIP3   OH243774   5.193   3.000  12.119  0.4062  0.2723  0.0709
 7428TIP3    H143775   5.143   2.920  12.104  0.0564  0.4930  0.0501
 7428TIP3    H243776   5.224   2.991  12.209 -0.2763  0.4577  0.3324
 7429TIP3   OH243777   4.744   1.255   5.771  1.1224 -0.2141 -0.0197
 7429TIP3    H143778   4.774   1.334   5.725 -0.4380  0.4615  0.1068
 7429TIP3    H243779   4.721   1.286   5.858  0.1435 -0.7387 -0.0878
 7430TIP3   OH243780   4.788   3.669   2.151 -0.3671  0.3940 -0.1267
 7430TIP3    H143781   4.809   3.680   2.243  0.1378  0.6341 -0.2732
 7430TIP3    H243782   4.765   3.576   2.143  1.5492 -0.0978 -0.1504
 7431TIP3   OH243783   3.071   0.562   3.444 -0.4151 -0.1147  0.0645
 7431TIP3    H143784   3.082   0.548   3.350 -0.1490  1.4372 -0.1477
 7431TIP3    H243785   2.991   0.515   3.467 -0.7023 -0.1542 -1.0140
 7432TIP3   OH243786   2.779   2.849   0.718  0.3264 -0.2023  0.6383
 7432TIP3    H143787   2.863   2.854   0.762  0.8453  2.1093 -0.5362
 7432TIP3    H243788   2.799   2.866   0.626 -0.7653 -4.6236 -0.5342
 7433TIP3   OH243789   0.770   3.151   4.585 -0.0554  0.1959 -0.4218
 7433TIP3    H143790   0.771   3.131   4.492  0.4072 -0.6681 -0.2424
 7433TIP3    H243791   0.842   3.098   4.622  1.0493  2.0323  0.1223
 7434TIP3   OH243792   5.626   5.879   1.839 -0.0051 -0.1417 -0.0129
 7434TIP3    H143793   5.717   5.855   1.855 -0.1067 -0.9232 -0.5812
 7434TIP3    H243794   5.591   5.806   1.788 -1.4093 -0.6745  1.6573
 7435TIP3   OH243795   2.594   4.653  15.122 -0.3625  0.2863 -0.0863
 7435TIP3    H143796   2.631   4.719  15.181 -0.2821  0.0715  0.1024
 7435TIP3    H243797   2.505   4.638  15.156 -0.8802  1.3258 -0.9631
 7436TIP3   OH243798   3.705   2.090   0.798 -0.0574  0.2501  0.1828
 7436TIP3    H143799   3.686   1.996   0.796 -0.1825  0.2087  2.5859
 7436TIP3    H243800   3.760   2.105   0.721 -0.1157 -1.7757 -0.2727
 7437TIP3   OH243801   3.584   4.700  16.389 -0.2033  0.4668 -0.3860
 7437TIP3    H143802   3.529   4.771  16.420 -0.7382  0.5177 -1.4116
 7437TIP3    H243803   3.524   4.640  16.345  0.9148  2.1814 -4.5238
 7438TIP3   OH243804   4.738   3.360   3.898 -0.0400  0.2495 -0.3522
 7438TIP3    H143805   4.697   3.438   3.862 -0.4715 -0.1528 -0.7406
 7438TIP3    H243806   4.769   3.387   3.984 -0.6602  0.7005 -0.2637
 7439TIP3   OH243807   2.209   0.105  16.192 -0.0853  0.1719 -0.6421
 7439TIP3    H143808   2.177   0.150  16.270 -0.4790  0.3519 -0.9118
 7439TIP3    H243809   2.144   0.122  16.125  0.7299  0.8166 -1.2898
 7440TIP3   OH243810   5.357   1.464  16.280 -0.6011 -0.1033  0.8557
 7440TIP3    H143811   5.409   1.473  16.360 -0.9273 -1.2304  1.2100
 7440TIP3    H243812   5.268   1.489  16.306 -0.8033 -0.9130  0.9822
 7441TIP3   OH243813   2.348   2.327   0.908 -0.3698  0.1649  0.4033
 7441TIP3    H143814   2.363   2.373   0.825 -0.7593  0.0487  0.2681
 7441TIP3    H243815   2.335   2.236   0.883 -1.2457  0.2538  0.5251
 7442TIP3   OH243816   1.925   2.224  10.620  0.1488  0.0456  0.0092
 7442TIP3    H143817   1.990   2.170  10.576 -0.5158 -0.0122 -0.9087
 7442TIP3    H243818   1.845   2.171  10.620  0.3800 -0.3697  2.1748
 7443TIP3   OH243819   4.321   2.478  16.471 -0.1080 -0.0016  0.2843
 7443TIP3    H143820   4.329   2.445  16.381 -0.8105  0.0881  0.1824
 7443TIP3    H243821   4.250   2.426  16.509  0.3971 -0.2571  0.8918
 7444TIP3   OH243822   6.407   0.688  10.697  0.5020 -0.3866  0.4860
 7444TIP3    H143823   6.380   0.618  10.637  1.9323 -0.1808 -0.4564
 7444TIP3    H243824   6.455   0.643  10.766  3.1198 -0.2415 -1.1306
 7445TIP3   OH243825   1.677   5.329   3.739  0.2026 -0.1674  0.4320
 7445TIP3    H143826   1.632   5.413   3.725 -1.1360 -0.7250  1.2420
 7445TIP3    H243827   1.747   5.329   3.675 -0.7942  0.8621 -0.7022
 7446TIP3   OH243828   5.304   1.747  10.908  0.0987 -0.0734 -0.7706
 7446TIP3    H143829   5.288   1.805  10.833  0.6009  0.2132 -0.6594
 7446TIP3    H243830   5.221   1.703  10.923  0.0045 -0.1569 -1.5239
 7447TIP3   OH243831   4.559   2.408   2.436  0.2721 -0.0163 -0.2563
 7447TIP3    H143832   4.618   2.358   2.492  1.8095  0.6536 -1.2400
 7447TIP3    H243833   4.507   2.461   2.497  0.8373 -0.4548  0.6120
 7448TIP3   OH243834   2.555   5.316  14.147 -0.3393 -0.1396  0.0480
 7448TIP3    H143835   2.621   5.343  14.209 -1.9733  0.0559  1.7539
 7448TIP3    H243836   2.594   5.242  14.100  0.6887 -0.6827  1.7359
 7449TIP3   OH243837   1.590   5.753   0.648  0.2747  0.7062  0.8960
 7449TIP3    H143838   1.624   5.731   0.735  0.5755 -0.7208  0.4357
 7449TIP3    H243839   1.514   5.696   0.637  2.0399 -1.3932 -0.9918
 7450TIP3   OH243840   4.291   6.410  11.474 -0.6190  0.2643 -0.3639
 7450TIP3    H143841   4.268   6.359  11.396 -0.3921  1.4917 -1.2478
 7450TIP3    H243842   4.343   6.350  11.527 -1.3372 -0.7992 -0.8371
 7451TIP3   OH243843   0.025   6.418   1.484 -0.0213 -0.2465  0.1692
 7451TIP3    H143844   0.071   6.381   1.560 -1.6644 -1.6635  0.5047
 7451TIP3    H243845  -0.038   6.479   1.523 -2.0182 -2.2036  0.1010
 7452TIP3   OH243846   6.000   2.389   3.924 -0.7311 -0.1095  0.1906
 7452TIP3    H143847   6.017   2.417   4.014 -2.3622 -2.6701  1.3824
 7452TIP3    H243848   6.044   2.304   3.917 -1.6266 -0.4980 -1.0127
 7453TIP3   OH243849   5.644   4.975  14.694  0.1177  0.2668 -0.6496
 7453TIP3    H143850   5.561   5.013  14.667 -1.1880 -1.2480  1.1579
 7453TIP3    H243851   5.680   4.936  14.614 -1.6568 -0.4618 -1.1156
 7454TIP3   OH243852   1.752   1.426  15.933  0.0180  0.1696 -0.0737
 7454TIP3    H143853   1.681   1.383  15.981 -1.2461  0.5035 -1.6186
 7454TIP3    H243854   1.789   1.357  15.878 -0.4827  0.5026 -0.8266
 7455TIP3   OH243855   5.235   6.452  12.958 -0.2092 -0.2517 -0.6210
 7455TIP3    H143856   5.203   6.489  12.875 -3.7953 -1.5334  0.0915
 7455TIP3    H243857   5.231   6.526  13.019 -0.8010 -0.1138 -0.8159
 7456TIP3   OH243858   3.814   4.903  14.713 -0.3388 -0.5544 -0.5763
 7456TIP3    H143859   3.849   4.830  14.764  0.6711  1.6871  2.0786
 7456TIP3    H243860   3.891   4.948  14.677 -0.8588  0.1009 -0.8947
 7457TIP3   OH243861   0.673   6.237  11.778  0.0357 -0.2652  0.2474
 7457TIP3    H143862   0.659   6.259  11.686 -1.7576  1.4996  0.9184
 7457TIP3    H243863   0.595   6.188  11.803  0.1481 -0.0358  1.0468
 7458TIP3   OH243864   3.288   0.107  16.917  0.0299 -0.2011 -0.3017
 7458TIP3    H143865   3.361   0.076  16.971  1.1114  0.5686 -1.2986
 7458TIP3    H243866   3.326   0.117  16.829 -1.1832  0.5573 -0.7461
 7459TIP3   OH243867   5.433   3.877  11.269  0.1867  0.0691 -0.0132
 7459TIP3    H143868   5.509   3.891  11.212  0.0034  3.0545  0.3870
 7459TIP3    H243869   5.379   3.813  11.222  0.6962  1.4137 -2.5363
 7460TIP3   OH243870   0.577   4.574   4.331 -0.2024 -0.2052  0.0372
 7460TIP3    H143871   0.650   4.599   4.276  0.3237 -0.1301  0.7632
 7460TIP3    H243872   0.506   4.633   4.305 -0.3421 -0.9859 -1.4121
 7461TIP3   OH243873   0.484   5.026  14.538  0.1164  0.1047 -0.1311
 7461TIP3    H143874   0.512   4.940  14.507  0.8508  0.8220 -1.4914
 7461TIP3    H243875   0.519   5.087  14.474 -0.6629  1.4003  0.6621
 7462TIP3   OH243876   5.303   2.334  14.710  0.4136  0.2691 -0.0796
 7462TIP3    H143877   5.360   2.260  14.731  0.8421  0.6393  0.0723
 7462TIP3    H243878   5.347   2.379  14.638 -0.0153  0.1845 -0.3934
 7463TIP3   OH243879   2.661   0.119   5.780  0.5434  0.1202 -0.1222
 7463TIP3    H143880   2.568   0.138   5.780  0.9459  2.2200  0.4586
 7463TIP3    H243881   2.696   0.169   5.853  2.1754 -0.3562 -0.5489
 7464TIP3   OH243882   5.903   4.359  15.247 -0.7456  0.0790 -0.7401
 7464TIP3    H143883   5.899   4.418  15.172 -0.3937  2.5130  1.1173
 7464TIP3    H243884   5.838   4.292  15.227  1.2446 -0.9413 -4.5059
 7465TIP3   OH243885   5.538   4.460  15.907  0.2598  0.1495 -0.3880
 7465TIP3    H143886   5.548   4.366  15.922  2.1116 -0.0255 -2.4074
 7465TIP3    H243887   5.448   4.479  15.933 -0.1594 -2.2049 -0.0242
 7466TIP3   OH243888   1.831   0.621   4.094 -0.6866 -0.3685 -0.0324
 7466TIP3    H143889   1.794   0.655   4.012 -1.3004  1.3715  0.9230
 7466TIP3    H243890   1.783   0.540   4.110 -1.2972 -0.1830 -0.8711
 7467TIP3   OH243891   3.652   4.078   4.741 -0.3245  0.6465 -0.0107
 7467TIP3    H143892   3.635   4.108   4.831  1.0315  1.4632 -0.0104
 7467TIP3    H243893   3.639   3.984   4.745 -3.7872  1.0463  0.2014
 7468TIP3   OH243894   3.251   2.589   0.080  0.0194  0.7308  0.7147
 7468TIP3    H143895   3.165   2.604   0.118  0.1787  1.7390  0.6986
 7468TIP3    H243896   3.311   2.639   0.136  0.5449  0.3563  0.4940
 7469TIP3   OH243897   4.732   6.284   3.945  0.1110  0.5537 -0.1861
 7469TIP3    H143898   4.739   6.279   3.850  2.0283  1.0566 -0.0959
 7469TIP3    H243899   4.688   6.367   3.961  0.0271  0.5954 -0.6204
 7470TIP3   OH243900   0.155   2.677  14.586  0.1111 -0.0710  0.0170
 7470TIP3    H143901   0.172   2.762  14.545 -2.4663  1.2888  1.6296
 7470TIP3    H243902   0.106   2.628  14.520  2.6763 -0.8093 -1.3867
 7471TIP3   OH243903   6.740   5.653  14.454  0.4560 -0.1827 -0.0914
 7471TIP3    H143904   6.781   5.596  14.520  1.7744 -1.1656 -1.7180
 7471TIP3    H243905   6.807   5.663  14.386 -1.0224  0.4729 -1.4899
 7472TIP3   OH243906   0.725   4.768  11.471  0.2902 -0.1348  0.4044
 7472TIP3    H143907   0.757   4.683  11.502  1.4601 -0.2863 -1.2026
 7472TIP3    H243908   0.631   4.755  11.459  0.1317 -0.6173  2.0700
 7473TIP3   OH243909   1.066   1.852  12.882  0.0585 -0.0073  0.7839
 7473TIP3    H143910   1.014   1.928  12.857  0.3133 -0.5433 -1.4914
 7473TIP3    H243911   1.148   1.862  12.833  0.2638 -1.5157  0.7995
 7474TIP3   OH243912   1.817   6.661   3.276  0.6514 -0.0821  0.2135
 7474TIP3    H143913   1.849   6.583   3.230 -0.3524 -0.4449  0.1237
 7474TIP3    H243914   1.868   6.663   3.357  1.9097  0.1460 -0.5550
 7475TIP3   OH243915   1.648   5.745   1.631  0.4052  0.1532 -0.3907
 7475TIP3    H143916   1.732   5.776   1.598  1.1492  0.2930  1.5783
 7475TIP3    H243917   1.586   5.766   1.561  1.4930  2.7564 -0.6337
 7476TIP3   OH243918   0.202   5.301  11.703 -0.0493 -0.4451 -0.4721
 7476TIP3    H143919   0.189   5.366  11.634  1.4209  0.6537  0.2422
 7476TIP3    H243920   0.290   5.319  11.736 -1.3511  0.2524  2.8833
 7477TIP3   OH243921   5.425   5.001   2.584 -0.0650 -0.1299 -0.2711
 7477TIP3    H143922   5.481   5.047   2.522 -1.7745  0.9594 -1.0472
 7477TIP3    H243923   5.385   5.071   2.636 -1.3306 -0.8293 -0.2752
 7478TIP3   OH243924   4.636   4.908  12.344  0.2909 -0.3360  0.0966
 7478TIP3    H143925   4.726   4.877  12.334  0.6500  0.5848  0.3834
 7478TIP3    H243926   4.640   4.968  12.419 -0.9288 -1.6991  1.2818
 7479TIP3   OH243927   1.849   1.025   5.634  0.1628 -0.4979  0.3396
 7479TIP3    H143928   1.765   1.002   5.674  0.0078  1.2540  1.0371
 7479TIP3    H243929   1.907   1.044   5.708  0.1997  1.6273 -0.2133
 7480TIP3   OH243930   3.119   3.450   5.884  0.2880  0.7305  0.2527
 7480TIP3    H143931   3.163   3.407   5.958 -0.8189 -1.4201 -0.2778
 7480TIP3    H243932   3.176   3.434   5.810  0.1898  0.7028  0.1824
 7481TIP3   OH243933   5.095   4.787  15.559 -0.6840 -0.5998  0.6867
 7481TIP3    H143934   5.157   4.739  15.504 -0.1149  1.4543 -0.5051
 7481TIP3    H243935   5.119   4.763  15.649  0.7479 -1.1425  0.1676
 7482TIP3   OH243936   4.230   2.385   0.368 -0.0969  1.1236 -0.0769
 7482TIP3    H143937   4.242   2.302   0.322  0.2961  1.0016  0.2435
 7482TIP3    H243938   4.183   2.361   0.448  0.3237  1.1623  0.1809
 7483TIP3   OH243939   5.586   0.459   2.193 -0.1350 -0.3859 -0.0227
 7483TIP3    H143940   5.526   0.437   2.121  0.7030  0.4715 -0.9906
 7483TIP3    H243941   5.529   0.463   2.271 -1.0567 -1.2402 -0.6420
 7484TIP3   OH243942   1.444   1.232   2.656 -0.0660  0.0967  0.2983
 7484TIP3    H143943   1.451   1.225   2.751 -1.2453  0.2796  0.4087
 7484TIP3    H243944   1.414   1.146   2.628  0.4719 -0.0159  0.0720
 7485TIP3   OH243945   5.559   4.968   6.079 -0.4661 -0.4681 -0.4194
 7485TIP3    H143946   5.514   4.962   5.995 -0.4213 -0.9789 -0.4069
 7485TIP3    H243947   5.586   4.878   6.099 -0.5736 -0.3715  0.1911
 7486TIP3   OH243948   2.763   5.461  16.860 -0.0933 -0.5784  0.0427
 7486TIP3    H143949   2.720   5.442  16.777  0.6159 -1.6321 -0.0869
 7486TIP3    H243950   2.754   5.381  16.911 -1.0005  0.2512  1.1925
 7487TIP3   OH243951   3.744   6.582   2.052  0.0716 -0.7765 -0.7521
 7487TIP3    H143952   3.741   6.505   1.995  0.5174 -0.4857 -1.1611
 7487TIP3    H243953   3.824   6.628   2.028 -1.6354  1.3787 -2.5467
 7488TIP3   OH243954   0.920   1.476   6.347  0.1149  0.0447  0.0649
 7488TIP3    H143955   0.921   1.539   6.418  0.2482 -0.4527  0.5125
 7488TIP3    H243956   0.848   1.417   6.369  1.6023 -1.4680  1.0024
 7489TIP3   OH243957   6.286   1.932  16.475 -0.3607  0.1054 -0.7601
 7489TIP3    H143958   6.279   1.872  16.549  0.2095 -0.2103 -0.9627
 7489TIP3    H243959   6.285   2.020  16.515 -0.6847 -0.0464 -0.4287
 7490TIP3   OH243960   4.333   4.191  16.802  0.2107 -0.4960  0.2073
 7490TIP3    H143961   4.274   4.117  16.814  0.2371 -0.7056 -0.8737
 7490TIP3    H243962   4.275   4.266  16.790  0.0896 -0.9856 -2.6918
 7491TIP3   OH243963   5.227   6.044   0.349 -0.9146 -0.3801 -0.2202
 7491TIP3    H143964   5.140   6.005   0.348 -0.4375 -1.4677 -0.4944
 7491TIP3    H243965   5.259   6.032   0.260 -0.7655  0.6851 -0.3196
 7492TIP3   OH243966   5.058   1.843  10.798  0.4497  0.3419 -0.1629
 7492TIP3    H143967   5.002   1.897  10.741  0.0613 -1.5621 -1.6107
 7492TIP3    H243968   4.997   1.788  10.847  1.0091 -1.4205 -1.4102
 7493TIP3   OH243969   1.042   5.709  16.163  0.3277  0.0154 -0.0598
 7493TIP3    H143970   0.990   5.727  16.242  1.5811  0.3214  0.7211
 7493TIP3    H243971   1.111   5.775  16.165  0.2063  0.2075 -1.5915
 7494TIP3   OH243972   4.934   4.450   2.460  0.4309 -0.3342 -0.4003
 7494TIP3    H143973   5.026   4.429   2.441  0.5611 -0.7064  0.5795
 7494TIP3    H243974   4.903   4.374   2.510  0.6653  1.4496  2.5429
 7495TIP3   OH243975   1.485   5.386   6.029  0.0488  0.0646 -0.2630
 7495TIP3    H143976   1.452   5.298   6.048  1.7752 -0.4615  0.3370
 7495TIP3    H243977   1.445   5.409   5.945 -0.7769 -1.1017 -0.1983
 7496TIP3   OH243978   0.392   1.891   0.762 -0.4743  0.5850 -0.0902
 7496TIP3    H143979   0.472   1.843   0.786 -0.3056 -0.1489 -2.0122
 7496TIP3    H243980   0.418   1.944   0.686 -1.3715  1.6829  0.3479
 7497TIP3   OH243981   0.769   1.246  12.690  0.8183 -0.1481  0.3305
 7497TIP3    H143982   0.686   1.273  12.652  1.0677 -0.4385 -0.4346
 7497TIP3    H243983   0.745   1.188  12.761  0.3455  0.3770  0.6081
 7498TIP3   OH243984   0.919   5.608   2.951 -0.3244 -0.0945  0.1685
 7498TIP3    H143985   0.920   5.600   2.856  3.9424 -0.6069  0.1301
 7498TIP3    H243986   0.895   5.520   2.982 -1.3741 -0.0214 -0.4173
 7499TIP3   OH243987   4.020   1.468  16.662 -0.2561  0.2304  0.4192
 7499TIP3    H143988   4.046   1.527  16.732  0.3338 -0.9029  1.1781
 7499TIP3    H243989   4.087   1.400  16.662 -0.1372  0.3182 -1.3850
 7500TIP3   OH243990   6.180   3.986  12.673  0.1017 -1.0155  0.4463
 7500TIP3    H143991   6.186   3.991  12.768  0.2435  0.7236  0.3522
 7500TIP3    H243992   6.258   3.937  12.647  0.0797 -1.4649  1.2148
 7501TIP3   OH243993   1.024   2.883  13.299 -0.4240 -0.4036  0.3528
 7501TIP3    H143994   1.010   2.789  13.315  1.0542 -0.6193  0.4085
 7501TIP3    H243995   1.040   2.889  13.205 -0.2605 -0.2363  0.3925
 7502TIP3   OH243996   3.251   3.386   4.088  0.3951 -0.5927  0.0576
 7502TIP3    H143997   3.266   3.327   4.014 -1.2756 -1.8084  0.6711
 7502TIP3    H243998   3.159   3.375   4.110  0.1826  1.8826  0.5277
 7503TIP3   OH243999   5.813   5.156  16.458 -0.0622 -0.2960  0.4586
 7503TIP3    H144000   5.905   5.129  16.454 -0.3065 -0.9875 -1.0557
 7503TIP3    H244001   5.800   5.209  16.379 -0.8335  0.2258  0.9340
 7504TIP3   OH244002   2.999   4.322   0.289  0.0396 -0.8004 -0.6971
 7504TIP3    H144003   2.928   4.362   0.238 -0.1128 -0.2885 -0.0912
 7504TIP3    H244004   3.032   4.252   0.233  0.2485  0.1101 -1.7397
 7505TIP3   OH244005   6.690   5.743   6.005 -0.0803 -0.0425 -0.5051
 7505TIP3    H144006   6.719   5.657   6.035 -4.5160 -1.0886  1.0864
 7505TIP3    H244007   6.691   5.798   6.083 -2.1673 -0.0729 -0.4356
 7506TIP3   OH244008   4.885   5.196  14.785 -0.1105  0.7730 -0.0439
 7506TIP3    H144009   4.913   5.273  14.833  0.4349  1.4844 -1.4652
 7506TIP3    H244010   4.932   5.123  14.827  0.6334  1.4220  0.2685
 7507TIP3   OH244011   0.511   2.290   1.554  0.4659  0.2784 -0.2756
 7507TIP3    H144012   0.590   2.237   1.565  2.4932  2.8384 -2.0666
 7507TIP3    H244013   0.459   2.242   1.490  1.7678 -0.0983 -1.0671
 7508TIP3   OH244014   5.627   5.173   3.355 -0.5535 -0.2224 -0.2035
 7508TIP3    H144015   5.720   5.185   3.374 -0.1812 -1.0760 -1.3963
 7508TIP3    H244016   5.626   5.114   3.279 -2.0473  0.5256 -0.7725
 7509TIP3   OH244017   5.104   4.707  14.458 -0.1298  0.6276  0.1490
 7509TIP3    H144018   5.018   4.666  14.467  0.4582 -0.3006  1.5957
 7509TIP3    H244019   5.108   4.734  14.366 -1.2146 -0.9765 -0.3817
 7510TIP3   OH244020   1.685   5.933   2.045 -0.1817 -0.5740  0.1470
 7510TIP3    H144021   1.748   5.968   2.107 -0.8998  0.6329  0.2093
 7510TIP3    H244022   1.641   5.863   2.093 -2.0506  1.5883  1.7074
 7511TIP3   OH244023   3.676   5.295   3.587 -0.5213  0.0568 -0.6245
 7511TIP3    H144024   3.633   5.338   3.512 -1.2141  0.0571 -0.2310
 7511TIP3    H244025   3.615   5.306   3.659 -0.6589 -1.4683 -0.4760
 7512TIP3   OH244026   2.312   1.076  11.960  0.5509  0.2373 -0.3039
 7512TIP3    H144027   2.322   1.163  12.000 -0.0350  0.8893 -1.5227
 7512TIP3    H244028   2.359   1.017  12.018  0.4818  1.2926  0.8458
 7513TIP3   OH244029   6.119   3.154   1.279 -0.2922 -0.1185  0.2705
 7513TIP3    H144030   6.109   3.060   1.296  1.3174 -0.4883 -0.6649
 7513TIP3    H244031   6.194   3.180   1.333  0.9370  0.0293 -1.4410
 7514TIP3   OH244032   2.845   5.677   1.693 -0.1733  0.1793 -0.1833
 7514TIP3    H144033   2.813   5.765   1.675 -0.2225  0.0722 -0.6107
 7514TIP3    H244034   2.811   5.624   1.621 -0.0796 -0.1735  0.0329
 7515TIP3   OH244035   6.110   3.817   0.017 -0.1796 -0.2365  0.0924
 7515TIP3    H144036   6.094   3.861  -0.066  0.6590  3.4190  1.7755
 7515TIP3    H244037   6.203   3.793   0.014 -0.1450 -0.0848 -0.0245
 7516TIP3   OH244038   4.502   4.114   5.927 -0.3109 -0.7185 -0.3443
 7516TIP3    H144039   4.458   4.120   6.012  0.0311 -1.9010 -0.0686
 7516TIP3    H244040   4.589   4.079   5.948 -0.0066 -0.4258 -1.1151
 7517TIP3   OH244041   6.749   6.231   2.805  0.6844  0.1205 -0.1989
 7517TIP3    H144042   6.723   6.295   2.872 -0.4304 -0.3881 -0.1335
 7517TIP3    H244043   6.794   6.163   2.855  0.4522  0.0734 -0.0499
 7518TIP3   OH244044   5.567   5.126  14.185  0.6708  0.0611 -0.1994
 7518TIP3    H144045   5.507   5.141  14.112  0.8597 -0.0653 -0.3831
 7518TIP3    H244046   5.581   5.031  14.186 -0.4170 -0.0941  0.8791
 7519TIP3   OH244047   4.063   2.017  12.583  0.3877  0.5058 -0.1497
 7519TIP3    H144048   4.066   2.061  12.498  2.8494  0.9943  0.1613
 7519TIP3    H244049   4.153   2.020  12.615 -0.1430 -1.3528  1.6349
 7520TIP3   OH244050   4.993   5.217   3.066  0.3703 -0.3180 -0.2767
 7520TIP3    H144051   5.001   5.311   3.083  0.2354  0.1449 -2.6717
 7520TIP3    H244052   4.961   5.181   3.149 -1.9805  2.0929 -0.0627
 7521TIP3   OH244053   5.750   0.892  12.165  0.5961 -0.3568 -0.8311
 7521TIP3    H144054   5.814   0.935  12.221  0.5515  0.0926 -1.1203
 7521TIP3    H244055   5.757   0.799  12.187 -0.1863 -0.0605  0.6766
 7522TIP3   OH244056   1.814   1.799  16.340 -0.7630 -0.2459  0.8714
 7522TIP3    H144057   1.863   1.881  16.332 -0.4664 -0.3271  1.7914
 7522TIP3    H244058   1.877   1.736  16.375 -0.6560 -1.2081 -0.9759
 7523TIP3   OH244059   6.076   3.447  11.286 -0.1197 -0.3480  0.2161
 7523TIP3    H144060   6.034   3.362  11.295  0.8666 -1.1761 -2.4992
 7523TIP3    H244061   6.110   3.467  11.373 -0.9408 -2.4063  1.0290
 7524TIP3   OH244062   6.070   3.985   5.130 -0.3650  0.2932  0.1286
 7524TIP3    H144063   6.052   4.079   5.126 -2.6699 -0.1798 -1.0441
 7524TIP3    H244064   6.110   3.972   5.217 -0.7930  2.2065  0.6372
 7525TIP3   OH244065   3.568   1.996  15.554  0.5271 -0.1178 -0.2328
 7525TIP3    H144066   3.541   1.979  15.645 -1.7231 -2.9185 -1.3545
 7525TIP3    H244067   3.553   2.090  15.542  0.3834  0.1973  2.1353
 7526TIP3   OH244068   5.993   0.569   3.044 -0.1640  0.1144 -0.0015
 7526TIP3    H144069   6.045   0.494   3.016  0.2952  0.0756  0.9417
 7526TIP3    H244070   5.950   0.600   2.964  0.5383 -0.4545 -0.6011
 7527TIP3   OH244071   6.802   6.148  16.732 -0.0674  0.2029  0.2082
 7527TIP3    H144072   6.733   6.201  16.771  0.1160 -0.4374  1.4280
 7527TIP3    H244073   6.883   6.191  16.759  0.0233  1.8630 -2.5237
 7528TIP3   OH244074   5.237   4.257  16.521 -0.2163  0.3141  0.4185
 7528TIP3    H144075   5.313   4.292  16.568 -0.2901  1.4500 -0.2814
 7528TIP3    H244076   5.274   4.194  16.460 -0.0075 -0.3560  1.2329
 7529TIP3   OH244077   1.571   2.238   2.905 -0.1567 -0.0973 -0.2501
 7529TIP3    H144078   1.636   2.309   2.912 -0.5151  0.1426  0.6123
 7529TIP3    H244079   1.491   2.282   2.877 -0.2114 -0.2549 -0.3398
 7530TIP3   OH244080   0.208   0.999   1.997 -0.3636 -0.1538 -0.0242
 7530TIP3    H144081   0.188   0.955   1.914 -0.0013  0.5964 -0.5215
 7530TIP3    H244082   0.126   1.042   2.021 -0.1668  0.5624 -0.5891
 7531TIP3   OH244083   5.931   1.733  13.931 -0.0847 -0.1961 -0.5342
 7531TIP3    H144084   5.962   1.818  13.964  2.0795 -1.2069  0.1303
 7531TIP3    H244085   5.867   1.705  13.997 -0.7296  0.8644 -0.6964
 7532TIP3   OH244086   4.106   0.379   2.769 -0.1161  0.3533 -0.7273
 7532TIP3    H144087   4.128   0.373   2.861 -1.0626 -0.3690 -0.5443
 7532TIP3    H244088   4.043   0.451   2.763 -2.0729 -1.3221 -0.4261
 7533TIP3   OH244089   3.446   5.008  12.466  0.4842 -0.1599 -0.0483
 7533TIP3    H144090   3.373   5.049  12.513 -0.7516 -1.3668 -0.8677
 7533TIP3    H244091   3.433   4.914  12.481  1.6293 -0.4042 -0.5676
 7534TIP3   OH244092   1.177   0.737   3.155  0.3195  0.1591  0.0487
 7534TIP3    H144093   1.265   0.701   3.140 -0.0294  0.0687 -1.8254
 7534TIP3    H244094   1.174   0.751   3.250  1.4384 -2.2371  0.4898
 7535TIP3   OH244095   5.940   6.380  15.098  0.2682  0.6247  0.2112
 7535TIP3    H144096   5.894   6.301  15.071  0.2824  0.4328  0.7483
 7535TIP3    H244097   6.007   6.349  15.159 -0.6044  1.2075  1.4761
 7536TIP3   OH244098   3.674   1.206  13.198  0.3818 -0.0727 -0.7643
 7536TIP3    H144099   3.724   1.229  13.276 -0.9496  0.4951 -0.0596
 7536TIP3    H244100   3.588   1.246  13.211 -0.2586 -0.9867 -1.9642
 7537TIP3   OH244101   4.460   5.356  13.078 -0.2954 -0.3411 -0.5945
 7537TIP3    H144102   4.401   5.376  13.151  0.7254  0.4553  0.0222
 7537TIP3    H244103   4.404   5.312  13.014 -1.6385  0.6510 -0.1480
 7538TIP3   OH244104   5.187   5.882   5.278  0.1488 -0.4084  0.2492
 7538TIP3    H144105   5.161   5.950   5.341  0.7875 -2.9179  3.4047
 7538TIP3    H244106   5.113   5.875   5.218 -0.7130  1.7684  0.9978
 7539TIP3   OH244107   5.855   4.752   2.023 -0.6361  0.1004  0.0085
 7539TIP3    H144108   5.785   4.814   2.007 -0.4400  0.1428 -0.7082
 7539TIP3    H244109   5.832   4.710   2.106 -1.6638 -0.0962 -0.3697
 7540TIP3   OH244110   4.921   5.902  11.522 -0.0038 -0.6401  0.0208
 7540TIP3    H144111   4.995   5.962  11.523 -0.2997 -0.2934  1.3377
 7540TIP3    H244112   4.942   5.835  11.587 -0.6786 -0.7315  0.1530
 7541TIP3   OH244113   2.578   3.447  14.584 -0.1676  0.5310  0.2959
 7541TIP3    H144114   2.524   3.438  14.506  0.9718 -0.5955 -0.3727
 7541TIP3    H244115   2.585   3.541  14.599 -2.6913  0.6967  0.6633
 7542TIP3   OH244116   6.618   6.244   2.571  0.4503 -0.5340  0.3120
 7542TIP3    H144117   6.601   6.157   2.536 -0.9836 -0.5695  1.0415
 7542TIP3    H244118   6.638   6.230   2.663 -0.6851 -0.0385  0.6518
 7543TIP3   OH244119   5.825   5.180  14.381  0.3046  0.6993 -0.0634
 7543TIP3    H144120   5.811   5.088  14.403  2.1810  0.1955 -0.8186
 7543TIP3    H244121   5.878   5.214  14.453  0.0850  1.0273 -0.0602
 7544TIP3   OH244122   4.674   1.364  14.963 -0.2668  0.2596 -0.1147
 7544TIP3    H144123   4.648   1.432  14.901 -2.0855 -0.8822 -0.6485
 7544TIP3    H244124   4.742   1.314  14.916 -1.6654 -0.6312 -1.2557
 7545TIP3   OH244125   0.511   2.358  11.208  0.1787 -0.1556 -0.6772
 7545TIP3    H144126   0.441   2.409  11.167  0.2896  0.2600 -0.3437
 7545TIP3    H244127   0.588   2.414  11.200 -0.5041  1.5068  3.3160
 7546TIP3   OH244128   4.171   6.479   5.027 -0.2101  0.1611 -0.1900
 7546TIP3    H144129   4.139   6.395   5.058 -3.2202  1.8389  1.5322
 7546TIP3    H244130   4.149   6.481   4.934  0.6242 -1.2572 -0.4250
 7547TIP3   OH244131   5.532   5.508  14.863  0.2819 -0.4001  0.0056
 7547TIP3    H144132   5.531   5.588  14.809  0.8617 -0.5239 -0.1977
 7547TIP3    H244133   5.570   5.442  14.805  0.6096 -0.6104  0.4615
 7548TIP3   OH244134   3.608   3.282   6.300  0.2531 -0.0277  0.0413
 7548TIP3    H144135   3.540   3.262   6.236  0.3982  1.2482 -0.5299
 7548TIP3    H244136   3.655   3.199   6.311 -1.3397 -0.9162  0.4044
 7549TIP3   OH244137   2.957   6.375  11.028  0.2217 -0.2646  0.1677
 7549TIP3    H144138   2.894   6.439  10.995 -0.5548 -2.1698 -2.2607
 7549TIP3    H244139   3.039   6.422  11.032 -0.4157  1.0175 -1.2195
 7550TIP3   OH244140   5.485   1.581   4.191 -0.3051  0.2910  0.2652
 7550TIP3    H144141   5.564   1.626   4.221  0.2965  0.2025 -1.1539
 7550TIP3    H244142   5.515   1.523   4.121 -1.6026  0.2147 -0.2453
 7551TIP3   OH244143   2.864   6.378  14.521 -0.1674 -0.2108 -0.2800
 7551TIP3    H144144   2.875   6.459  14.471  0.9392 -0.9513 -1.2717
 7551TIP3    H244145   2.773   6.379  14.549 -0.2599  1.2045 -0.6005
 7552TIP3   OH244146   1.009   0.087   1.043  0.8642 -0.3566 -0.4354
 7552TIP3    H144147   0.967   0.173   1.036 -1.1891 -1.4487 -2.0098
 7552TIP3    H244148   1.097   0.100   1.008  0.7964  1.2492 -0.0534
 7553TIP3   OH244149   6.715   0.405  14.501  0.4416 -0.2432  0.1492
 7553TIP3    H144150   6.771   0.363  14.436  0.5879  2.1885 -1.3296
 7553TIP3    H244151   6.727   0.499  14.487 -3.2108  0.3352  0.4680
 7554TIP3   OH244152   3.348   0.290  16.404 -0.1532  0.2568  0.1558
 7554TIP3    H144153   3.382   0.240  16.330 -4.0618 -1.1205 -0.8116
 7554TIP3    H244154   3.320   0.373  16.366 -0.2266  0.3886  0.4940
 7555TIP3   OH244155   6.168   6.793  13.852  0.3416  0.3580 -0.2834
 7555TIP3    H144156   6.082   6.763  13.824  0.4177  0.4348 -0.5960
 7555TIP3    H244157   6.150   6.871  13.905  0.1827  0.0713  0.0941
 7556TIP3   OH244158   3.335   5.643  13.576  0.3626 -0.3841 -0.1219
 7556TIP3    H144159   3.360   5.563  13.530 -1.8923 -0.5173 -1.1810
 7556TIP3    H244160   3.358   5.714  13.515 -0.8794 -0.4537 -0.6907
 7557TIP3   OH244161   6.628   0.644   2.274  0.7921 -0.4783  0.2832
 7557TIP3    H144162   6.634   0.548   2.274  1.9602 -0.4303 -1.3782
 7557TIP3    H244163   6.676   0.671   2.195 -0.9847  1.3709 -0.2202
 7558TIP3   OH244164   4.706   0.729  13.080  0.1840  0.0139 -0.1300
 7558TIP3    H144165   4.708   0.735  12.984  2.0011  1.4663 -0.0448
 7558TIP3    H244166   4.775   0.666  13.101 -0.8341 -0.9958  0.1841
 7559TIP3   OH244167   3.452   3.367   4.865 -0.2029 -0.2038 -0.6324
 7559TIP3    H144168   3.527   3.408   4.907 -0.7338 -1.7392  1.8813
 7559TIP3    H244169   3.486   3.332   4.783  2.1757 -2.1253  1.1181
 7560TIP3   OH244170   6.010   2.913   1.286  0.1623  0.2952  0.2111
 7560TIP3    H144171   5.984   2.821   1.282  0.3134  0.3191 -1.6035
 7560TIP3    H244172   5.928   2.959   1.303 -0.0187 -0.1149  0.4717
 7561TIP3   OH244173   0.819   5.352   1.194 -0.1973  0.3649 -0.6620
 7561TIP3    H144174   0.755   5.420   1.218  1.0547  1.3896 -0.1702
 7561TIP3    H244175   0.826   5.298   1.273 -0.8860 -0.0986 -0.9135
 7562TIP3   OH244176   0.801   1.046  16.569 -0.5664  0.1138 -0.6204
 7562TIP3    H144177   0.726   0.986  16.575 -2.8726  2.9372  0.0963
 7562TIP3    H244178   0.762   1.133  16.579  2.9106  1.6361  0.2256
 7563TIP3   OH244179   2.605   2.121  11.200  0.3248  0.1511  0.3696
 7563TIP3    H144180   2.622   2.169  11.281 -0.6898  0.5997  0.3236
 7563TIP3    H244181   2.533   2.062  11.222  0.0235  0.3014 -0.2135
 7564TIP3   OH244182   3.643   1.994   6.883  0.6137  0.2044 -0.5259
 7564TIP3    H144183   3.622   2.060   6.817  0.4496 -0.4105 -1.0935
 7564TIP3    H244184   3.580   2.009   6.953  0.8901  0.9620 -0.4417
 7565TIP3   OH244185   2.616   5.165  15.661  0.0825 -0.2456 -0.4213
 7565TIP3    H144186   2.698   5.160  15.612 -0.4507 -1.6774 -1.2147
 7565TIP3    H244187   2.643   5.164  15.753  0.9546 -0.7027 -0.6721
 7566TIP3   OH244188   3.806   0.884   4.694 -0.2712  0.1327  0.3851
 7566TIP3    H144189   3.722   0.930   4.690 -0.0772  0.3966 -0.7525
 7566TIP3    H244190   3.864   0.946   4.738  0.6224  2.0267 -3.2681
 7567TIP3   OH244191   3.579   2.951  12.503 -0.2290  0.2624  0.4261
 7567TIP3    H144192   3.519   3.010  12.549 -0.5733  0.3624 -0.1472
 7567TIP3    H244193   3.624   3.008  12.440  1.4625  0.4582  1.7891
 7568TIP3   OH244194   3.376   6.465   4.846  0.0778 -0.0189 -0.1225
 7568TIP3    H144195   3.285   6.455   4.818 -0.2593  0.8357  0.6511
 7568TIP3    H244196   3.427   6.437   4.770 -0.8342  1.9652 -1.5323
 7569TIP3   OH244197   2.408   3.608   5.301 -0.0287 -0.4570 -0.3026
 7569TIP3    H144198   2.481   3.659   5.265 -1.0576  1.4011  0.2197
 7569TIP3    H244199   2.363   3.573   5.224  0.1862  0.1171 -0.6936
 7570TIP3   OH244200   2.379   2.205   5.141  0.3482 -0.8848  0.3107
 7570TIP3    H144201   2.414   2.272   5.083  0.9272  0.0230  1.6810
 7570TIP3    H244202   2.375   2.126   5.087  0.8767 -0.0641 -0.9511
 7571TIP3   OH244203   0.011   1.310   3.036  0.2343 -0.5441 -0.1406
 7571TIP3    H144204  -0.018   1.396   3.007  1.2902  0.7119  2.3358
 7571TIP3    H244205  -0.063   1.275   3.084  1.3180  1.0006  2.8077
 7572TIP3   OH244206   3.071   6.300   0.036 -0.3148 -0.0365  0.3345
 7572TIP3    H144207   3.133   6.232   0.008 -0.5987 -0.3854  0.5400
 7572TIP3    H244208   3.119   6.382   0.026 -0.7685 -0.0536 -2.1959
 7573TIP3   OH244209   1.228   5.981   2.668 -0.0376  0.7094  0.0811
 7573TIP3    H144210   1.307   5.929   2.652 -2.1024 -2.0032 -1.5634
 7573TIP3    H244211   1.228   6.046   2.598 -0.5000 -0.7934 -1.3236
 7574TIP3   OH244212   6.081   4.601  15.575  0.0382  0.6293 -0.0493
 7574TIP3    H144213   6.030   4.520  15.570 -0.8135  1.0673  1.2953
 7574TIP3    H244214   6.151   4.589  15.511  0.3568 -1.4890  0.6610
 7575TIP3   OH244215   6.328   1.212  12.836 -0.0757  0.2841 -0.7901
 7575TIP3    H144216   6.325   1.143  12.770 -0.0030 -1.1631  0.6927
 7575TIP3    H244217   6.273   1.180  12.908  1.7541  0.7399  0.8628
 7576TIP3   OH244218   5.663   4.743  11.591 -0.2509 -0.3499 -0.0225
 7576TIP3    H144219   5.689   4.775  11.505  0.3223  0.3465  0.4042
 7576TIP3    H244220   5.641   4.822  11.641 -2.0334 -0.8388  0.0112
 7577TIP3   OH244221   2.924   6.137   0.418  0.1986  0.1578  0.2698
 7577TIP3    H144222   2.961   6.072   0.358 -2.7313 -1.5752  0.2604
 7577TIP3    H244223   2.937   6.221   0.373  0.4067 -0.8403 -1.5845
 7578TIP3   OH244224   0.908   3.893  12.481 -0.0005 -0.0049  0.0921
 7578TIP3    H144225   0.829   3.843  12.458 -0.3339  0.9064 -0.7530
 7578TIP3    H244226   0.948   3.842  12.551 -0.0328 -1.7929 -1.1499
 7579TIP3   OH244227   3.480   1.434  13.307 -0.2475 -0.2630  0.1275
 7579TIP3    H144228   3.402   1.393  13.346 -0.9974  0.9221 -0.0809
 7579TIP3    H244229   3.460   1.528  13.308  1.7651  0.1797  1.3007
 7580TIP3   OH244230   1.719   5.846   0.437 -0.1528 -0.5818  0.5097
 7580TIP3    H144231   1.798   5.793   0.425 -0.4308 -0.8941  0.0302
 7580TIP3    H244232   1.673   5.805   0.510 -0.0122 -0.5728  0.6023
 7581TIP3   OH244233   3.329   2.399  10.840 -0.0804  0.3768 -0.3503
 7581TIP3    H144234   3.353   2.440  10.923  0.1433 -1.2951  0.4345
 7581TIP3    H244235   3.408   2.355  10.811 -1.0651 -1.8359  0.2476
 7582TIP3   OH244236   4.051   6.688  12.206  0.2674 -0.2958 -0.0036
 7582TIP3    H144237   4.072   6.599  12.235  1.3053 -1.1740 -3.2552
 7582TIP3    H244238   4.044   6.681  12.111 -0.1640  3.0227 -0.2637
 7583TIP3   OH244239   6.699   2.454  17.006  0.1018 -0.2188 -0.6720
 7583TIP3    H144240   6.653   2.508  16.941  1.0286  1.2671 -0.1256
 7583TIP3    H244241   6.787   2.445  16.971  1.0456  1.8554  1.0580
 7584TIP3   OH244242   0.976   2.844  10.971  0.5284 -0.0271  0.1951
 7584TIP3    H144243   1.031   2.835  10.894 -0.2993 -1.3643 -0.2503
 7584TIP3    H244244   0.894   2.882  10.938 -0.1561 -1.4232  0.2553
 7585TIP3   OH244245   0.876   6.090  16.740 -0.4983  0.1922 -0.1611
 7585TIP3    H144246   0.912   6.121  16.656  0.9479  1.5687  0.9277
 7585TIP3    H244247   0.813   6.157  16.765 -1.1734 -0.3894 -0.3076
 7586TIP3   OH244248   1.135   4.188   5.819 -0.1550  0.3444 -0.1804
 7586TIP3    H144249   1.067   4.181   5.885  0.2547  0.2503  0.2326
 7586TIP3    H244250   1.207   4.235   5.862  0.0461  0.4378 -0.6084
 7587TIP3   OH244251   6.713   6.029  14.478  0.6901  0.4409 -0.0188
 7587TIP3    H144252   6.638   6.081  14.506  0.3708  0.2971 -0.5893
 7587TIP3    H244253   6.701   5.944  14.522 -0.1422  0.0053 -1.0596
 7588TIP3   OH244254   2.970   2.009   3.749  0.2884  0.0465  0.3425
 7588TIP3    H144255   3.029   2.082   3.769 -0.8801  1.1249 -0.1551
 7588TIP3    H244256   2.993   1.983   3.660 -1.7964  2.2350 -0.8803
 7589TIP3   OH244257   2.702   6.786   1.575 -0.1221  0.0839  0.1176
 7589TIP3    H144258   2.760   6.778   1.652  0.0767  2.6553  0.2828
 7589TIP3    H244259   2.755   6.755   1.502  0.8044  0.5759  0.5664
 7590TIP3   OH244260   4.852   0.777  13.954  0.2232 -0.0081 -0.0737
 7590TIP3    H144261   4.789   0.833  13.998 -1.3428 -0.6711 -1.4097
 7590TIP3    H244262   4.889   0.832  13.885  1.2803  0.4438  0.8386
 7591TIP3   OH244263   4.261   2.100  15.438 -0.2872 -0.2167  0.8267
 7591TIP3    H144264   4.189   2.042  15.412  0.4839 -0.0399 -1.8119
 7591TIP3    H244265   4.325   2.042  15.479 -1.4186 -0.5257  2.2403
 7592TIP3   OH244266   6.818   4.410   5.178  0.2938  0.1525  0.6882
 7592TIP3    H144267   6.877   4.426   5.251  0.2634 -0.0031  0.7475
 7592TIP3    H244268   6.740   4.372   5.218  0.6531 -0.8371  0.4776
 7593TIP3   OH244269   1.186   3.540  12.129 -0.0055  0.5774 -0.0681
 7593TIP3    H144270   1.229   3.603  12.070  1.3296  1.2854  1.5990
 7593TIP3    H244271   1.169   3.464  12.074 -0.7225  2.0067 -1.8872
 7594TIP3   OH244272   6.669   1.203   2.716  0.0418  0.3743 -0.3373
 7594TIP3    H144273   6.589   1.254   2.731 -0.3498 -0.2491 -0.3018
 7594TIP3    H244274   6.675   1.196   2.621 -1.5839 -2.1387 -0.2952
 7595TIP3   OH244275   1.688   2.236   4.380  0.3480  0.4561  0.1474
 7595TIP3    H144276   1.644   2.315   4.410  0.0996  0.1437  0.6153
 7595TIP3    H244277   1.737   2.205   4.456  1.4889  0.8685 -0.4070
 7596TIP3   OH244278   1.636   3.642   0.663  0.3835  0.0499  0.0256
 7596TIP3    H144279   1.587   3.570   0.702 -2.1844  2.3348  1.1697
 7596TIP3    H244280   1.591   3.663   0.582 -0.9521  2.4692  1.3102
 7597TIP3   OH244281   1.569   2.527  16.713  0.1260 -0.3933  0.5854
 7597TIP3    H144282   1.504   2.458  16.706  0.6074 -0.9197  1.2344
 7597TIP3    H244283   1.561   2.558  16.803 -0.0740  0.3882  0.3043
 7598TIP3   OH244284   6.632   3.875   4.340 -0.1808 -0.4868 -0.1050
 7598TIP3    H144285   6.655   3.820   4.414 -0.1886  0.6938  0.7993
 7598TIP3    H244286   6.646   3.820   4.263 -0.0826 -1.6951  0.7627
 7599TIP3   OH244287   5.154   2.402   1.858 -0.4428  0.6156  0.3915
 7599TIP3    H144288   5.249   2.410   1.857 -0.4993  1.3429 -0.4293
 7599TIP3    H244289   5.136   2.311   1.837  0.0786  0.3216  1.1935
 7600TIP3   OH244290   0.606   2.658   3.170  0.2321 -0.2500 -0.4133
 7600TIP3    H144291   0.610   2.646   3.075 -0.8874 -1.2560 -0.3432
 7600TIP3    H244292   0.528   2.711   3.184  1.2516  1.2096 -0.1611
 7601TIP3   OH244293   4.679   4.963  11.339 -0.4113 -0.1362 -0.2069
 7601TIP3    H144294   4.684   4.955  11.435  0.6660 -0.7737 -0.3074
 7601TIP3    H244295   4.594   4.926  11.316 -0.2820 -0.8301  0.4181
 7602TIP3   OH244296   5.166   5.229   4.556 -0.1536 -0.3302  0.6639
 7602TIP3    H144297   5.102   5.199   4.620 -2.3497  0.3542 -1.1557
 7602TIP3    H244298   5.193   5.149   4.509  0.6580 -0.6746  1.6964
 7603TIP3   OH244299   0.736   3.230   0.262  0.5528  0.1666 -0.0211
 7603TIP3    H144300   0.682   3.303   0.232  0.3202  0.7112  1.6547
 7603TIP3    H244301   0.787   3.204   0.185  0.0423  1.5681 -0.8464
 7604TIP3   OH244302   2.309   1.628   5.277 -0.6708  0.0218  0.5220
 7604TIP3    H144303   2.245   1.614   5.346  1.7744 -0.3003  2.8355
 7604TIP3    H244304   2.337   1.719   5.289 -0.1924 -0.0503 -0.0260
 7605TIP3   OH244305   4.072   0.085  14.770 -0.4795 -0.3681  0.3296
 7605TIP3    H144306   4.011   0.120  14.836  0.1691  0.5419  0.4542
 7605TIP3    H244307   4.130   0.028  14.820 -0.1466  0.1251  0.5135
 7606TIP3   OH244308   5.160   3.751  12.754  0.7452 -0.8775  0.5948
 7606TIP3    H144309   5.125   3.841  12.752 -1.1330 -1.5887  0.9219
 7606TIP3    H244310   5.229   3.752  12.688  0.2936  0.6331  0.1042
 7607TIP3   OH244311   4.953   2.517   3.302  0.3153  0.6809 -0.1634
 7607TIP3    H144312   4.863   2.487   3.308  0.6329 -0.1735  0.4794
 7607TIP3    H244313   4.994   2.484   3.382  1.6488 -0.4721 -1.2947
 7608TIP3   OH244314   4.531   5.625  14.130  0.2763  0.2253  0.0040
 7608TIP3    H144315   4.545   5.532  14.149  1.6116  0.8164  2.1203
 7608TIP3    H244316   4.460   5.651  14.189 -0.4796  0.4171 -0.9905
 7609TIP3   OH244317   3.397   4.405   2.769  0.1694  0.1860  0.0593
 7609TIP3    H144318   3.439   4.342   2.710 -2.4446 -0.1547 -1.5449
 7609TIP3    H244319   3.413   4.490   2.728 -2.0625 -0.0917 -1.5075
 7610TIP3   OH244320   5.049   2.870   1.738 -0.4832 -0.7623  0.1820
 7610TIP3    H144321   5.130   2.848   1.693 -0.6606 -2.7705  0.8012
 7610TIP3    H244322   5.075   2.936   1.803  1.0221 -2.7629  1.6532
 7611TIP3   OH244323   3.556   5.603  11.937 -0.9206  0.3727  0.1501
 7611TIP3    H144324   3.469   5.587  11.973 -0.2817 -0.3614  1.4238
 7611TIP3    H244325   3.586   5.517  11.909 -0.3169  0.5008  0.3965
 7612TIP3   OH244326   6.660   3.759  17.014  0.2833  0.1615  0.4507
 7612TIP3    H144327   6.674   3.791  16.924  1.6459 -0.9038  0.2749
 7612TIP3    H244328   6.592   3.692  17.005 -0.4356  0.8755  0.4031
 7613TIP3   OH244329   1.664   5.121  15.071 -0.5789  0.1986  0.1400
 7613TIP3    H144330   1.727   5.124  15.143 -2.0648 -0.5347  1.5249
 7613TIP3    H244331   1.683   5.040  15.025  1.4759  1.4855 -1.3654
 7614TIP3   OH244332   2.439   6.745  16.301  0.2582 -0.2230  0.0662
 7614TIP3    H144333   2.451   6.754  16.206  2.1959 -1.3150  0.1890
 7614TIP3    H244334   2.359   6.794  16.319 -0.8840 -1.0815 -2.3439
 7615TIP3   OH244335   1.735   1.604   4.542 -0.2183 -0.1722  0.6975
 7615TIP3    H144336   1.797   1.595   4.469 -0.5900  0.2936  0.3185
 7615TIP3    H244337   1.790   1.623   4.618  0.0271  1.4452  0.1362
 7616TIP3   OH244338   1.979   3.603  14.084  0.0911 -0.2160  0.0111
 7616TIP3    H144339   1.989   3.609  14.179 -0.6565  1.2930 -0.0005
 7616TIP3    H244340   2.025   3.522  14.061  2.3075  0.5914  1.3661
 7617TIP3   OH244341   1.188   6.385   5.198 -0.1563  0.9284  0.5637
 7617TIP3    H144342   1.252   6.354   5.133  0.1787 -4.8218  3.3954
 7617TIP3    H244343   1.105   6.387   5.151  0.7865  1.1848 -1.1429
 7618TIP3   OH244344   5.976   5.688   2.128  0.3878  0.2951  0.4484
 7618TIP3    H144345   6.044   5.733   2.178  0.5032  1.1132 -0.4376
 7618TIP3    H244346   6.018   5.607   2.098  0.8191  0.5670  0.3128
 7619TIP3   OH244347   6.699   0.779   6.599  0.2008 -0.2050  0.3429
 7619TIP3    H144348   6.787   0.742   6.607  1.0072  1.2296 -1.4361
 7619TIP3    H244349   6.693   0.843   6.670  0.4051 -0.6527  0.7647
 7620TIP3   OH244350   2.094   0.206  15.494 -0.4686  0.2372  0.1106
 7620TIP3    H144351   2.093   0.218  15.399 -2.1823  1.1391  0.2279
 7620TIP3    H244352   2.176   0.247  15.523 -0.6553  1.2505 -0.8036
 7621TIP3   OH244353   3.829   6.270  15.022  0.0426 -0.3370  0.1658
 7621TIP3    H144354   3.894   6.290  14.955 -0.0575  0.6665  0.3636
 7621TIP3    H244355   3.880   6.239  15.097  0.2003 -0.7628 -0.1144
 7622TIP3   OH244356   2.872   1.284  12.732 -0.5653 -0.1102  0.3591
 7622TIP3    H144357   2.954   1.282  12.782 -0.6607  0.4743  0.5402
 7622TIP3    H244358   2.899   1.308  12.643 -0.6469  1.0725  0.6448
 7623TIP3   OH244359   0.369   6.220  13.835 -0.4937  0.8499  0.1586
 7623TIP3    H144360   0.292   6.183  13.878 -2.4979  3.6748 -0.8586
 7623TIP3    H244361   0.425   6.249  13.907 -0.2012 -1.4289  0.9106
 7624TIP3   OH244362   2.707   3.900  11.215 -0.2274  0.6747  0.1672
 7624TIP3    H144363   2.611   3.895  11.214 -0.2838  1.6483 -0.1947
 7624TIP3    H244364   2.735   3.824  11.265 -1.1785  0.1771 -0.0513
 7625TIP3   OH244365   3.461   0.400  11.623  0.1485 -0.1375  0.2256
 7625TIP3    H144366   3.439   0.463  11.554  1.5582  1.0989  0.8493
 7625TIP3    H244367   3.540   0.357  11.592 -0.2880 -0.9441  0.2221
 7626TIP3   OH244368   5.057   6.790  13.791 -0.0310  0.6469 -0.1083
 7626TIP3    H144369   5.066   6.793  13.696  0.0332  0.2635 -0.1121
 7626TIP3    H244370   5.050   6.882  13.817 -0.6152  0.7235 -0.5380
 7627TIP3   OH244371   4.528   1.703  15.123  0.0100  0.0946  0.1386
 7627TIP3    H144372   4.468   1.657  15.181  1.1762  0.2956  1.5424
 7627TIP3    H244373   4.548   1.785  15.169  1.2841  0.0727 -0.3480
 7628TIP3   OH244374   1.350   0.382   1.389  0.0323  0.6314  0.0303
 7628TIP3    H144375   1.437   0.345   1.409  0.2989 -0.1607 -2.3945
 7628TIP3    H244376   1.367   0.447   1.321 -1.1252  1.5210  0.5709
 7629TIP3   OH244377   0.172   6.375  13.191  0.8019  0.0037  0.1482
 7629TIP3    H144378   0.250   6.418  13.157  1.6699 -0.6561  1.2955
 7629TIP3    H244379   0.118   6.447  13.224  1.1559  0.4129 -0.1488
 7630TIP3   OH244380   3.914   4.015   2.490  0.1975  0.0935 -0.1022
 7630TIP3    H144381   3.887   4.083   2.552  1.1663 -1.5776  2.2424
 7630TIP3    H244382   3.851   4.020   2.418  0.3454  3.5359 -0.0492
 7631TIP3   OH244383   6.229   4.463  14.345  0.6875  0.6091  0.4628
 7631TIP3    H144384   6.193   4.533  14.290  1.3665  0.6680  0.0836
 7631TIP3    H244385   6.162   4.448  14.412 -0.8726 -0.5717 -1.3013
 7632TIP3   OH244386   1.074   5.931   6.318  0.3638  0.6427 -0.2153
 7632TIP3    H144387   1.031   6.014   6.340 -0.1832 -0.1952  1.9551
 7632TIP3    H244388   1.011   5.886   6.262  0.4937  1.5051 -1.0768
 7633TIP3   OH244389   1.858   2.037   0.602  0.2551  0.4878  0.5489
 7633TIP3    H144390   1.946   2.071   0.586  0.6751 -1.4159 -1.3162
 7633TIP3    H244391   1.872   1.953   0.645 -0.7105  0.9500  1.8042
 7634TIP3   OH244392   2.833   4.165   6.176 -0.3364 -0.3489 -0.1924
 7634TIP3    H144393   2.916   4.200   6.144 -0.1902  0.6142  1.1881
 7634TIP3    H244394   2.770   4.236   6.164 -0.2603  0.0661  1.6855
 7635TIP3   OH244395   4.929   4.400  14.712  0.2563 -0.0015  0.0714
 7635TIP3    H144396   5.006   4.434  14.756  0.5787  1.1514 -1.3480
 7635TIP3    H244397   4.857   4.457  14.740  0.2931  0.1881 -0.2300
 7636TIP3   OH244398   1.157   4.442   1.376  0.0675 -0.0926 -0.1257
 7636TIP3    H144399   1.116   4.365   1.416  2.1513 -1.2996 -0.2787
 7636TIP3    H244400   1.210   4.407   1.305 -1.3829  1.8038 -2.2187
 7637TIP3   OH244401   4.172   5.320   0.419  0.2863  0.2128 -0.1540
 7637TIP3    H144402   4.256   5.281   0.396  0.8757  1.1214  0.4376
 7637TIP3    H244403   4.112   5.289   0.351  0.8821 -1.1992 -0.0462
 7638TIP3   OH244404   0.102   1.434   5.822  0.1207  0.1736  0.0802
 7638TIP3    H144405   0.185   1.469   5.854  0.7146 -2.0610  1.1500
 7638TIP3    H244406   0.126   1.350   5.783 -1.6095 -0.4407  0.3164
 7639TIP3   OH244407   0.766   5.704   4.549  0.3680  0.8217 -0.6985
 7639TIP3    H144408   0.827   5.633   4.564 -1.3713 -0.2881  1.5655
 7639TIP3    H244409   0.712   5.676   4.475 -0.3311 -0.2720  0.2061
 7640TIP3   OH244410   1.017   5.433  16.197  0.3991  0.0023  0.4373
 7640TIP3    H144411   1.052   5.515  16.162  2.0507 -0.7309  0.3176
 7640TIP3    H244412   1.053   5.365  16.141  0.1027 -0.9123  1.3330
 7641TIP3   OH244413   2.577   1.113   0.208 -0.5053  0.9756 -0.3495
 7641TIP3    H144414   2.605   1.203   0.189 -0.4922  1.0270 -0.0870
 7641TIP3    H244415   2.637   1.058   0.159 -1.0588  1.1350 -1.2147
 7642TIP3   OH244416   1.575   0.753  16.738  0.1562  0.4289 -0.1555
 7642TIP3    H144417   1.492   0.717  16.769  1.1032 -0.7422  1.0908
 7642TIP3    H244418   1.563   0.848  16.739 -0.7666  0.3023  1.1941
 7643TIP3   OH244419   0.318   0.833   1.507  0.0018  0.5372 -0.0536
 7643TIP3    H144420   0.377   0.909   1.505  0.4419  0.1849 -0.7093
 7643TIP3    H244421   0.230   0.870   1.509  0.1512  1.0808 -2.3749
 7644TIP3   OH244422   1.241   2.604   2.144 -0.1285 -0.1303  0.3287
 7644TIP3    H144423   1.284   2.582   2.227 -2.0912 -1.9545  0.8905
 7644TIP3    H244424   1.152   2.570   2.153 -0.7689  0.8319 -2.0263
 7645TIP3   OH244425   0.066   1.904   2.162  0.2919 -0.5389 -0.0387
 7645TIP3    H144426   0.063   1.985   2.212  0.5910  0.4977 -1.6734
 7645TIP3    H244427  -0.023   1.894   2.127  0.5070 -0.3888 -0.6394
 7646TIP3   OH244428   1.115   0.872   6.281 -0.1763 -0.0883  0.1589
 7646TIP3    H144429   1.205   0.840   6.287 -0.2332 -0.2178  0.3304
 7646TIP3    H244430   1.106   0.933   6.355  0.2666  1.1548 -0.7976
 7647TIP3   OH244431   2.203   3.743  15.989  0.9432  0.0771  0.4436
 7647TIP3    H144432   2.195   3.815  15.927  1.1927 -0.2998 -0.0276
 7647TIP3    H244433   2.124   3.691  15.977 -0.2410  1.3796  2.2214
 7648TIP3   OH244434   5.244   2.499   2.452 -0.1887  0.5547 -0.9027
 7648TIP3    H144435   5.219   2.417   2.495 -2.0907  1.6876  0.2515
 7648TIP3    H244436   5.190   2.566   2.495  3.9164  3.0268  0.7731
 7649TIP3   OH244437   1.455   0.019  16.590 -0.0990 -0.1351 -0.5034
 7649TIP3    H144438   1.492  -0.006  16.506  1.6602 -0.4134  0.3284
 7649TIP3    H244439   1.459   0.115  16.591  2.5920 -0.2018  0.4003
 7650TIP3   OH244440   3.707   2.100   1.970 -0.0752  0.2810 -0.1847
 7650TIP3    H144441   3.694   2.090   2.064  2.2261  0.7440  0.2243
 7650TIP3    H244442   3.742   2.189   1.960 -2.1898  0.9732 -1.6963
 7651TIP3   OH244443   0.091   6.366  14.151 -0.0809 -0.4444  0.2762
 7651TIP3    H144444   0.080   6.392  14.243 -0.5631 -0.8040  0.3209
 7651TIP3    H244445   0.185   6.363  14.138 -0.0004  1.8543  0.1295
 7652TIP3   OH244446   0.928   3.859  13.460 -0.0470 -0.0303 -0.9556
 7652TIP3    H144447   0.843   3.848  13.503  0.6061  0.3971  0.4925
 7652TIP3    H244448   0.983   3.791  13.499  1.0667  1.5294  0.2898
 7653TIP3   OH244449   5.119   4.877  13.371  0.2234 -0.0711  0.8001
 7653TIP3    H144450   5.140   4.822  13.447 -0.2363 -0.1966  0.8403
 7653TIP3    H244451   5.140   4.966  13.400  1.5292 -0.2799  0.5318
 7654TIP3   OH244452   6.622   0.580  13.787 -0.6350  0.3076  0.0207
 7654TIP3    H144453   6.556   0.617  13.730 -0.4007  0.7326  0.0242
 7654TIP3    H244454   6.620   0.486  13.769  0.6603  0.6304 -1.9863
 7655TIP3   OH244455   5.589   0.443   6.243 -0.3914  0.2814 -0.7059
 7655TIP3    H144456   5.564   0.522   6.291 -1.1963  0.0790 -0.7875
 7655TIP3    H244457   5.537   0.373   6.284  2.0202 -0.6180  0.9352
 7656TIP3   OH244458   4.198   5.815   4.514 -0.4268 -0.7754 -0.3208
 7656TIP3    H144459   4.168   5.756   4.583 -2.2277 -1.6581 -1.8172
 7656TIP3    H244460   4.259   5.763   4.462  1.6815  0.1863  1.1239
 7657TIP3   OH244461   1.666   0.602   5.186  0.1439 -0.2209 -0.1404
 7657TIP3    H144462   1.756   0.609   5.154  0.0602  0.1178 -0.2974
 7657TIP3    H244463   1.613   0.591   5.107  0.1760 -1.7569  0.0234
 7658TIP3   OH244464   3.956   5.543  11.259 -0.2848 -0.2815 -0.1386
 7658TIP3    H144465   4.011   5.468  11.236  0.5447  0.4860 -0.7310
 7658TIP3    H244466   3.900   5.512  11.330 -0.8967 -1.8464 -1.3098
 7659TIP3   OH244467   3.900   3.824  12.879 -0.1049 -0.1397 -0.6027
 7659TIP3    H144468   3.875   3.762  12.810 -0.7641  0.1916 -0.6755
 7659TIP3    H244469   3.917   3.770  12.956 -0.3129 -0.4430 -0.7673
 7660TIP3   OH244470   5.288   5.327   2.127  0.1981 -0.1897  0.3635
 7660TIP3    H144471   5.365   5.303   2.074  1.3824 -0.7309  2.2958
 7660TIP3    H244472   5.316   5.405   2.175 -0.6129 -0.1575  0.7818
 7661TIP3   OH244473   4.965   1.389   0.142  0.4057 -0.2901 -0.4697
 7661TIP3    H144474   4.985   1.296   0.136  1.2717 -0.2235  0.8898
 7661TIP3    H244475   4.938   1.401   0.233  3.3669  1.2953  0.2879
 7662TIP3   OH244476   5.069   0.911  15.809 -0.1102 -0.2795 -0.5200
 7662TIP3    H144477   5.160   0.901  15.835 -0.3780 -0.1361  0.5061
 7662TIP3    H244478   5.061   0.860  15.728  0.6357 -1.1187 -0.0703
 7663TIP3   OH244479   1.282   2.907  17.026 -0.3594 -0.2077  0.7820
 7663TIP3    H144480   1.318   2.842  16.965  0.8878  1.7270 -0.5847
 7663TIP3    H244481   1.247   2.854  17.098 -1.6117 -2.5212 -1.4419
 7664TIP3   OH244482   3.173   2.933  15.792  0.1041 -0.8002  0.0733
 7664TIP3    H144483   3.259   2.890  15.798  0.6236  0.2098 -0.0231
 7664TIP3    H244484   3.127   2.904  15.871  0.6573 -1.0869  0.2962
 7665TIP3   OH244485   5.441   2.987  15.397 -0.0570  0.1029  0.5612
 7665TIP3    H144486   5.392   3.058  15.357  0.0324 -0.8668 -1.3670
 7665TIP3    H244487   5.532   3.018  15.396 -0.2649  0.7462  1.5131
 7666TIP3   OH244488   2.130   5.227  15.992  0.2125 -0.0807  0.5936
 7666TIP3    H144489   2.152   5.308  15.945 -0.5092 -1.2226 -1.8214
 7666TIP3    H244490   2.211   5.202  16.037  1.4887  0.1082 -1.5372
 7667TIP3   OH244491   4.627   1.067  10.759 -0.9019 -0.5242 -0.4163
 7667TIP3    H144492   4.698   1.071  10.695 -1.2363  0.3343 -0.7397
 7667TIP3    H244493   4.558   1.121  10.721 -0.6037  1.1106  1.2781
 7668TIP3   OH244494   0.734   2.996  17.215  0.3843 -0.1284  0.4045
 7668TIP3    H144495   0.755   2.958  17.129 -1.1669  1.2781 -0.6301
 7668TIP3    H244496   0.764   3.086  17.210 -0.4324  0.1902  1.0444
 7669TIP3   OH244497   6.694   0.174   4.907 -0.4736  0.1968 -0.5270
 7669TIP3    H144498   6.642   0.223   4.843 -0.1215 -0.0283 -0.9935
 7669TIP3    H244499   6.661   0.084   4.901 -2.3791  0.6958  1.6373
 7670TIP3   OH244500   0.321   4.366  14.295 -0.0498  0.1169  0.3466
 7670TIP3    H144501   0.415   4.365  14.315 -0.0289  1.0940  0.3513
 7670TIP3    H244502   0.317   4.361  14.200 -0.0280 -0.8477  0.3906
 7671TIP3   OH244503   4.957   1.970   2.603 -0.2802 -0.0378 -0.1017
 7671TIP3    H144504   4.874   1.927   2.626  0.1662 -0.9864 -0.2356
 7671TIP3    H244505   4.931   2.054   2.566 -1.2274 -0.7696 -1.1085
 7672TIP3   OH244506   3.331   0.568   3.518 -0.1613  0.1915 -0.6210
 7672TIP3    H144507   3.361   0.603   3.434 -0.4427  2.5415  0.2085
 7672TIP3    H244508   3.237   0.588   3.519  0.0603  1.2502  0.7207
 7673TIP3   OH244509   4.580   2.665   3.749  0.5223  0.0783  0.3691
 7673TIP3    H144510   4.605   2.679   3.840  0.4287  1.6480  0.1687
 7673TIP3    H244511   4.484   2.672   3.750  0.2753 -2.7418  0.6053
 7674TIP3   OH244512   5.210   6.098  13.766  0.3282 -0.1624 -0.2820
 7674TIP3    H144513   5.178   6.114  13.677 -1.6430 -0.4464  0.3317
 7674TIP3    H244514   5.249   6.181  13.793 -0.9700  0.5905 -0.6715
 7675TIP3   OH244515   1.049   5.586  14.496 -0.0699 -0.6056 -0.1129
 7675TIP3    H144516   1.100   5.600  14.416 -0.2720 -1.1671 -0.3461
 7675TIP3    H244517   1.086   5.507  14.534  0.6260  0.1673  0.8338
 7676TIP3   OH244518   6.160   6.087   5.806  0.4543  0.8669  0.6486
 7676TIP3    H144519   6.119   6.086   5.892 -0.4238  1.0760  0.2384
 7676TIP3    H244520   6.181   5.996   5.788 -0.6502  0.6311  0.4875
 7677TIP3   OH244521   0.450   6.456   2.332  0.0936 -0.1612  0.6201
 7677TIP3    H144522   0.467   6.543   2.295  1.7004 -0.7437 -0.0723
 7677TIP3    H244523   0.537   6.417   2.342 -0.6659 -2.2104 -0.3942
 7678TIP3   OH244524   6.009   5.918   2.632  0.8632  0.6342 -0.4353
 7678TIP3    H144525   6.025   5.825   2.616 -0.5842  0.3285 -0.2020
 7678TIP3    H244526   6.014   5.958   2.545 -0.3578  0.0394 -0.7871
 7679TIP3   OH244527   2.318   4.608   3.492 -0.7722  0.0825 -0.0770
 7679TIP3    H144528   2.390   4.607   3.428 -0.8924  0.2331 -0.2142
 7679TIP3    H244529   2.331   4.528   3.543 -0.0877  0.4714  0.3699
 7680TIP3   OH244530   5.686   5.122  13.836  0.0297 -0.0816 -0.0416
 7680TIP3    H144531   5.672   5.119  13.741  1.2494 -2.0680 -0.1719
 7680TIP3    H244532   5.750   5.192  13.848 -0.1229  0.1710 -0.6651
 7681TIP3   OH244533   1.717   6.371  11.684  0.0811  0.5463  0.1197
 7681TIP3    H144534   1.809   6.392  11.672  0.4650 -0.7135  0.7861
 7681TIP3    H244535   1.693   6.414  11.766  0.1130  0.7820  0.0034
 7682TIP3   OH244536   3.090   6.089   5.103 -0.0633  0.2536 -0.1327
 7682TIP3    H144537   3.050   6.162   5.151 -0.1468 -0.1775  0.4652
 7682TIP3    H244538   3.016   6.042   5.065 -0.0370  0.2349 -0.1611
 7683TIP3   OH244539   6.662   5.917   6.233 -0.4963 -0.3042 -0.2530
 7683TIP3    H144540   6.619   5.971   6.298  0.1121  0.2998 -0.3392
 7683TIP3    H244541   6.747   5.959   6.220 -1.1703  0.4467 -2.5026
 7684TIP3   OH244542   4.171   0.710   4.191  0.0302  0.0818  0.1524
 7684TIP3    H144543   4.139   0.621   4.206  0.3751  0.4093  3.1441
 7684TIP3    H244544   4.259   0.699   4.155 -0.1041 -0.7859  0.0827
 7685TIP3   OH244545   0.466   5.025   5.091 -0.1209  0.0142 -0.2649
 7685TIP3    H144546   0.471   5.120   5.101 -0.6767 -0.2015  2.3458
 7685TIP3    H244547   0.389   5.011   5.035  0.0711  1.0959 -0.8091
 7686TIP3   OH244548   3.993   1.573  12.891  0.5568 -0.5291  0.3997
 7686TIP3    H144549   4.012   1.604  12.802 -0.1320  1.2255  0.8435
 7686TIP3    H244550   4.058   1.505  12.907  2.3964  0.9688 -0.4762
 7687TIP3   OH244551   4.605   1.360   0.888  0.4471  0.2670 -0.0961
 7687TIP3    H144552   4.531   1.319   0.932 -0.9423  1.0424 -1.6645
 7687TIP3    H244553   4.616   1.444   0.934 -0.2326  0.5501 -0.4446
 7688TIP3   OH244554   0.346   3.521  13.786 -0.4383 -0.5952  0.1447
 7688TIP3    H144555   0.276   3.546  13.726 -0.3804  0.2769  0.4267
 7688TIP3    H244556   0.422   3.572  13.756 -1.0249  1.6801  2.3998
 7689TIP3   OH244557   0.560   5.479  17.243  0.0137  0.2112 -0.2411
 7689TIP3    H144558   0.526   5.392  17.223 -1.3270  0.3984  1.0700
 7689TIP3    H244559   0.499   5.539  17.201  1.0419  0.5195 -1.3027
 7690TIP3   OH244560   5.366   5.372  13.838  0.1312 -0.5765  0.1151
 7690TIP3    H144561   5.445   5.385  13.890  0.6993 -1.8333 -0.4066
 7690TIP3    H244562   5.315   5.308  13.888  0.2092 -1.0095 -0.3541
 7691TIP3   OH244563   4.904   3.087   2.838 -0.0979 -0.0026 -0.1259
 7691TIP3    H144564   4.811   3.065   2.839  0.5779 -3.1868  1.4937
 7691TIP3    H244565   4.930   3.084   2.930  1.9591 -0.8750 -0.7018
 7692TIP3   OH244566   5.698   4.349  14.037  0.1181  0.1228 -0.3907
 7692TIP3    H144567   5.683   4.436  14.074  1.1584  0.0117  0.3248
 7692TIP3    H244568   5.684   4.289  14.111 -0.3950 -0.3059 -0.8321
 7693TIP3   OH244569   6.515   0.226  14.277  0.1183  0.2414  0.0007
 7693TIP3    H144570   6.556   0.307  14.247 -0.9232  0.8725  0.2531
 7693TIP3    H244571   6.586   0.162  14.277  0.9729  1.1720 -0.1246
 7694TIP3   OH244572   2.629   4.290   5.800  0.0391  0.7260 -0.1973
 7694TIP3    H144573   2.583   4.221   5.753  0.3719  1.2627 -1.3596
 7694TIP3    H244574   2.604   4.371   5.754 -3.0700  1.8299  3.2455
 7695TIP3   OH244575   0.815   2.538   1.117  0.0848 -0.5453 -0.6076
 7695TIP3    H144576   0.829   2.533   1.211  1.8937  2.9243 -0.6251
 7695TIP3    H244577   0.900   2.517   1.079  0.2429  1.3431 -1.3398
 7696TIP3   OH244578   3.603   3.076   5.280  0.1476  0.0289  0.2843
 7696TIP3    H144579   3.530   3.091   5.220  0.0930  1.5344  0.6962
 7696TIP3    H244580   3.675   3.129   5.245 -0.2687  1.9281  2.1968
 7697TIP3   OH244581   4.838   4.510   1.127 -0.4947  0.1108 -0.2865
 7697TIP3    H144582   4.829   4.573   1.199 -0.1232 -0.2612  0.0913
 7697TIP3    H244583   4.761   4.525   1.072 -0.1886  1.1917 -0.4331
 7698TIP3   OH244584   0.641   6.685   3.704  0.5791 -0.1065 -0.1669
 7698TIP3    H144585   0.650   6.769   3.749  1.0212 -0.1009 -0.2710
 7698TIP3    H244586   0.546   6.668   3.703  0.3654  1.1102 -1.4871
 7699TIP3   OH244587   4.922   6.541  15.666  0.4432 -0.1193 -0.8066
 7699TIP3    H144588   4.828   6.520  15.668  0.5634 -0.5832  1.3354
 7699TIP3    H244589   4.926   6.635  15.680  0.3574 -0.3735  1.0120
 7700TIP3   OH244590   6.524   2.127   2.018  0.9196  0.3384 -0.0711
 7700TIP3    H144591   6.577   2.207   2.019  0.9124  0.4099 -2.3057
 7700TIP3    H244592   6.446   2.150   1.967  0.7824 -0.9949 -0.4914
 7701TIP3   OH244593   6.432   6.386  11.693  0.4353  0.2464 -0.0561
 7701TIP3    H144594   6.527   6.396  11.693  0.5678 -0.9551  0.9387
 7701TIP3    H244595   6.417   6.305  11.643  0.0271 -0.4093  1.1302
 7702TIP3   OH244596   0.424   5.043  15.457 -0.4387 -0.5793  0.0894
 7702TIP3    H144597   0.501   5.099  15.455 -0.4292 -0.6164 -1.6768
 7702TIP3    H244598   0.435   4.989  15.535  0.8717  0.0356  0.3393
 7703TIP3   OH244599   0.974   0.100  12.205  0.5636 -0.1438  0.3366
 7703TIP3    H144600   0.955   0.076  12.114 -0.9854 -1.2403  0.9367
 7703TIP3    H244601   0.959   0.195  12.208 -1.2898 -0.4016 -0.0954
 7704TIP3   OH244602   3.499   2.712   2.277  0.6019 -0.5333  0.3073
 7704TIP3    H144603   3.508   2.617   2.273 -1.6911 -0.7342 -0.6127
 7704TIP3    H244604   3.505   2.741   2.186  0.9618  0.1727  0.5543
 7705TIP3   OH244605   1.021   1.036   6.488  0.0232 -0.0043 -0.0106
 7705TIP3    H144606   1.064   1.027   6.573 -0.4989 -0.5260  0.1956
 7705TIP3    H244607   0.943   0.981   6.494  0.4297 -0.7258 -1.1184
 7706TIP3   OH244608   2.421   1.092  16.076  0.2017 -0.2810  0.3650
 7706TIP3    H144609   2.471   1.150  16.018 -1.0315 -1.9198 -2.4276
 7706TIP3    H244610   2.330   1.103  16.048 -0.5327 -0.4631  2.6084
 7707TIP3   OH244611   4.899   4.814   4.928 -0.2289 -0.0846  0.1816
 7707TIP3    H144612   4.943   4.899   4.938  0.4607 -0.5347  1.1187
 7707TIP3    H244613   4.968   4.756   4.894 -0.8138 -0.1651 -0.8715
 7708TIP3   OH244614   5.281   6.460   5.989 -0.1440 -0.0230  0.0379
 7708TIP3    H144615   5.364   6.414   6.005  1.6433  3.1128  0.2271
 7708TIP3    H244616   5.256   6.494   6.075 -0.5432  0.8022 -0.4029
 7709TIP3   OH244617   3.235   1.934  16.884 -0.6476 -0.3206 -0.2422
 7709TIP3    H144618   3.152   1.891  16.903  0.9744 -2.6387  2.0938
 7709TIP3    H244619   3.249   1.993  16.958 -0.5158  0.5497 -0.9528
 7710TIP3   OH244620   0.673   2.055   3.297 -0.2683  0.7868  0.0123
 7710TIP3    H144621   0.645   1.967   3.272  0.2781  0.5348  0.2819
 7710TIP3    H244622   0.768   2.054   3.285 -0.2062  1.1870  0.4866
 7711TIP3   OH244623   3.367   2.202   1.079 -0.1069 -0.4684  0.1103
 7711TIP3    H144624   3.419   2.132   1.038  0.3508  0.0509 -0.2035
 7711TIP3    H244625   3.411   2.218   1.163 -1.0314 -1.5166  0.8131
 7712TIP3   OH244626   2.023   2.579   2.804 -0.3909 -0.1878 -0.1119
 7712TIP3    H144627   2.070   2.534   2.875 -1.2531  0.5248  0.9259
 7712TIP3    H244628   2.023   2.517   2.732 -1.9051 -2.0183  1.4306
 7713TIP3   OH244629   5.915   4.741  15.761  0.2751  0.0755 -0.5049
 7713TIP3    H144630   6.007   4.725  15.783 -0.1392 -1.4391  0.2121
 7713TIP3    H244631   5.918   4.787  15.678  1.7293  1.4745  0.2839
 7714TIP3   OH244632   2.843   5.633   0.949 -0.0413  0.1296 -0.2582
 7714TIP3    H144633   2.867   5.593   0.865 -0.9415  1.7773 -1.3370
 7714TIP3    H244634   2.795   5.564   0.995 -2.3753  0.2177 -2.4584
 7715TIP3   OH244635   0.693   4.078  16.867 -0.7367 -0.1380 -0.6757
 7715TIP3    H144636   0.774   4.032  16.890 -0.9444  0.2801  0.9365
 7715TIP3    H244637   0.631   4.008  16.846 -0.4006 -0.5081 -0.4545
 7716TIP3   OH244638   4.864   0.050   2.340  0.0608  0.3252  0.0518
 7716TIP3    H144639   4.886   0.108   2.414 -0.4584 -0.5810  0.9326
 7716TIP3    H244640   4.769   0.039   2.345 -0.0923  0.9671 -1.2981
 7717TIP3   OH244641   3.475   2.015   0.436  0.0682  0.4024 -0.3867
 7717TIP3    H144642   3.526   1.989   0.359  1.1708  1.3831 -0.0026
 7717TIP3    H244643   3.520   1.972   0.509  0.2398  1.1121 -0.0719
 7718TIP3   OH244644   2.878   3.497  14.436  0.6294 -0.8226 -0.4039
 7718TIP3    H144645   2.798   3.516  14.386  0.7980  0.1656 -0.2955
 7718TIP3    H244646   2.893   3.403  14.422 -1.3148 -1.3227  0.6982
 7719TIP3   OH244647   5.782   6.491  14.156  0.0427 -0.9309 -0.2729
 7719TIP3    H144648   5.878   6.491  14.163  0.0052  1.8966  0.9800
 7719TIP3    H244649   5.763   6.556  14.089 -1.0499 -0.3151  0.6228
 7720TIP3   OH244650   6.010   0.541   6.188 -0.0841  0.2896  0.0638
 7720TIP3    H144651   5.947   0.580   6.129  0.8548  2.0557  0.2096
 7720TIP3    H244652   6.095   0.564   6.152  0.5153  1.9985  2.4543
 7721TIP3   OH244653   3.634   6.799   6.465  0.1275 -0.5401  0.0437
 7721TIP3    H144654   3.708   6.859   6.461 -1.2554  1.0815 -1.7268
 7721TIP3    H244655   3.660   6.726   6.409 -0.3217  0.8566 -2.0324
 7722TIP3   OH244656   4.767   2.349   4.721  0.0379  0.0835  0.8323
 7722TIP3    H144657   4.805   2.264   4.701  0.2245 -0.3494  2.9381
 7722TIP3    H244658   4.831   2.412   4.687 -0.1219 -0.5988 -0.7713
 7723TIP3   OH244659   1.998   4.816  12.962  0.4063 -0.6226 -0.0304
 7723TIP3    H144660   1.988   4.860  12.877  0.7409 -0.1017  0.1973
 7723TIP3    H244661   1.953   4.733  12.951 -1.0804  0.1827 -0.1494
 7724TIP3   OH244662   4.963   0.063  16.384  0.2410  0.6419 -0.2347
 7724TIP3    H144663   4.975   0.068  16.290 -1.3723  1.9076 -0.4104
 7724TIP3    H244664   4.873   0.095  16.398  0.6946  1.1113  1.7642
 7725TIP3   OH244665   3.534   3.542  10.910 -0.1533  0.5282  0.4993
 7725TIP3    H144666   3.611   3.596  10.890  0.2625 -0.5185 -0.7365
 7725TIP3    H244667   3.567   3.475  10.970 -0.3860  0.8513  0.9899
 7726TIP3   OH244668   0.889   2.243  13.188  0.7704 -0.1801 -0.2761
 7726TIP3    H144669   0.895   2.151  13.159  0.1814 -0.5052  0.6242
 7726TIP3    H244670   0.796   2.263  13.182  0.5883 -0.3848  1.8085
 7727TIP3   OH244671   2.080   2.647  15.802 -0.2387 -0.5023  0.1161
 7727TIP3    H144672   2.112   2.665  15.890 -0.8475  1.8492 -0.1155
 7727TIP3    H244673   2.158   2.618  15.754  0.1736 -1.3949  1.3109
 7728TIP3   OH244674   3.484   3.497   3.923  0.6720 -0.0240 -0.1995
 7728TIP3    H144675   3.423   3.423   3.919  0.5780  0.0340  0.1367
 7728TIP3    H244676   3.565   3.458   3.958  1.0133 -0.2194 -1.1912
 7729TIP3   OH244677   5.296   4.988  14.413  0.0764 -0.0697  0.2701
 7729TIP3    H144678   5.293   5.026  14.326  2.0280  2.1349  1.1296
 7729TIP3    H244679   5.236   5.042  14.465 -0.4637 -0.8849  0.5228
 7730TIP3   OH244680   3.520   0.378   3.441  0.1284 -0.2448  0.8131
 7730TIP3    H144681   3.436   0.421   3.429  0.6418  0.1349 -1.8395
 7730TIP3    H244682   3.579   0.447   3.472 -0.2255 -0.2246  1.4489
 7731TIP3   OH244683   0.240   0.362   3.397 -0.0817 -0.2071 -0.3109
 7731TIP3    H144684   0.331   0.349   3.424  0.0894 -0.1306 -0.8450
 7731TIP3    H244685   0.188   0.322   3.468  0.3238  1.3070  0.8698
 7732TIP3   OH244686   1.713   5.520  15.427 -0.0692  0.0882  0.0168
 7732TIP3    H144687   1.647   5.532  15.495 -0.0174 -0.8382  0.2410
 7732TIP3    H244688   1.730   5.608  15.394 -0.2200  0.5266  1.0823
 7733TIP3   OH244689   2.800   3.342   3.585  0.4605 -0.6477 -0.3752
 7733TIP3    H144690   2.893   3.344   3.610 -0.0643  2.3330  1.4584
 7733TIP3    H244691   2.784   3.427   3.545 -1.7846 -0.6523  0.4510
 7734TIP3   OH244692   0.691   3.831   3.559  0.3555  0.2802 -0.3154
 7734TIP3    H144693   0.769   3.848   3.612 -0.0893  0.1769  0.3826
 7734TIP3    H244694   0.689   3.735   3.551  0.1622  0.2677 -0.1182
 7735TIP3   OH244695   0.733   3.422   2.901  0.0011  0.0874 -0.3363
 7735TIP3    H144696   0.791   3.447   2.828 -0.8311  2.8737 -0.1119
 7735TIP3    H244697   0.792   3.392   2.970  0.8484 -1.8196 -1.8252
 7736TIP3   OH244698   0.774   2.895  14.484 -0.0629 -0.0176  0.6071
 7736TIP3    H144699   0.799   2.958  14.552  0.0363 -0.8329  1.3391
 7736TIP3    H244700   0.683   2.874  14.505 -1.0783  2.1024 -1.3847
 7737TIP3   OH244701   4.017   4.481  13.861  0.0982 -0.0558 -0.2774
 7737TIP3    H144702   4.015   4.570  13.826 -1.7917 -0.8913 -2.4485
 7737TIP3    H244703   4.094   4.441  13.821  0.4735  0.3353  0.0452
 7738TIP3   OH244704   0.106   5.478  14.918 -0.4286 -0.3698  0.8000
 7738TIP3    H144705   0.068   5.501  15.003 -0.0459  0.1731  0.8320
 7738TIP3    H244706   0.143   5.391  14.931  0.3848  0.0617  1.4509
 7739TIP3   OH244707   0.873   1.952   0.031 -0.2993 -0.0113 -0.1103
 7739TIP3    H144708   0.945   1.895   0.005 -0.8742  0.2898 -2.4128
 7739TIP3    H244709   0.913   2.039   0.038 -0.0556 -0.1656  0.5037
 7740TIP3   OH244710   5.557   0.622   1.423 -0.1650  0.4540 -0.4365
 7740TIP3    H144711   5.643   0.582   1.437 -0.3361  0.1847 -0.1419
 7740TIP3    H244712   5.531   0.653   1.510  0.1601  1.5994 -0.7394
 7741TIP3   OH244713   3.625   5.653  14.084 -0.7483  0.4238  0.3716
 7741TIP3    H144714   3.645   5.566  14.050  0.3073  0.4495  0.8963
 7741TIP3    H244715   3.606   5.705  14.006  0.6012  0.2243 -0.1073
 7742TIP3   OH244716   6.330   2.836  12.757 -0.3031 -0.6695  0.2122
 7742TIP3    H144717   6.297   2.746  12.751  0.7772 -1.1218  0.8803
 7742TIP3    H244718   6.275   2.886  12.697 -2.8131 -1.2191  1.9796
 7743TIP3   OH244719   6.000   1.695   5.319 -0.5929  0.2631  0.4896
 7743TIP3    H144720   5.920   1.678   5.369  0.2386 -0.7383  1.5217
 7743TIP3    H244721   6.028   1.782   5.347 -0.9946  0.3724  0.5618
 7744TIP3   OH244722   6.180   1.444   3.456 -0.4650 -0.5646 -0.0207
 7744TIP3    H144723   6.206   1.531   3.426  0.7236 -0.9497 -0.1175
 7744TIP3    H244724   6.209   1.384   3.388 -1.1242 -1.0703  0.1277
 7745TIP3   OH244725   4.280   3.274   0.506  0.6196 -0.2314 -0.1849
 7745TIP3    H144726   4.216   3.345   0.516  0.4988 -0.4982  1.0301
 7745TIP3    H244727   4.308   3.254   0.595 -0.0077 -2.3057 -0.4046
 7746TIP3   OH244728   3.972   5.535  11.607  0.0231 -0.5638 -0.2471
 7746TIP3    H144729   4.047   5.512  11.552  2.3198  2.2073  1.5939
 7746TIP3    H244730   3.922   5.597  11.554  0.4238 -0.4974 -0.5541
 7747TIP3   OH244731   5.120   2.042   2.356  0.0571  0.6737 -0.8842
 7747TIP3    H144732   5.198   1.987   2.359  0.3259  1.1052  0.6571
 7747TIP3    H244733   5.061   2.004   2.421 -0.6452  0.9011 -1.3801
 7748TIP3   OH244734   5.307   4.482   3.073 -0.6453 -0.7658 -0.3142
 7748TIP3    H144735   5.375   4.501   3.008 -0.3620 -0.3888  0.0884
 7748TIP3    H244736   5.346   4.415   3.129 -0.7370 -0.7950 -0.2861
 7749TIP3   OH244737   3.560   0.888  12.138  0.5283  0.3565  0.2206
 7749TIP3    H144738   3.493   0.944  12.177 -0.3691  0.4790 -1.4328
 7749TIP3    H244739   3.570   0.816  12.200  0.2265  1.3043  1.3841
 7750TIP3   OH244740   2.089   0.735  15.304 -0.1900 -0.1481  0.7952
 7750TIP3    H144741   2.106   0.656  15.355 -0.0899  0.1556  1.2313
 7750TIP3    H244742   2.084   0.704  15.213 -0.4522 -0.6985  0.9924
 7751TIP3   OH244743   4.140   6.277   4.279  0.0910 -0.2630  0.0126
 7751TIP3    H144744   4.208   6.210   4.280  0.0561 -0.2898  1.6851
 7751TIP3    H244745   4.059   6.228   4.295  0.1573  0.2659  2.0084
 7752TIP3   OH244746   0.396   4.666  14.633 -0.6545 -0.0996 -0.1074
 7752TIP3    H144747   0.403   4.574  14.659  1.5376  0.1590  0.2950
 7752TIP3    H244748   0.446   4.672  14.552  1.5641  1.2662  1.3086
 7753TIP3   OH244749   5.895   4.443   5.604 -0.0854  0.4978 -0.0965
 7753TIP3    H144750   5.990   4.452   5.606 -0.1777  1.5509 -0.0081
 7753TIP3    H244751   5.865   4.479   5.687 -0.4946 -0.8396  0.3451
 7754TIP3   OH244752   6.738   2.147  10.773  0.3386 -0.3909 -0.2774
 7754TIP3    H144753   6.826   2.125  10.743  1.0329  0.6204  0.9587
 7754TIP3    H244754   6.683   2.076  10.740  1.6145 -1.0373 -1.0500
 7755TIP3   OH244755   1.555   4.861  16.700  0.3213  0.0197  0.0491
 7755TIP3    H144756   1.510   4.825  16.623 -0.0125 -0.8285  0.6251
 7755TIP3    H244757   1.538   4.955  16.696  0.3622 -0.0099 -0.9491
 7756TIP3   OH244758   5.155   0.278   4.198  0.1455 -0.3197  0.0336
 7756TIP3    H144759   5.133   0.360   4.241  0.1044  0.7882 -2.0665
 7756TIP3    H244760   5.115   0.211   4.253 -1.9544  1.2065  0.4152
 7757TIP3   OH244761   1.757   5.428  12.991 -0.5812 -0.0094  0.2754
 7757TIP3    H144762   1.749   5.441  13.085 -0.1938 -0.1591  0.3294
 7757TIP3    H244763   1.702   5.496  12.952 -3.0326 -1.7132  0.6594
 7758TIP3   OH244764   5.419   5.218  12.617 -0.3010  0.3032  0.0527
 7758TIP3    H144765   5.441   5.266  12.697  1.4162  1.1707 -0.9088
 7758TIP3    H244766   5.503   5.206  12.573 -1.3515  0.6961 -2.0888
 7759TIP3   OH244767   6.244   5.097   2.501  0.2127 -0.0452  0.3374
 7759TIP3    H144768   6.262   5.063   2.413 -0.5185  0.5705 -0.0568
 7759TIP3    H244769   6.318   5.155   2.520  0.7888 -0.8221  0.4655
 7760TIP3   OH244770   4.852   1.100  11.941  0.4201 -0.0434  0.1462
 7760TIP3    H144771   4.902   1.020  11.957  0.5633  0.1927  0.8803
 7760TIP3    H244772   4.897   1.168  11.990 -1.4098 -0.1097  1.9970
 7761TIP3   OH244773   6.190   5.783   6.705 -0.1168  1.0126 -0.3960
 7761TIP3    H144774   6.205   5.832   6.786  0.3088  1.2995 -0.6490
 7761TIP3    H244775   6.100   5.803   6.681 -0.5035  0.2774  0.4507
 7762TIP3   OH244776   4.367   0.947  14.102 -0.0894 -0.3420  0.7814
 7762TIP3    H144777   4.372   1.035  14.140  0.3396  0.3288 -0.7751
 7762TIP3    H244778   4.453   0.908  14.120  0.7333  0.6021 -0.9218
 7763TIP3   OH244779   4.416   0.568   2.577 -0.1347 -0.7125  0.0459
 7763TIP3    H144780   4.502   0.595   2.543  0.6073 -2.2491  0.6324
 7763TIP3    H244781   4.354   0.602   2.513  0.7275  2.2223  0.6749
 7764TIP3   OH244782   6.574   1.063   1.353 -0.6579  0.4630 -0.5152
 7764TIP3    H144783   6.639   0.993   1.348 -0.3264  0.4176  3.0361
 7764TIP3    H244784   6.625   1.143   1.342 -0.1494  0.3550  0.8546
 7765TIP3   OH244785   5.730   0.016   6.232 -0.2886 -0.3064  0.3120
 7765TIP3    H144786   5.705   0.108   6.240  0.1482 -0.1073 -0.5023
 7765TIP3    H244787   5.815   0.018   6.188  0.5425 -1.0230  1.8184
 7766TIP3   OH244788   2.006   6.124  12.627 -0.1679  0.7171  0.0480
 7766TIP3    H144789   2.082   6.144  12.572  0.6495  0.9908  1.2571
 7766TIP3    H244790   2.032   6.152  12.715 -1.1424 -0.4708  0.7322
 7767TIP3   OH244791   1.685   4.914   2.884 -0.0618 -0.1910 -0.6098
 7767TIP3    H144792   1.690   4.857   2.808  2.7467 -1.8006  0.7029
 7767TIP3    H244793   1.626   4.869   2.945  0.8232 -0.8882 -0.2574
 7768TIP3   OH244794   0.193   2.752  16.834 -0.2309  0.5420  0.0381
 7768TIP3    H144795   0.136   2.678  16.812  0.6122 -0.5503  1.4156
 7768TIP3    H244796   0.136   2.829  16.827 -1.8903 -0.5329  1.3334
 7769TIP3   OH244797   3.265   0.295   2.364 -0.2049  0.1837 -0.2674
 7769TIP3    H144798   3.236   0.332   2.280  1.5567  0.3096 -0.8483
 7769TIP3    H244799   3.320   0.220   2.340  0.5300  0.3775  0.7607
 7770TIP3   OH244800   3.046   5.521   2.231 -0.8988 -0.2137 -0.1144
 7770TIP3    H144801   3.068   5.529   2.139 -0.9642  1.5198  0.0020
 7770TIP3    H244802   3.027   5.610   2.259 -3.3786 -1.0336  0.9661
 7771TIP3   OH244803   2.380   1.166  14.100 -0.1730  0.4162  0.2106
 7771TIP3    H144804   2.372   1.147  14.194 -2.4473 -0.7025 -0.1656
 7771TIP3    H244805   2.468   1.202  14.090  0.0728  0.6288  2.7848
 7772TIP3   OH244806   5.605   6.694   1.960  0.1690  0.1158  0.0805
 7772TIP3    H144807   5.571   6.611   1.926 -0.5124  0.1481  0.6819
 7772TIP3    H244808   5.650   6.734   1.885 -0.1722 -0.4353 -0.4213
 7773TIP3   OH244809   0.837   0.029  13.031  0.1090 -0.4529  0.1094
 7773TIP3    H144810   0.801   0.117  13.033 -0.6829 -0.7944  1.5273
 7773TIP3    H244811   0.850   0.010  12.938 -2.9619 -0.1633 -0.4096
 7774TIP3   OH244812   5.579   0.903  12.573  0.3769  0.1203 -0.2059
 7774TIP3    H144813   5.517   0.848  12.620  1.9910 -2.4853 -1.0117
 7774TIP3    H244814   5.541   0.911  12.485  0.4936 -0.3327 -0.3005
 7775TIP3   OH244815   3.356   0.525  14.842 -0.1512 -0.3853 -1.0316
 7775TIP3    H144816   3.336   0.561  14.756 -0.5807  1.1732 -0.2871
 7775TIP3    H244817   3.271   0.515  14.885  0.0948 -0.7028 -0.6170
 7776TIP3   OH244818   2.549   4.798  16.346 -0.0292 -0.5543  0.4489
 7776TIP3    H144819   2.521   4.781  16.256 -0.1808 -0.1299  0.4117
 7776TIP3    H244820   2.488   4.865  16.377  2.2725  2.0143 -0.3405
 7777TIP3   OH244821   4.489   4.470   2.229  0.3802 -0.9612  0.5299
 7777TIP3    H144822   4.563   4.419   2.196 -0.4929 -0.2981 -2.6245
 7777TIP3    H244823   4.526   4.557   2.247  0.0230  0.0308 -3.1361
 7778TIP3   OH244824   3.683   4.729  12.149 -0.2242  0.2828  0.4253
 7778TIP3    H144825   3.732   4.661  12.195  0.2019  0.7267  0.6328
 7778TIP3    H244826   3.660   4.792  12.217  1.1237  1.3596 -0.0926
 7779TIP3   OH244827   3.006   1.172   5.423  0.1515 -0.1281 -0.6113
 7779TIP3    H144828   3.008   1.252   5.475 -1.1788 -0.1223 -0.5354
 7779TIP3    H244829   2.939   1.189   5.357 -1.8366 -2.0402  0.8507
 7780TIP3   OH244830   0.386   2.937  14.878  0.0268  0.6885 -0.1926
 7780TIP3    H144831   0.396   2.845  14.852  0.3301  0.7439 -0.2773
 7780TIP3    H244832   0.311   2.937  14.937  0.1396  0.3559 -0.0454
 7781TIP3   OH244833   2.709   1.650  13.363  0.0475  0.0568 -0.0053
 7781TIP3    H144834   2.712   1.557  13.340 -0.7888 -0.0079  0.1019
 7781TIP3    H244835   2.625   1.661  13.408  0.5106  0.7028  0.7172
 7782TIP3   OH244836   6.100   3.021  14.680 -0.6020  0.0672  0.0470
 7782TIP3    H144837   6.144   2.950  14.633  0.8306  1.6154 -1.0316
 7782TIP3    H244838   6.136   3.017  14.769  0.8967  0.6220 -0.5273
 7783TIP3   OH244839   2.131   0.245  13.358  0.2641 -0.3871 -0.1515
 7783TIP3    H144840   2.112   0.152  13.365  1.8828 -0.7230  0.1103
 7783TIP3    H244841   2.220   0.254  13.394  0.9351  0.9125 -2.0424
 7784TIP3   OH244842   0.528   1.543  14.628 -0.1053  0.4580  0.0438
 7784TIP3    H144843   0.536   1.451  14.654  0.8843  0.9048  1.3012
 7784TIP3    H244844   0.507   1.538  14.534 -0.1056 -1.0471  0.1006
 7785TIP3   OH244845   2.618   2.362   3.620 -0.2720 -0.1404  0.1810
 7785TIP3    H144846   2.572   2.414   3.686 -0.0906  1.7895 -1.1514
 7785TIP3    H244847   2.571   2.380   3.539  0.8922 -0.6645 -0.6221
 7786TIP3   OH244848   2.423   6.125  12.107  0.8216  0.1166 -0.2731
 7786TIP3    H144849   2.349   6.087  12.154  1.3441 -0.8595 -0.2000
 7786TIP3    H244850   2.396   6.127  12.016 -0.2540  2.1505  0.0668
 7787TIP3   OH244851   3.416   2.342  11.414  0.3489  0.1205 -0.1168
 7787TIP3    H144852   3.499   2.388  11.405  0.4485  0.0460  0.4354
 7787TIP3    H244853   3.398   2.341  11.508 -0.1741 -0.0428 -0.2148
 7788TIP3   OH244854   3.886   6.150   0.787  0.4544 -0.0185 -0.0822
 7788TIP3    H144855   3.968   6.137   0.740  0.2945 -0.8252 -0.1330
 7788TIP3    H244856   3.823   6.096   0.740 -0.7267  2.6452 -1.7257
 7789TIP3   OH244857   2.696   4.577  11.634 -0.2393  0.0233  0.5069
 7789TIP3    H144858   2.616   4.619  11.666 -0.6708 -0.5970  0.2569
 7789TIP3    H244859   2.704   4.606  11.543 -0.4792 -0.3332  0.3677
 7790TIP3   OH244860   4.359   0.308   4.061 -0.3022 -0.3678 -0.1007
 7790TIP3    H144861   4.270   0.272   4.064 -0.4369  0.0194  2.8188
 7790TIP3    H244862   4.415   0.239   4.096  0.1565  0.3152  0.5545
 7791TIP3   OH244863   2.159   3.449  13.533  0.0613  0.4804 -0.0712
 7791TIP3    H144864   2.226   3.518  13.529 -0.3641  0.8943 -0.0921
 7791TIP3    H244865   2.076   3.496  13.540 -0.4475  0.0534 -2.6234
 7792TIP3   OH244866   3.525   2.433   0.377  0.6218 -0.2294  0.1766
 7792TIP3    H144867   3.534   2.489   0.300 -0.0498 -1.2871 -0.6814
 7792TIP3    H244868   3.559   2.486   0.449  1.1230  0.8255 -0.8171
 7793TIP3   OH244869   4.981   6.563   1.638  0.1220 -0.8012  0.1302
 7793TIP3    H144870   4.908   6.576   1.577  0.5494 -0.6360 -0.3530
 7793TIP3    H244871   4.996   6.650   1.675  0.0479 -0.8448  0.2637
 7794TIP3   OH244872   3.049   0.227  11.957 -0.0285 -0.2464 -0.3128
 7794TIP3    H144873   2.970   0.265  11.918 -0.4990 -0.7562  0.1429
 7794TIP3    H244874   3.121   0.275  11.915 -0.4973 -1.2688 -2.3448
 7795TIP3   OH244875   2.411   1.526  14.554 -0.1077  0.3628 -0.1007
 7795TIP3    H144876   2.353   1.597  14.582  0.9213  1.6074 -1.1089
 7795TIP3    H244877   2.383   1.506  14.465  0.4983  0.4296 -0.3053
 7796TIP3   OH244878   2.798   5.743  15.313  0.7336  0.2045 -0.0862
 7796TIP3    H144879   2.834   5.656  15.326 -0.2079 -0.3029 -0.8480
 7796TIP3    H244880   2.703   5.732  15.321  0.6751  1.3680  1.0181
 7797TIP3   OH244881   2.954   6.510  11.509 -0.1725 -0.4608  0.3542
 7797TIP3    H144882   2.862   6.500  11.487 -0.5391  1.8994  0.6476
 7797TIP3    H244883   3.001   6.462  11.441 -1.5170  0.9479 -1.6037
 7798TIP3   OH244884   2.914   5.547  13.646 -0.5585  0.3995  0.1273
 7798TIP3    H144885   2.985   5.512  13.593 -1.0190  0.7216 -0.7059
 7798TIP3    H244886   2.847   5.573  13.583  0.4235  4.3025  0.5709
 7799TIP3   OH244887   0.260   5.135  12.199 -0.6800  0.1927  0.4237
 7799TIP3    H144888   0.294   5.063  12.146 -1.0835  0.4278 -0.1570
 7799TIP3    H244889   0.309   5.129  12.281 -1.3218 -1.2614  0.7136
 7800TIP3   OH244890   3.451   2.783   4.875  0.1805  0.2617 -0.2307
 7800TIP3    H144891   3.438   2.799   4.781  0.7642 -2.1876 -0.7705
 7800TIP3    H244892   3.527   2.835   4.898  0.6448  0.0954 -1.3547
 7801TIP3   OH244893   5.594   2.644   5.174 -0.5214 -0.2921 -1.1484
 7801TIP3    H144894   5.613   2.726   5.130 -0.6220 -0.5851 -1.7362
 7801TIP3    H244895   5.675   2.594   5.168  0.2378  0.5941  1.0778
 7802TIP3   OH244896   5.274   0.592   3.293 -0.0096 -0.2798 -0.2698
 7802TIP3    H144897   5.353   0.593   3.238  0.4437  1.1736  0.3697
 7802TIP3    H244898   5.254   0.685   3.307  0.0108 -0.6260  2.1968
 7803TIP3   OH244899   5.529   6.206  15.538  0.6424  0.0079 -0.3816
 7803TIP3    H144900   5.436   6.183  15.540  0.2863  1.5266  1.6964
 7803TIP3    H244901   5.531   6.292  15.496  1.0712  0.1865  0.0078
 7804TIP3   OH244902   5.654   2.025   4.657 -0.0204 -0.0906  0.6725
 7804TIP3    H144903   5.681   2.111   4.624 -1.8613  0.9335  1.7421
 7804TIP3    H244904   5.579   2.001   4.602  0.2185 -0.8078  0.6618
 7805TIP3   OH244905   4.176   4.158  10.807  0.8380  0.3163  0.7519
 7805TIP3    H144906   4.218   4.151  10.721 -1.7942  2.7880 -0.8068
 7805TIP3    H244907   4.162   4.067  10.834 -0.4610 -0.5305 -2.5500
 7806TIP3   OH244908   1.204   0.418  13.393 -0.1500  0.1927  0.6622
 7806TIP3    H144909   1.224   0.433  13.486 -0.6407 -2.0217  1.1588
 7806TIP3    H244910   1.289   0.401  13.353  0.0627  1.1454  0.6910
 7807TIP3   OH244911   0.164   4.780  13.706 -0.2528 -0.0457 -0.7663
 7807TIP3    H144912   0.187   4.823  13.788 -0.4588 -1.0552 -0.1770
 7807TIP3    H244913   0.070   4.763  13.713 -0.1273 -0.8201 -0.8818
 7808TIP3   OH244914   0.181   2.663  15.668 -0.4677 -0.0231  0.0794
 7808TIP3    H144915   0.137   2.684  15.750  2.2804 -0.4770  1.6985
 7808TIP3    H244916   0.200   2.748  15.628 -2.6196  0.1875 -0.5944
 7809TIP3   OH244917   1.807   6.370   0.620 -0.0081 -0.2891  0.4601
 7809TIP3    H144918   1.790   6.332   0.706 -0.4670 -1.9446 -0.3406
 7809TIP3    H244919   1.835   6.297   0.566  0.5977  0.7931 -0.7201
 7810TIP3   OH244920   1.460   5.116  16.708  0.0300  0.1919  0.1037
 7810TIP3    H144921   1.503   5.170  16.774 -2.3514  2.2808  0.0242
 7810TIP3    H244922   1.473   5.163  16.626 -0.7622 -0.1340 -0.2148
 7811TIP3   OH244923   6.356   3.714   6.641  0.0401 -0.2719 -0.4699
 7811TIP3    H144924   6.276   3.663   6.655 -0.1130 -0.3699 -1.6772
 7811TIP3    H244925   6.426   3.661   6.679 -0.3787 -0.5029 -0.0228
 7812TIP3   OH244926   2.774   4.670  14.929  0.3301  0.0425 -0.2249
 7812TIP3    H144927   2.749   4.616  14.854  2.9400 -1.0734 -0.3695
 7812TIP3    H244928   2.711   4.648  14.998 -1.2426  0.0496 -1.6329
 7813TIP3   OH244929   2.449   5.834  10.680 -0.0964 -0.0268  0.5447
 7813TIP3    H144930   2.376   5.773  10.672  0.5792 -0.8963  0.8152
 7813TIP3    H244931   2.468   5.861  10.591 -0.6313  0.0579  0.4559
 7814TIP3   OH244932   3.061   2.048  16.396 -0.0831 -0.2128  0.3817
 7814TIP3    H144933   3.155   2.032  16.402 -0.3911 -1.9953  0.8132
 7814TIP3    H244934   3.039   2.094  16.477  0.4732  0.4553  0.1495
 7815TIP3   OH244935   2.731   3.959   5.523 -0.0309 -0.1593 -0.1011
 7815TIP3    H144936   2.784   3.933   5.598  2.3943  2.3417 -0.8595
 7815TIP3    H244937   2.739   4.055   5.520 -2.1449  0.0138 -2.0618
 7816TIP3   OH244938   2.684   6.713   5.343  1.0087  0.1114  0.7992
 7816TIP3    H144939   2.662   6.791   5.394  2.0797  0.5581  0.6048
 7816TIP3    H244940   2.666   6.738   5.252 -0.9504 -0.7023  0.9475
 7817TIP3   OH244941   5.458   4.766  13.768 -0.8202 -0.3745 -0.2811
 7817TIP3    H144942   5.417   4.768  13.854  0.8509  0.7049  0.5432
 7817TIP3    H244943   5.418   4.839  13.721 -0.7257 -0.0821  0.0878
 7818TIP3   OH244944   5.689   0.675  14.762  0.3301  0.0114  0.2455
 7818TIP3    H144945   5.651   0.587  14.758  0.1806  0.0466  0.8595
 7818TIP3    H244946   5.713   0.687  14.854  0.7761  0.4350  0.0761
 7819TIP3   OH244947   2.734   2.616   5.149 -0.7407  0.0508 -0.1198
 7819TIP3    H144948   2.827   2.637   5.153 -0.2265 -1.8968 -0.9532
 7819TIP3    H244949   2.701   2.667   5.074 -0.0541 -0.2808 -0.6465
 7820TIP3   OH244950   5.566   5.416   3.495  0.0303 -0.3948  0.1757
 7820TIP3    H144951   5.470   5.419   3.496  0.0155 -0.9775  1.0443
 7820TIP3    H244952   5.586   5.326   3.470  0.3553 -0.3253  0.1856
 7821TIP3   OH244953   1.902   1.664  14.483 -0.6121  0.1592 -0.5633
 7821TIP3    H144954   1.997   1.660  14.482 -0.4972  1.7193  0.8994
 7821TIP3    H244955   1.874   1.573  14.469  1.1363 -0.7434  1.3947
 7822TIP3   OH244956   6.306   2.490   4.580  0.3611  0.2152  0.7517
 7822TIP3    H144957   6.361   2.491   4.502 -0.0875  0.7479  0.4327
 7822TIP3    H244958   6.365   2.518   4.651  0.3955  1.2479  0.3316
 7823TIP3   OH244959   3.603   0.040   2.612 -0.1277  0.0906  0.0077
 7823TIP3    H144960   3.627  -0.052   2.627  0.8895  0.0977 -1.4965
 7823TIP3    H244961   3.528   0.035   2.552 -0.8020  0.2261  0.8236
 7824TIP3   OH244962   2.356   4.217  12.581 -0.2921  0.1234 -0.0048
 7824TIP3    H144963   2.404   4.256  12.653 -1.4472  0.6797  0.4708
 7824TIP3    H244964   2.310   4.143  12.620 -0.7170  0.2725 -0.2262
 7825TIP3   OH244965   5.056   2.230   3.010 -0.2709  0.1873  0.5385
 7825TIP3    H144966   5.133   2.284   3.027 -0.3507  0.2015  0.8608
 7825TIP3    H244967   4.988   2.292   2.984 -0.0785  0.1402 -0.0856
 7826TIP3   OH244968   2.050   5.805  12.699 -0.5326  0.0527 -0.0412
 7826TIP3    H144969   2.005   5.722  12.680 -1.8533  0.7866 -0.1798
 7826TIP3    H244970   2.027   5.862  12.625  3.1479 -0.4848 -1.7506
 7827TIP3   OH244971   6.223   0.104   0.562 -0.4603  0.2146 -0.1561
 7827TIP3    H144972   6.196   0.171   0.626 -1.2082 -0.4784  0.2688
 7827TIP3    H244973   6.304   0.138   0.525 -1.4057  1.8858 -0.7429
 7828TIP3   OH244974   1.408   1.679  13.116 -0.0691 -0.3581  0.0669
 7828TIP3    H144975   1.451   1.674  13.202  0.1910  0.8048  0.0182
 7828TIP3    H244976   1.388   1.772  13.105 -1.1328 -0.6685 -0.6364
 7829TIP3   OH244977   3.088   4.631   4.069  0.0369 -0.5687  0.3198
 7829TIP3    H144978   3.081   4.609   4.161  2.3725 -1.6521  0.2855
 7829TIP3    H244979   3.136   4.714   4.068 -0.2313 -0.4158  0.0932
 7830TIP3   OH244980   0.457   3.579  11.367 -0.0780 -0.5575 -0.0482
 7830TIP3    H144981   0.475   3.511  11.301  0.8386 -0.6080  0.2438
 7830TIP3    H244982   0.536   3.633  11.367 -0.9360  0.7246 -0.5294
 7831TIP3   OH244983   2.767   0.372  12.593 -0.2184 -0.1890 -0.0544
 7831TIP3    H144984   2.684   0.385  12.547 -0.4551  1.3730  0.7656
 7831TIP3    H244985   2.763   0.282  12.626 -2.4792  0.4805  1.6659
 7832TIP3   OH244986   1.561   3.028  14.843 -0.4784  0.4663 -0.0069
 7832TIP3    H144987   1.566   3.096  14.911  2.4128  0.1127  0.2038
 7832TIP3    H244988   1.494   3.060  14.782 -1.0590  2.1998  1.4850
 7833TIP3   OH244989   3.587   4.026   3.794 -0.1786  0.4583  0.4053
 7833TIP3    H144990   3.559   3.934   3.797  2.8071 -0.4691  1.8978
 7833TIP3    H244991   3.674   4.023   3.754 -0.2785  2.7306 -0.0390
 7834TIP3   OH244992   1.269   1.909   1.291  0.1972  0.1420  0.2325
 7834TIP3    H144993   1.327   1.949   1.226  0.7849 -0.3372  0.4550
 7834TIP3    H244994   1.325   1.847   1.337 -0.3705  0.0426  0.7904
 7835TIP3   OH244995   0.828   5.114   4.260 -0.4870  0.2507  0.4282
 7835TIP3    H144996   0.765   5.182   4.235 -0.6416 -0.2226 -0.4968
 7835TIP3    H244997   0.904   5.130   4.203 -0.7169 -0.6498 -0.1299
 7836TIP3   OH244998   2.954   5.122  12.027 -0.5047  0.5115  1.1948
 7836TIP3    H144999   2.975   5.209  11.995  0.6527 -0.3340 -0.4283
 7836TIP3    H245000   3.000   5.114  12.110  0.6354  0.8927  0.6027
 7837TIP3   OH245001   5.577   6.443   1.835  0.6838  0.4006 -0.2932
 7837TIP3    H145002   5.499   6.463   1.784  0.4248 -0.1580 -0.1302
 7837TIP3    H245003   5.567   6.350   1.858  1.5976  0.2177 -0.6177
 7838TIP3   OH245004   0.855   0.177   2.658  0.1354  0.7644 -0.1248
 7838TIP3    H145005   0.857   0.266   2.693 -1.1235  0.5895  0.4348
 7838TIP3    H245006   0.780   0.177   2.598  1.1561  0.5495 -1.4283
 7839TIP3   OH245007   0.416   5.697  15.326  0.0324  0.1247  0.3086
 7839TIP3    H145008   0.408   5.610  15.367  0.2106 -0.8934 -1.7704
 7839TIP3    H245009   0.326   5.720  15.304 -0.0541  0.6388  1.1818
 7840TIP3   OH245010   2.775   4.268   0.845 -0.8441  0.1000 -0.3265
 7840TIP3    H145011   2.723   4.189   0.864 -1.8011  0.5781 -0.9235
 7840TIP3    H245012   2.743   4.298   0.760  1.6525 -0.5792 -1.5530
 7841TIP3   OH245013   5.437   5.610   4.799  0.5571  0.0160 -0.1003
 7841TIP3    H145014   5.366   5.547   4.814  0.3258  0.5276  0.9917
 7841TIP3    H245015   5.512   5.573   4.846  1.3717 -1.1084 -2.1974
 7842TIP3   OH245016   2.475   3.203  10.963 -0.2743  0.1280 -0.1949
 7842TIP3    H145017   2.436   3.246  10.886 -2.0550 -0.6488  0.2302
 7842TIP3    H245018   2.487   3.274  11.026 -3.3965  0.0790  0.5839
 7843TIP3   OH245019   4.814   2.560   3.689 -0.5544 -0.0750  0.7536
 7843TIP3    H145020   4.855   2.580   3.773 -1.9596  1.2950  1.1276
 7843TIP3    H245021   4.722   2.584   3.701 -1.1792 -1.7053 -0.5471
 7844TIP3   OH245022   4.425   5.629  16.534  0.6302  0.0368  0.3342
 7844TIP3    H145023   4.510   5.594  16.558  0.5640  1.4700  2.7594
 7844TIP3    H245024   4.444   5.709  16.486  0.7353 -2.3968 -3.9505
 7845TIP3   OH245025   2.906   1.214  16.847  0.6033 -0.4504 -0.7890
 7845TIP3    H145026   2.999   1.191  16.837  0.6639  0.6396 -2.9258
 7845TIP3    H245027   2.861   1.130  16.849  1.5014 -0.9522 -1.2784
 7846TIP3   OH245028   6.364   2.201  13.417 -0.3061 -0.5813 -0.4489
 7846TIP3    H145029   6.386   2.112  13.388  0.0046 -0.2458 -1.2543
 7846TIP3    H245030   6.413   2.212  13.499 -0.4023 -1.1741 -0.3063
 7847TIP3   OH245031   1.192   5.020  13.852  0.7057 -0.4818 -0.0907
 7847TIP3    H145032   1.198   4.994  13.944 -0.8696  0.0322  0.1769
 7847TIP3    H245033   1.118   4.970  13.817 -0.0905  0.9270 -0.4936
 7848TIP3   OH245034   4.427   0.699   1.792  0.3214  0.2106  0.2570
 7848TIP3    H145035   4.482   0.778   1.794  1.0178 -0.2520 -0.4720
 7848TIP3    H245036   4.349   0.726   1.744  0.0780  0.7540  0.9388
 7849TIP3   OH245037   6.604   4.304  12.195 -0.4471  0.5291 -0.1106
 7849TIP3    H145038   6.527   4.324  12.248 -1.2477  1.1745 -1.4720
 7849TIP3    H245039   6.677   4.346  12.240 -1.2451  1.7947  0.0105
 7850TIP3   OH245040   0.560   5.853   3.392  0.1202  0.5114 -1.1174
 7850TIP3    H145041   0.513   5.836   3.474 -1.2304  0.6939 -1.8378
 7850TIP3    H245042   0.652   5.851   3.417 -0.2684  0.5813  0.4185
 7851TIP3   OH245043   1.872   0.998   5.949 -0.0051  0.3724  0.7527
 7851TIP3    H145044   1.908   1.087   5.956  0.1382  0.2116  2.4549
 7851TIP3    H245045   1.901   0.955   6.030  0.7471 -1.5288 -0.4964
 7852TIP3   OH245046   4.325   3.484   0.097 -0.5054  0.8192  0.2490
 7852TIP3    H145047   4.295   3.564   0.055 -2.0614  0.1362 -0.0025
 7852TIP3    H245048   4.334   3.506   0.190  0.1878  1.5745  0.0037
 7853TIP3   OH245049   1.457   1.352  13.570  0.4976 -0.0513  0.2295
 7853TIP3    H145050   1.533   1.314  13.526  0.7253  0.3195  0.2963
 7853TIP3    H245051   1.382   1.309  13.530  0.6612  0.7546 -1.0043
 7854TIP3   OH245052   1.381   6.064  13.383 -0.3292  0.2287  0.3591
 7854TIP3    H145053   1.304   6.038  13.434  0.6539 -1.1452  1.1469
 7854TIP3    H245054   1.454   6.017  13.423  0.7013  0.3550 -1.3288
 7855TIP3   OH245055   3.141   6.365   6.024  0.2933 -0.2728 -0.6512
 7855TIP3    H145056   3.166   6.449   6.063 -1.5164  0.3586 -0.7677
 7855TIP3    H245057   3.223   6.322   6.004  1.2558  0.8645  0.7295
 7856TIP3   OH245058   6.485   4.542  11.660 -0.4850  0.0725 -0.6155
 7856TIP3    H145059   6.434   4.557  11.580 -2.6986  0.9159  0.9011
 7856TIP3    H245060   6.465   4.617  11.715 -0.7344 -1.5856  1.6096
 7857TIP3   OH245061   0.400   5.857   3.608 -0.2238  0.0872 -0.1806
 7857TIP3    H145062   0.348   5.825   3.682  0.4765  0.4866  0.4792
 7857TIP3    H245063   0.352   5.934   3.577  0.7955  1.4175  1.4355
 7858TIP3   OH245064   4.668   0.352  11.978 -0.1259  0.4279  0.6582
 7858TIP3    H145065   4.633   0.408  12.047  1.4543 -0.3106  2.1198
 7858TIP3    H245066   4.594   0.335  11.920 -2.1241 -0.8266  3.4387
 7859TIP3   OH245067   0.331   3.356  14.663  0.0411  0.1829 -0.0171
 7859TIP3    H145068   0.245   3.344  14.703  0.5890 -0.2651  1.0375
 7859TIP3    H245069   0.392   3.360  14.737  1.0138 -0.2145 -0.7876
 7860TIP3   OH245070   3.661   5.537   0.149 -0.0613 -0.3635  0.4109
 7860TIP3    H145071   3.657   5.441   0.156  0.6624 -0.3499  1.1822
 7860TIP3    H245072   3.734   5.553   0.089 -0.9952 -0.3127 -0.7283
 7861TIP3   OH245073   4.678   5.253   4.795 -0.1731  0.4851  0.4343
 7861TIP3    H145074   4.608   5.312   4.767 -2.0702 -1.5822  0.6719
 7861TIP3    H245075   4.701   5.282   4.883 -1.7266  0.3453  0.9031
 7862TIP3   OH245076   2.158   1.506   2.624  0.5063  0.0693 -0.0197
 7862TIP3    H145077   2.111   1.588   2.638  1.6387  0.8724 -0.9127
 7862TIP3    H245078   2.122   1.447   2.690 -2.0189  0.5515 -0.9058
 7863TIP3   OH245079   2.263   6.442  11.479 -0.0972  0.0881 -0.6859
 7863TIP3    H145080   2.218   6.375  11.427  0.7720 -0.5934 -0.5746
 7863TIP3    H245081   2.268   6.405  11.567  0.8148  0.0854 -0.7309
 7864TIP3   OH245082   4.547   3.573   4.941  0.3103  0.5368  0.2818
 7864TIP3    H145083   4.634   3.575   4.981  0.1833 -1.9256  0.7476
 7864TIP3    H245084   4.495   3.516   4.998 -1.2163  0.8629 -0.7463
 7865TIP3   OH245085   4.312   1.544  16.783  0.0886  0.1034  0.4432
 7865TIP3    H145086   4.348   1.545  16.871  0.0858  2.2459  0.4455
 7865TIP3    H245087   4.234   1.599  16.788  0.6465  1.0674 -1.1062
 7866TIP3   OH245088   4.277   0.396  15.649 -0.3799 -0.8322  0.0557
 7866TIP3    H145089   4.225   0.475  15.661 -1.0874 -1.4564  1.2528
 7866TIP3    H245090   4.333   0.415  15.574 -1.1099  0.4981 -0.1742
 7867TIP3   OH245091   4.201   5.392   6.079  0.0635 -0.5305 -0.1191
 7867TIP3    H145092   4.238   5.470   6.037  0.2009 -0.9856 -0.8287
 7867TIP3    H245093   4.107   5.411   6.086  0.1590 -0.1226  0.0980
 7868TIP3   OH245094   5.838   3.007  11.593 -0.0930  0.1522 -1.0185
 7868TIP3    H145095   5.778   3.077  11.566  0.4086  0.7397 -0.6349
 7868TIP3    H245096   5.838   2.946  11.519 -1.0579  0.2078 -1.0793
 7869TIP3   OH245097   2.177   4.573   4.873  0.1592 -0.7018  0.0275
 7869TIP3    H145098   2.266   4.547   4.850  0.5646  0.6769 -0.0338
 7869TIP3    H245099   2.186   4.664   4.903 -1.0198 -1.0039  1.3375
 7870TIP3   OH245100   5.485   2.503  15.653  0.1222 -0.1530  0.1289
 7870TIP3    H145101   5.567   2.457  15.673  0.3176 -0.2484 -0.8318
 7870TIP3    H245102   5.497   2.535  15.563 -0.6510  0.3708  0.2058
 7871TIP3   OH245103   5.597   5.902  14.850 -0.2058 -0.0734  0.0922
 7871TIP3    H145104   5.540   5.977  14.866 -0.2548  0.0079 -0.4519
 7871TIP3    H245105   5.537   5.832  14.822 -0.0868 -0.1008 -0.0999
 7872TIP3   OH245106   6.255   2.749   5.718  0.0739 -0.6973  0.2846
 7872TIP3    H145107   6.226   2.658   5.705 -0.8173 -0.5098  0.8761
 7872TIP3    H245108   6.350   2.743   5.726  0.1273 -1.4494 -0.7564
 7873TIP3   OH245109   2.864   4.486   3.274  0.3856 -0.5522 -0.0436
 7873TIP3    H145110   2.861   4.391   3.285  0.6679 -0.6783 -0.9515
 7873TIP3    H245111   2.911   4.518   3.351  0.8286 -1.2120 -0.0373
 7874TIP3   OH245112   3.791   2.967  17.197  0.2881  0.4075  0.3831
 7874TIP3    H145113   3.790   2.999  17.287  0.4311  1.8319 -0.0993
 7874TIP3    H245114   3.719   3.013  17.154 -1.0003 -1.6894  0.2241
 7875TIP3   OH245115   6.288   0.857  11.442  0.1989 -0.2143 -0.0043
 7875TIP3    H145116   6.264   0.941  11.404 -2.4224 -0.8266  0.2002
 7875TIP3    H245117   6.282   0.795  11.369 -1.9100 -0.8862  0.7075
 7876TIP3   OH245118   1.927   5.014   0.275 -0.3550 -0.8472  0.1830
 7876TIP3    H145119   1.835   5.035   0.257 -0.3741 -0.4207  0.7672
 7876TIP3    H245120   1.926   4.978   0.363  0.1400 -0.1686  0.4631
 7877TIP3   OH245121   6.209   2.692  10.829  0.8248  0.4378  0.3355
 7877TIP3    H145122   6.254   2.771  10.801  0.7663  0.1337 -0.6566
 7877TIP3    H245123   6.279   2.634  10.861  0.9483  0.6075  0.3675
 7878TIP3   OH245124   0.866   6.641  13.874 -0.3909 -0.5542 -0.2656
 7878TIP3    H145125   0.959   6.624  13.882 -0.1792  0.9848  0.6284
 7878TIP3    H245126   0.827   6.602  13.952 -0.2915  0.2360  0.1831
 7879TIP3   OH245127   2.069   0.989   1.043 -0.1672  0.6149  0.6048
 7879TIP3    H145128   2.140   0.995   1.107 -0.6532 -1.0054  1.3274
 7879TIP3    H245129   2.033   0.901   1.056 -1.5986  1.0259 -0.5002
 7880TIP3   OH245130   4.748   4.241  14.354  0.5491 -0.1477  0.2789
 7880TIP3    H145131   4.808   4.211  14.422  1.3798  0.0665 -0.3511
 7880TIP3    H245132   4.763   4.335  14.348  0.3548 -0.1372 -0.0803
 7881TIP3   OH245133   6.373   4.460  12.636 -0.0948  0.1762 -0.3857
 7881TIP3    H145134   6.436   4.412  12.690  1.4476  0.2867 -2.0265
 7881TIP3    H245135   6.393   4.553  12.653 -0.6906  0.2204  0.0776
 7882TIP3   OH245136   5.372   5.684  13.154 -0.2060 -0.7817  0.0515
 7882TIP3    H145137   5.341   5.774  13.149  0.7816 -0.5067 -1.4763
 7882TIP3    H245138   5.440   5.686  13.222  0.5576 -0.1354 -0.7145
 7883TIP3   OH245139   4.281   3.272   3.058  0.3871  0.0642 -0.1608
 7883TIP3    H145140   4.260   3.347   3.113  0.0663  0.2033 -0.4716
 7883TIP3    H245141   4.376   3.275   3.049  0.5327 -0.4773  1.1150
 7884TIP3   OH245142   1.179   1.316   2.408 -0.0094  0.2902  0.0478
 7884TIP3    H145143   1.220   1.375   2.472  0.1022  0.5940 -0.3001
 7884TIP3    H245144   1.246   1.249   2.392  0.1671  0.5107 -0.1479
 7885TIP3   OH245145   3.511   3.474  11.596  0.3777  0.5741  0.0237
 7885TIP3    H145146   3.557   3.482  11.512  0.4518  0.5304  0.0598
 7885TIP3    H245147   3.453   3.550  11.598 -1.0219 -0.4462 -0.9232
 7886TIP3   OH245148   4.034   4.930  14.010  0.2956 -0.3337 -0.8698
 7886TIP3    H145149   3.971   4.973  13.953  1.7006  1.5900 -1.0040
 7886TIP3    H245150   4.060   4.997  14.073 -0.1464 -2.0111  1.1711
 7887TIP3   OH245151   1.039   3.926  14.997 -0.1946  0.5689 -0.3068
 7887TIP3    H145152   1.094   3.852  14.972 -0.0424  0.3769  0.5823
 7887TIP3    H245153   1.096   4.002  14.990 -0.5156  0.6877 -1.8031
 7888TIP3   OH245154   5.067   1.693   3.593 -0.1227 -0.0981 -0.0052
 7888TIP3    H145155   5.025   1.777   3.572 -0.5689 -0.2410  0.3100
 7888TIP3    H245156   5.005   1.649   3.651  1.3167  0.5540  2.1042
 7889TIP3   OH245157   3.262   1.572   1.216 -0.1857  0.3030  1.1514
 7889TIP3    H145158   3.269   1.627   1.138 -0.0261  1.9859  2.3258
 7889TIP3    H245159   3.299   1.625   1.286 -2.2401 -0.3557  2.7817
 7890TIP3   OH245160   5.113   0.632  12.380  0.1412 -0.5709  0.5808
 7890TIP3    H145161   5.182   0.684  12.339  1.1698 -0.7121  2.0563
 7890TIP3    H245162   5.151   0.605  12.464 -0.7986 -2.7262  0.3519
 7891TIP3   OH245163   5.174   6.532  15.451 -0.0647  0.1396 -0.4659
 7891TIP3    H145164   5.226   6.460  15.485 -0.5854  0.4239  0.9839
 7891TIP3    H245165   5.085   6.515  15.483  0.2649  2.6776  2.0110
 7892TIP3   OH245166   4.476   2.598   1.030 -0.5106 -0.5021  0.2368
 7892TIP3    H145167   4.461   2.544   1.108  0.4120 -0.5984  0.3491
 7892TIP3    H245168   4.468   2.688   1.063  1.1245 -0.5240  0.7011
 7893TIP3   OH245169   2.312   1.785  12.719 -0.6331  0.1541 -0.5392
 7893TIP3    H145170   2.341   1.830  12.799 -1.7595 -1.5960  0.8760
 7893TIP3    H245171   2.390   1.739  12.689 -0.5831 -0.3465  0.3552
 7894TIP3   OH245172   4.831   4.608  15.726 -0.0905  0.2139  0.0865
 7894TIP3    H145173   4.876   4.615  15.642 -0.0945 -1.8493 -0.1207
 7894TIP3    H245174   4.764   4.676  15.723  1.6893  1.9667 -0.4392
 7895TIP3   OH245175   4.885   6.532   0.768  0.4072  0.5051 -0.6874
 7895TIP3    H145176   4.822   6.555   0.836 -1.5207 -0.0865 -2.2524
 7895TIP3    H245177   4.891   6.610   0.713  2.5673  1.2656  0.5709
 7896TIP3   OH245178   6.607   4.758   4.734  0.5088 -0.7319  0.5811
 7896TIP3    H145179   6.512   4.746   4.743  0.3669  0.4173  0.6667
 7896TIP3    H245180   6.641   4.743   4.822  0.2984 -0.1920  0.7548
 7897TIP3   OH245181   2.519   3.384   4.679 -0.3842 -0.3350  0.2011
 7897TIP3    H145182   2.586   3.434   4.632  0.6477 -1.1027  0.8379
 7897TIP3    H245183   2.472   3.337   4.610  0.9537 -1.2489 -0.0982
 7898TIP3   OH245184   4.235   6.373  15.037  0.3865 -0.4891  0.1996
 7898TIP3    H145185   4.307   6.422  15.076  1.4141 -0.5151 -1.6167
 7898TIP3    H245186   4.210   6.423  14.960  0.0946 -1.7400 -0.5451
 7899TIP3   OH245187   0.960   6.269   2.681  0.5960  0.1172 -0.4841
 7899TIP3    H145188   0.954   6.291   2.588 -1.2040  1.5733 -0.0578
 7899TIP3    H245189   0.871   6.241   2.705  1.6773 -3.0371  0.1599
 7900TIP3   OH245190   3.519   3.727  12.682 -0.0494  0.4310 -0.3806
 7900TIP3    H145191   3.606   3.687  12.684  1.3213  3.1826 -1.3524
 7900TIP3    H245192   3.515   3.780  12.762 -1.3438 -0.6549  0.2949
 7901TIP3   OH245193   5.690   1.215  16.887 -0.4717 -0.2115 -0.1547
 7901TIP3    H145194   5.750   1.179  16.822 -0.0193  0.9098 -0.3671
 7901TIP3    H245195   5.632   1.272  16.837  1.4924  2.6698  0.7592
 7902TIP3   OH245196   0.312   1.468  13.383  0.8472 -0.5567 -0.0795
 7902TIP3    H145197   0.347   1.500  13.467  1.1193 -0.0354 -0.3873
 7902TIP3    H245198   0.384   1.480  13.321 -0.3208  1.8233 -1.0240
 7903TIP3   OH245199   6.743   6.324  15.593 -0.0672  0.0943  0.5494
 7903TIP3    H145200   6.697   6.301  15.674  1.0395  1.7857  1.6883
 7903TIP3    H245201   6.675   6.366  15.539 -1.3938 -3.1822 -0.4091
 7904TIP3   OH245202   2.700   5.309  13.450  0.3953  0.3633  0.4131
 7904TIP3    H145203   2.623   5.272  13.492  0.1329 -0.0754 -0.4294
 7904TIP3    H245204   2.668   5.341  13.365  1.4576 -1.3580 -0.6702
 7905TIP3   OH245205   5.979   6.120  15.608 -0.7097 -0.2565  0.0338
 7905TIP3    H145206   5.903   6.131  15.550  0.6107 -0.5760 -1.7786
 7905TIP3    H245207   6.022   6.041  15.576  0.6786  0.2111  0.7273
 7906TIP3   OH245208   1.453   0.305  15.557  0.1828  0.0027 -0.1500
 7906TIP3    H145209   1.377   0.302  15.616 -0.6191 -0.7943 -1.2126
 7906TIP3    H245210   1.526   0.332  15.614 -0.8251  0.4739  0.9441
 7907TIP3   OH245211   1.819   5.541   4.847  0.3080  0.3234  0.0759
 7907TIP3    H145212   1.785   5.631   4.843 -0.3044  0.0991  0.1495
 7907TIP3    H245213   1.761   5.491   4.790  0.6269 -0.0343  0.0639
 7908TIP3   OH245214   2.097   6.815  11.955  0.0372  0.0061 -0.3920
 7908TIP3    H145215   2.189   6.841  11.949  0.1467 -0.0610  0.9167
 7908TIP3    H245216   2.063   6.863  12.030 -1.0463  0.1656 -0.9775
 7909TIP3   OH245217   6.605   5.594  16.974 -0.4336 -0.9407  0.4562
 7909TIP3    H145218   6.600   5.539  17.052  1.7326 -1.3408  0.3473
 7909TIP3    H245219   6.677   5.655  16.992 -0.4512 -0.5031 -0.8752
 7910TIP3   OH245220   3.653   2.203  12.571  0.4074  0.1881  0.7089
 7910TIP3    H145221   3.744   2.174  12.583  0.7147  0.1694 -1.5153
 7910TIP3    H245222   3.660   2.287  12.526 -0.6641  0.8739  1.7930
 7911TIP3   OH245223   1.602   2.405   2.630  0.1120  0.0595  0.2178
 7911TIP3    H145224   1.545   2.480   2.612 -1.0087 -0.4048  1.7127
 7911TIP3    H245225   1.621   2.411   2.723  0.8154 -0.9619  0.1502
 7912TIP3   OH245226   0.183   5.618  12.020 -0.2964  0.2051  0.0815
 7912TIP3    H145227   0.222   5.530  12.017 -0.4259  0.1482  0.0117
 7912TIP3    H245228   0.177   5.644  11.928  0.4386  0.6020  0.1449
 7913TIP3   OH245229   0.339   1.699  12.839  0.6113  0.2492  0.0372
 7913TIP3    H145230   0.435   1.703  12.840  0.6517 -0.0716 -1.6528
 7913TIP3    H245231   0.315   1.721  12.750 -0.9077  0.4534  0.4897
 7914TIP3   OH245232   6.273   5.909   3.523 -0.1082 -0.4479 -0.2946
 7914TIP3    H145233   6.256   5.993   3.480  0.0826 -0.2938 -0.0668
 7914TIP3    H245234   6.201   5.853   3.494 -1.0625  0.2195  0.7107
 7915TIP3   OH245235   4.871   0.377   4.155  0.4639  0.3358  0.2332
 7915TIP3    H145236   4.941   0.318   4.184 -0.9750 -0.4775  2.1854
 7915TIP3    H245237   4.878   0.378   4.060  1.8239 -1.3752  0.2931
 7916TIP3   OH245238   0.086   0.228   5.948 -0.3204 -0.3463  0.5610
 7916TIP3    H145239   0.003   0.209   5.991  0.0372 -0.4674  1.2038
 7916TIP3    H245240   0.062   0.277   5.869 -1.0975 -1.5395  0.0419
 7917TIP3   OH245241   0.287   3.800   0.606  0.2416  0.4966 -0.2177
 7917TIP3    H145242   0.278   3.881   0.556 -2.4167 -0.2503 -1.0522
 7917TIP3    H245243   0.249   3.733   0.549 -1.1619 -0.6810  2.0398
 7918TIP3   OH245244   1.869   5.972   4.994  0.0881  0.9721  0.1027
 7918TIP3    H145245   1.781   5.939   4.976  0.1686 -0.1446  1.6926
 7918TIP3    H245246   1.928   5.900   4.970  0.2850  0.0560  3.1975
 7919TIP3   OH245247   5.829   4.710  16.004  0.4685  0.5235 -0.6798
 7919TIP3    H145248   5.833   4.702  15.909  2.2998  0.1321 -0.5900
 7919TIP3    H245249   5.918   4.690  16.034 -0.1889  0.1955  1.1492
 7920TIP3   OH245250   5.076   6.104   2.509  0.3549  0.4400  0.1902
 7920TIP3    H145251   5.019   6.028   2.517 -0.5744  0.9731 -1.1653
 7920TIP3    H245252   5.017   6.179   2.516  1.2536  1.0383  1.4510
 7921TIP3   OH245253   1.054   2.162  12.342 -0.1321 -0.5814  0.2036
 7921TIP3    H145254   1.069   2.124  12.428 -1.7568 -1.8034 -0.0558
 7921TIP3    H245255   1.067   2.090  12.280 -0.4513 -0.0692 -0.4753
 7922TIP3   OH245256   3.919   1.306   1.521 -0.7038  0.6374 -0.0583
 7922TIP3    H145257   3.990   1.328   1.460 -0.8414 -0.2422 -0.5544
 7922TIP3    H245258   3.857   1.378   1.514 -1.5427 -0.2511 -2.2510
 7923TIP3   OH245259   4.818   5.394   1.655  0.0843  0.4994  0.3318
 7923TIP3    H145260   4.889   5.367   1.597 -0.3187  0.9961 -0.3895
 7923TIP3    H245261   4.825   5.335   1.730  1.5446  0.8256  0.4717
 7924TIP3   OH245262   6.141   2.093  14.600  0.0086  0.0685  0.4821
 7924TIP3    H145263   6.185   2.100  14.515 -1.5338  2.1759 -0.1757
 7924TIP3    H245264   6.199   2.038  14.652  0.6319 -1.8676 -2.1600
 7925TIP3   OH245265   2.606   4.648  17.075 -0.6648 -0.2384 -0.2928
 7925TIP3    H145266   2.585   4.619  16.987 -0.7957  0.8623 -0.6323
 7925TIP3    H245267   2.658   4.727  17.063 -0.9685  0.1128  0.6097
 7926TIP3   OH245268   1.212   0.575   2.333  0.1267 -0.2317 -0.0803
 7926TIP3    H145269   1.149   0.645   2.350 -1.0415 -0.9880 -1.2369
 7926TIP3    H245270   1.171   0.497   2.370  0.8947 -0.5273  0.1551
 7927TIP3   OH245271   0.887   2.901  12.592 -0.1759 -0.3872  0.4528
 7927TIP3    H145272   0.865   2.994  12.587 -1.6690 -0.7176  0.5588
 7927TIP3    H245273   0.922   2.890  12.681 -0.2295  0.0213  0.5283
 7928TIP3   OH245274   6.626   4.517  15.436  0.4519  0.6695  0.5327
 7928TIP3    H145275   6.543   4.471  15.448  0.0173  0.9800 -1.1213
 7928TIP3    H245276   6.684   4.478  15.501 -0.6783 -0.3300  0.9740
 7929TIP3   OH245277   1.843   5.134   5.284  0.1030 -0.4517  0.1431
 7929TIP3    H145278   1.776   5.197   5.311  1.7739  0.2315  2.9131
 7929TIP3    H245279   1.818   5.052   5.327  0.1702 -0.6053 -0.1112
 7930TIP3   OH245280   3.634   1.011   0.160 -0.2600  0.2788  0.1125
 7930TIP3    H145281   3.716   1.058   0.150  0.5970 -1.1816  0.2459
 7930TIP3    H245282   3.624   0.960   0.080 -0.8423  0.1404  0.2668
 7931TIP3   OH245283   0.349   1.500  12.390  0.1104  0.0279  0.0084
 7931TIP3    H145284   0.379   1.416  12.354 -0.3221 -0.1954  0.1584
 7931TIP3    H245285   0.428   1.553  12.397  0.2913 -0.1390 -0.7087
 7932TIP3   OH245286   3.097   5.849   2.583  0.1578 -0.0331  0.2436
 7932TIP3    H145287   3.102   5.942   2.562  1.6148 -0.1348  0.1158
 7932TIP3    H245288   3.171   5.833   2.640 -1.3719 -0.6571  2.1171
 7933TIP3   OH245289   0.196   3.977   3.190 -0.3082 -0.6077 -0.8517
 7933TIP3    H145290   0.252   4.046   3.226  1.0980 -0.9635 -2.2460
 7933TIP3    H245291   0.256   3.902   3.178 -1.3178 -1.3388 -1.3975
 7934TIP3   OH245292   6.153   6.504  11.365  0.1260 -0.0569  0.4142
 7934TIP3    H145293   6.058   6.511  11.356  0.2193  2.1494  0.9142
 7934TIP3    H245294   6.179   6.437  11.301 -1.5078  0.8507 -1.2180
 7935TIP3   OH245295   5.575   0.451   2.494 -0.1715  0.2568 -0.2988
 7935TIP3    H145296   5.642   0.383   2.482 -0.8146 -0.6557  1.1136
 7935TIP3    H245297   5.618   0.517   2.550 -0.7017 -0.7425  1.3226
 7936TIP3   OH245298   4.483   5.266  13.476 -0.2236 -0.1229  0.1325
 7936TIP3    H145299   4.506   5.278  13.568  0.9824 -2.6115  0.1836
 7936TIP3    H245300   4.566   5.251  13.432 -0.8746  0.1912 -1.2372
 7937TIP3   OH245301   3.326   1.073   1.742 -0.2738 -0.0956  0.7388
 7937TIP3    H145302   3.409   1.063   1.789 -0.4750 -2.0682  0.7217
 7937TIP3    H245303   3.347   1.052   1.651 -0.2927  1.8083  0.2774
 7938TIP3   OH245304   0.492   1.686   6.065 -0.1017 -0.0583  0.1831
 7938TIP3    H145305   0.446   1.705   6.147 -0.1099  3.0556 -0.5109
 7938TIP3    H245306   0.572   1.641   6.093  0.7818  2.5467  2.0719
 7939TIP3   OH245307   6.281   4.673   3.981  0.3761 -0.5527 -0.4845
 7939TIP3    H145308   6.231   4.703   4.057  1.2513  0.6776 -0.3635
 7939TIP3    H245309   6.366   4.647   4.017  2.1245  3.4872 -1.4064
 7940TIP3   OH245310   4.289   2.444   6.194 -0.7611 -0.5725 -0.3081
 7940TIP3    H145311   4.345   2.380   6.238  1.5634  0.5950 -1.5014
 7940TIP3    H245312   4.250   2.395   6.122  0.1240 -0.9279 -0.5474
 7941TIP3   OH245313   5.381   3.255   1.408 -0.3148 -0.0874 -0.0327
 7941TIP3    H145314   5.402   3.165   1.383  0.1074 -0.1385  0.5080
 7941TIP3    H245315   5.287   3.255   1.423 -0.6499  0.0156 -1.9425
 7942TIP3   OH245316   1.511   4.839  12.381 -0.2303 -0.0471 -0.8199
 7942TIP3    H145317   1.485   4.919  12.427 -1.8316 -0.8517 -0.2908
 7942TIP3    H245318   1.590   4.864  12.333 -0.8721  1.9462 -0.9082
 7943TIP3   OH245319   0.100   5.063  14.004 -0.0961 -0.9787  0.0441
 7943TIP3    H145320   0.115   5.099  13.916  1.3196  0.6927  0.9488
 7943TIP3    H245321   0.159   4.988  14.010  0.4815 -0.5408 -0.1033
 7944TIP3   OH245322   6.023   2.208  13.761  0.0242 -0.2763  0.5418
 7944TIP3    H145323   5.946   2.259  13.739  0.4966  0.3300  0.2808
 7944TIP3    H245324   6.048   2.166  13.679 -0.5494 -1.1914  0.8247
 7945TIP3   OH245325   6.022   5.780  16.537 -0.4707 -0.0478  0.2641
 7945TIP3    H145326   6.009   5.710  16.474  3.9034  0.2242 -1.1210
 7945TIP3    H245327   6.026   5.860  16.484  1.2016  0.4242  1.0466
 7946TIP3   OH245328   3.730   6.225  14.256 -0.5481 -0.8578  0.6769
 7946TIP3    H145329   3.693   6.198  14.172  1.1691 -0.9736 -0.0613
 7946TIP3    H245330   3.728   6.146  14.309  0.3208 -1.3101  0.0346
 7947TIP3   OH245331   2.132   4.163   3.818 -0.0326 -0.0564 -0.2691
 7947TIP3    H145332   2.103   4.254   3.817  1.7401  0.5338  0.2376
 7947TIP3    H245333   2.200   4.160   3.884  0.0310 -1.7373 -0.3752
 7948TIP3   OH245334   4.160   6.113  12.308  0.3847  0.4041 -0.0687
 7948TIP3    H145335   4.146   6.018  12.301  0.8060  0.4097 -1.0975
 7948TIP3    H245336   4.079   6.146  12.346  0.6855 -0.5030  1.3883
 7949TIP3   OH245337   2.729   3.972  15.519  0.3794  0.2564 -0.0634
 7949TIP3    H145338   2.697   4.059  15.543 -0.6174  0.3098 -1.5309
 7949TIP3    H245339   2.789   3.988  15.446  2.2121 -0.0532  1.3261
 7950TIP3   OH245340   3.820   5.746  11.131 -0.4636  0.2478 -0.0949
 7950TIP3    H145341   3.872   5.674  11.166 -1.7708 -0.9391 -0.5452
 7950TIP3    H245342   3.848   5.822  11.181 -0.3369 -0.9142  1.6500
 7951TIP3   OH245343   5.134   0.163   6.456 -0.6210 -0.0473 -0.1748
 7951TIP3    H145344   5.121   0.231   6.522  0.2762  1.4104 -1.4749
 7951TIP3    H245345   5.214   0.118   6.483 -0.9316 -0.2492  0.4046
 7952TIP3   OH245346   2.863   1.262  14.935 -0.3628  0.1238  0.2433
 7952TIP3    H145347   2.932   1.222  14.882  0.1127 -0.4193  1.2533
 7952TIP3    H245348   2.782   1.229  14.898 -0.1136  1.2951 -1.3848
 7953TIP3   OH245349   0.248   6.453   5.908  1.0728  0.5837 -0.3355
 7953TIP3    H145350   0.318   6.466   5.972  0.4706  1.3586  0.1778
 7953TIP3    H245351   0.170   6.487   5.951  0.0731 -1.7131 -0.2868
 7954TIP3   OH245352   3.243   2.274  16.079  0.1504 -0.3409 -0.2282
 7954TIP3    H145353   3.269   2.241  16.165 -1.6105  3.3686  1.8661
 7954TIP3    H245354   3.294   2.354  16.068 -1.3640  0.4561 -1.5831
 7955TIP3   OH245355   1.100   2.065   1.032  0.2650 -0.6627  0.2385
 7955TIP3    H145356   1.040   2.005   1.076 -1.1074  0.9780  0.6365
 7955TIP3    H245357   1.166   2.007   0.993 -0.1021 -2.3209  1.9735
 7956TIP3   OH245358   0.036   1.740  11.220  0.3235  0.3451 -0.5470
 7956TIP3    H145359   0.109   1.736  11.158 -0.5071  0.1613 -1.5277
 7956TIP3    H245360  -0.034   1.786  11.172 -0.2821  0.3204  0.3017
 7957TIP3   OH245361   0.445   0.624  11.492 -0.1344  0.5546  0.0706
 7957TIP3    H145362   0.482   0.596  11.575  1.5601  0.0666 -0.8358
 7957TIP3    H245363   0.375   0.561  11.474  1.8238 -1.5180 -0.5918
 7958TIP3   OH245364   2.860   3.695   3.553  0.8686  0.2715  0.0112
 7958TIP3    H145365   2.932   3.754   3.578  0.0575  2.1044 -1.9143
 7958TIP3    H245366   2.787   3.722   3.609  0.0743  2.0897 -1.8517
 7959TIP3   OH245367   3.410   4.335   2.334  0.3804 -0.0594  0.0631
 7959TIP3    H145368   3.440   4.367   2.249  0.9423 -1.1724 -0.1571
 7959TIP3    H245369   3.318   4.313   2.320  0.2737  0.4604 -0.0580
 7960TIP3   OH245370   4.498   3.308  11.651 -0.0236 -0.3950 -0.0697
 7960TIP3    H145371   4.428   3.243  11.643  0.9138 -1.2743 -1.2859
 7960TIP3    H245372   4.561   3.284  11.583  1.0074  0.9574  0.3872
 7961TIP3   OH245373   2.422   6.441   3.670  0.0822 -0.1970  0.1936
 7961TIP3    H145374   2.491   6.506   3.656  0.1272 -0.2504  0.1679
 7961TIP3    H245375   2.346   6.476   3.624 -0.0772  0.1481  0.7057
 7962TIP3   OH245376   6.363   2.653   1.110 -0.2745 -0.1678  0.3969
 7962TIP3    H145377   6.273   2.658   1.079 -0.3427 -0.7759  0.4988
 7962TIP3    H245378   6.365   2.577   1.168 -0.0873  0.8207  1.7149
 7963TIP3   OH245379   2.017   0.147  16.007 -0.5372  0.0294  0.3032
 7963TIP3    H145380   2.014   0.233  16.050 -1.1952  0.2556 -0.1850
 7963TIP3    H245381   1.926   0.124  15.992 -0.3122  0.0827 -1.2182
 7964TIP3   OH245382   5.799   4.276  16.605  0.0280  0.3616 -0.2767
 7964TIP3    H145383   5.876   4.324  16.574  0.0653 -0.4662 -1.5287
 7964TIP3    H245384   5.725   4.332  16.581 -0.0685 -0.9827 -3.4809
 7965TIP3   OH245385   2.440   1.122   2.824  0.1468 -0.3959 -0.2964
 7965TIP3    H145386   2.384   1.060   2.778  1.2972 -1.2725 -0.5398
 7965TIP3    H245387   2.392   1.144   2.904 -1.2267  0.0551 -1.2278
 7966TIP3   OH245388   3.262   1.135  16.410  0.3029  0.0945  0.4463
 7966TIP3    H145389   3.340   1.144  16.464 -0.4279 -0.4414  1.6155
 7966TIP3    H245390   3.218   1.057  16.445 -0.3287 -0.0788 -0.7258
 7967TIP3   OH245391   4.422   5.297  15.544  0.4128  0.2543  0.0830
 7967TIP3    H145392   4.510   5.334  15.555  0.5926 -0.3950  0.9374
 7967TIP3    H245393   4.428   5.210  15.583 -0.5223  0.0659 -0.1737
 7968TIP3   OH245394   6.569   4.605  11.103 -0.4795  0.0807  0.6218
 7968TIP3    H145395   6.569   4.558  11.020 -0.6751  1.1229  0.0213
 7968TIP3    H245396   6.479   4.598  11.135 -0.2980 -0.7080  0.9781
 7969TIP3   OH245397   0.302   4.135  12.647  0.2395  0.8080  0.3005
 7969TIP3    H145398   0.354   4.216  12.640  0.6890  0.3397 -2.5727
 7969TIP3    H245399   0.234   4.145  12.580  0.6246 -1.3831 -0.4615
 7970TIP3   OH245400   5.761   6.110  15.451  0.3787 -0.0301 -0.0134
 7970TIP3    H145401   5.671   6.131  15.474  0.2745 -0.1289 -0.3378
 7970TIP3    H245402   5.755   6.031  15.398  0.6851 -0.2418  0.2682
 7971TIP3   OH245403   1.652   1.338   5.617  0.4945 -0.1957  0.3859
 7971TIP3    H145404   1.688   1.393   5.548 -0.2909  1.1269  1.0297
 7971TIP3    H245405   1.716   1.343   5.688 -0.7211  1.8123  1.3637
 7972TIP3   OH245406   3.619   5.321  16.685 -0.2327  0.5085 -0.1642
 7972TIP3    H145407   3.684   5.310  16.755  1.4454 -0.0452 -1.7686
 7972TIP3    H245408   3.567   5.396  16.713  0.2998  0.1945  1.7696
 7973TIP3   OH245409   6.165   3.097   0.159  0.3926 -0.2801  0.7469
 7973TIP3    H145410   6.219   3.018   0.158 -0.8890 -1.1801 -0.7438
 7973TIP3    H245411   6.100   3.081   0.227 -0.3499 -0.8766 -0.0838
 7974TIP3   OH245412   3.969   0.280  12.046  0.1280 -0.3224 -0.3888
 7974TIP3    H145413   3.965   0.185  12.061  1.0880 -0.4874 -1.1407
 7974TIP3    H245414   3.977   0.317  12.134  0.4709 -0.9895 -0.1303
 7975TIP3   OH245415   0.596   5.296  12.794  0.1221  0.0052 -0.5147
 7975TIP3    H145416   0.502   5.276  12.798  0.4134 -1.2409  0.4519
 7975TIP3    H245417   0.636   5.213  12.770  0.8798  0.8444 -2.1921
 7976TIP3   OH245418   2.689   5.932   0.374 -0.4198 -0.5387  0.1631
 7976TIP3    H145419   2.679   5.952   0.281 -0.1299  0.0358  0.2513
 7976TIP3    H245420   2.724   6.012   0.412  2.1930 -1.6778  0.2744
 7977TIP3   OH245421   2.771   0.678  17.137  0.6023 -0.0583  0.6631
 7977TIP3    H145422   2.685   0.712  17.109 -0.0424 -1.8773  0.4001
 7977TIP3    H245423   2.798   0.738  17.207 -1.3799 -0.0911  1.4926
 7978TIP3   OH245424   3.396   5.173   5.172 -0.5190  0.4716  0.3274
 7978TIP3    H145425   3.380   5.113   5.098 -1.5922  0.4095  0.5937
 7978TIP3    H245426   3.443   5.246   5.133 -1.6385  0.7419 -0.5646
 7979TIP3   OH245427   1.156   3.667  16.078 -0.1337  0.2465 -0.2816
 7979TIP3    H145428   1.240   3.707  16.100  0.1838  0.7181 -2.2689
 7979TIP3    H245429   1.090   3.733  16.100  0.2009  0.8303 -1.0254
 7980TIP3   OH245430   3.043   3.003  17.114 -0.1112 -0.2790  0.6109
 7980TIP3    H145431   3.013   3.092  17.098 -0.6603 -0.5961 -0.1570
 7980TIP3    H245432   3.111   3.012  17.180  1.9069  1.0126 -1.5842
 7981TIP3   OH245433   2.589   4.992  14.222  0.8785  0.4239 -0.5955
 7981TIP3    H145434   2.597   4.971  14.128 -2.6768  0.3063 -0.9509
 7981TIP3    H245435   2.634   4.920  14.266  0.2195 -0.9912 -2.1665
 7982TIP3   OH245436   4.829   6.090   3.050  0.2059 -0.3005 -0.3141
 7982TIP3    H145437   4.823   6.004   3.091 -1.3810 -0.2135 -0.3340
 7982TIP3    H245438   4.880   6.143   3.111  2.2328 -1.5773 -0.8610
 7983TIP3   OH245439   2.310   0.849   3.192 -0.3606 -0.3422  0.7188
 7983TIP3    H145440   2.257   0.924   3.164 -0.6523  0.4686  3.2167
 7983TIP3    H245441   2.252   0.774   3.186  0.3882 -0.7090 -3.2879
 7984TIP3   OH245442   1.648   1.995   0.112 -0.0779  0.2572 -0.1515
 7984TIP3    H145443   1.678   1.982   0.203  0.2918  0.3615 -0.2568
 7984TIP3    H245444   1.716   1.953   0.059  0.5118  1.5711 -0.4425
 7985TIP3   OH245445   2.723   4.240  15.630 -0.5068 -0.4494  0.0107
 7985TIP3    H145446   2.683   4.278  15.552 -0.4068 -0.5260 -0.0785
 7985TIP3    H245447   2.659   4.254  15.699 -0.6206 -0.4319 -0.0994
 7986TIP3   OH245448   1.082   1.322  12.368 -0.6267  0.1123 -0.0480
 7986TIP3    H145449   1.151   1.304  12.432  1.3027 -3.0583 -2.8419
 7986TIP3    H245450   1.000   1.303  12.414  0.5393  0.2780  2.1655
 7987TIP3   OH245451   3.889   4.249  17.249  0.1614 -0.2492  0.0622
 7987TIP3    H145452   3.879   4.153  17.249 -2.1456 -0.0438 -1.1692
 7987TIP3    H245453   3.947   4.266  17.175 -4.2608 -0.3436 -3.6216
 7988TIP3   OH245454   0.243   3.033  13.950  0.1395  0.3655  0.2353
 7988TIP3    H145455   0.278   3.120  13.929 -1.7412  0.9311 -0.7570
 7988TIP3    H245456   0.270   2.978  13.877 -0.1608  0.5594 -0.0259
 7989TIP3   OH245457   6.435   2.397  11.626  0.1544 -0.2602 -0.3397
 7989TIP3    H145458   6.475   2.411  11.712  0.3611  0.0274 -0.4815
 7989TIP3    H245459   6.498   2.433  11.564 -0.4624  0.4612 -0.5437
 7990TIP3   OH245460   4.318   4.111  17.204 -0.6310 -0.1583 -0.1720
 7990TIP3    H145461   4.344   4.024  17.176 -0.9440 -0.0098 -0.9499
 7990TIP3    H245462   4.232   4.100  17.245 -0.8503 -0.1594 -0.6293
 7991TIP3   OH245463   6.426   2.717   0.301  0.3860 -0.7320 -0.7928
 7991TIP3    H145464   6.332   2.714   0.288  0.0671  0.5119  1.0105
 7991TIP3    H245465   6.452   2.806   0.274  0.5129  0.0415  1.7623
 7992TIP3   OH245466   0.842   4.585   5.187  0.0630  0.1775  0.0729
 7992TIP3    H145467   0.903   4.521   5.225 -0.5575 -0.0893  0.6367
 7992TIP3    H245468   0.882   4.611   5.105  1.1809  0.3686  0.6713
 7993TIP3   OH245469   1.030   5.077   2.536 -0.1819  0.3198 -0.1484
 7993TIP3    H145470   1.088   5.027   2.478 -1.5774  1.4788 -2.6546
 7993TIP3    H245471   1.078   5.158   2.553  0.8957 -0.6731  1.6315
 7994TIP3   OH245472   6.580   5.197   5.684  0.2279 -0.2505 -0.1174
 7994TIP3    H145473   6.650   5.218   5.623 -0.3588  1.9278 -0.0903
 7994TIP3    H245474   6.569   5.277   5.736 -1.6368 -0.8790  0.4939
 7995TIP3   OH245475   6.343   4.538  17.175  0.6233 -0.2564  0.3956
 7995TIP3    H145476   6.266   4.587  17.204  0.1837 -0.2633 -0.7798
 7995TIP3    H245477   6.317   4.446  17.180  1.3152 -0.3757  2.2094
 7996TIP3   OH245478   0.987   3.281   3.376  0.1399  0.1455  0.3300
 7996TIP3    H145479   0.942   3.212   3.424  0.1533 -0.3234 -0.3182
 7996TIP3    H245480   1.048   3.319   3.439  0.8893 -1.1417  0.3877
 7997TIP3   OH245481   5.443   0.751  12.861 -0.2468 -0.6076  0.5533
 7997TIP3    H145482   5.378   0.789  12.802  2.4553  0.4304 -1.8728
 7997TIP3    H245483   5.393   0.691  12.916 -3.5592  1.5958  0.1008
 7998TIP3   OH245484   6.548   5.524  17.240  0.0185 -0.0610 -0.8317
 7998TIP3    H145485   6.610   5.473  17.292  1.4086  0.5389 -1.8708
 7998TIP3    H245486   6.522   5.596  17.297 -0.7478 -1.0411  0.0775
 7999TIP3   OH245487   5.334   5.480   5.388 -0.0498 -0.0001  0.1675
 7999TIP3    H145488   5.364   5.455   5.475 -1.2619  0.0738  0.6165
 7999TIP3    H245489   5.355   5.573   5.381 -0.8513  0.2239  0.7638
 8000TIP3   OH245490   3.733   0.448  13.159 -0.1073 -0.2283  0.1498
 8000TIP3    H145491   3.693   0.363  13.144  0.2253 -0.7059  1.9235
 8000TIP3    H245492   3.672   0.494  13.217 -0.5252  0.9504 -1.1738
 8001TIP3   OH245493   2.702   2.782   1.408  0.3709  0.4553  0.3068
 8001TIP3    H145494   2.758   2.737   1.472  0.3718  0.4849  0.3271
 8001TIP3    H245495   2.764   2.817   1.344  0.3685  0.4098  0.2803
 8002TIP3   OH245496   6.207   4.673  12.147 -0.6947 -0.0446 -0.0658
 8002TIP3    H145497   6.145   4.607  12.179 -2.1594  1.8755  1.1832
 8002TIP3    H245498   6.252   4.704  12.226 -2.5606  2.9630 -0.1125
 8003TIP3   OH245499   0.512   3.023   2.891 -0.2795 -0.0635 -0.1809
 8003TIP3    H145500   0.537   3.111   2.864 -1.5084  0.5191  0.5439
 8003TIP3    H245501   0.530   2.968   2.814  1.8808  0.5520 -0.1306
 8004TIP3   OH245502   0.150   2.189  12.902  0.1029  0.0194 -0.3120
 8004TIP3    H145503   0.137   2.136  12.824 -1.2984 -2.7252  1.7044
 8004TIP3    H245504   0.244   2.180  12.922  0.5847  1.2106 -1.9645
 8005TIP3   OH245505   3.178   0.077  12.177  0.4501 -0.1683 -0.4563
 8005TIP3    H145506   3.136   0.122  12.104 -1.0021  0.5007  0.7679
 8005TIP3    H245507   3.209   0.148  12.234  0.5854 -0.6963  0.1305
 8006TIP3   OH245508   5.720   0.012  16.657 -0.0035  0.0920 -0.3092
 8006TIP3    H145509   5.671   0.027  16.576 -0.3086  1.3289  0.0860
 8006TIP3    H245510   5.779  -0.060  16.637  0.0859  0.5384 -1.7058
 8007TIP3   OH245511   1.873   5.835   3.508 -0.2449  0.1546  0.5751
 8007TIP3    H145512   1.887   5.855   3.601  1.7811 -0.2911  0.4021
 8007TIP3    H245513   1.897   5.742   3.500  0.1729  0.3456 -0.5085
 8008TIP3   OH245514   4.484   1.897   3.502  0.1670  0.4578 -0.2496
 8008TIP3    H145515   4.572   1.858   3.500 -1.0063 -2.3142 -0.3901
 8008TIP3    H245516   4.432   1.837   3.556 -1.6753  2.0098 -0.2299
 8009TIP3   OH245517   1.686   0.401   6.846  0.0724 -0.3327  0.7667
 8009TIP3    H145518   1.609   0.457   6.836 -0.5372 -1.2118  0.5494
 8009TIP3    H245519   1.653   0.321   6.888  0.8895 -0.6539  0.8101
 8010TIP3   OH245520   2.397   0.193   3.875  0.1789  0.4139 -0.6055
 8010TIP3    H145521   2.365   0.118   3.924 -3.0961  1.8692 -0.4218
 8010TIP3    H245522   2.447   0.244   3.939 -2.5237  1.3590  0.8153
 8011TIP3   OH245523   5.476   2.642   2.359  0.0249 -0.1264  1.2831
 8011TIP3    H145524   5.528   2.571   2.322 -0.9638  0.6458 -1.7872
 8011TIP3    H245525   5.389   2.603   2.373 -0.5757  0.4626 -0.5962
 8012TIP3   OH245526   0.571   1.222  11.806  0.0380 -0.3254 -0.1979
 8012TIP3    H145527   0.497   1.202  11.863 -0.4241  1.9834  0.0622
 8012TIP3    H245528   0.645   1.177  11.846 -0.9128 -1.4593  0.3503
 8013TIP3   OH245529   1.947   5.365   2.882  0.0912  0.2202 -0.1981
 8013TIP3    H145530   1.927   5.280   2.920 -0.0432  0.7443  0.9420
 8013TIP3    H245531   2.039   5.379   2.902  0.1587  0.2659 -0.5373
 8014TIP3   OH245532   2.730   2.850   1.850 -0.6451  0.1700 -0.1134
 8014TIP3    H145533   2.720   2.844   1.945 -1.4363  1.3620 -0.1028
 8014TIP3    H245534   2.793   2.922   1.837 -0.3081 -0.1884 -0.4848
 8015TIP3   OH245535   3.085   3.984  15.418 -0.2667  0.1205  0.5537
 8015TIP3    H145536   3.035   4.060  15.389 -0.8801 -0.3222  0.4542
 8015TIP3    H245537   3.122   4.010  15.502  0.1391  0.7998  0.1727
 8016TIP3   OH245538   3.733   1.006   1.788 -0.3382  0.5446 -0.0405
 8016TIP3    H145539   3.724   1.061   1.711  2.2275 -0.0368 -0.8038
 8016TIP3    H245540   3.701   0.920   1.760  2.9546 -0.3369 -1.3204
 8017TIP3   OH245541   0.510   6.190   4.338 -0.1068  0.2231  0.1697
 8017TIP3    H145542   0.468   6.204   4.253  0.6789 -0.0808 -0.2740
 8017TIP3    H245543   0.555   6.272   4.357  0.3946  0.0068 -0.0906
 8018TIP3   OH245544   2.126   6.733   5.127 -0.8518 -0.1897  0.1168
 8018TIP3    H145545   2.089   6.722   5.040  2.1457 -1.3060 -1.0619
 8018TIP3    H245546   2.077   6.672   5.182 -3.5259  1.3325 -0.4684
 8019TIP3   OH245547   3.764   6.790   4.721  0.2958  0.1691  0.9682
 8019TIP3    H145548   3.714   6.821   4.797 -1.6931  0.3352 -0.3574
 8019TIP3    H245549   3.733   6.700   4.708  0.5790  0.1636  0.3089
 8020TIP3   OH245550   0.409   2.088   0.273  0.4403 -0.4487 -0.2591
 8020TIP3    H145551   0.502   2.097   0.250  0.6385 -1.6210  0.0884
 8020TIP3    H245552   0.400   2.138   0.354  0.8211 -0.5553 -0.1492
 8021TIP3   OH245553   6.051   2.104  12.332 -0.6152  0.2215  0.5382
 8021TIP3    H145554   6.126   2.149  12.370  0.2888 -1.3479  0.6362
 8021TIP3    H245555   5.985   2.173  12.321  0.7518  1.5687  0.6392
 8022TIP3   OH245556   5.053   3.986   4.437 -0.8165  0.0870 -0.1705
 8022TIP3    H145557   5.138   4.025   4.414 -1.2447  1.3180  0.2600
 8022TIP3    H245558   4.989   4.043   4.394 -1.4317 -0.8185 -0.4627
 8023TIP3   OH245559   6.686   2.307  17.277 -0.1774 -0.9195  0.4320
 8023TIP3    H145560   6.665   2.363  17.352 -2.3242 -0.4555 -0.4586
 8023TIP3    H245561   6.699   2.368  17.205  2.1240 -1.3523  0.4395
 8024TIP3   OH245562   1.167   6.270  15.333  0.1945  0.3519  0.3856
 8024TIP3    H145563   1.229   6.279  15.261  1.3459  1.0956  1.4518
 8024TIP3    H245564   1.145   6.177  15.334  0.2734  0.3085 -0.8196
 8025TIP3   OH245565   2.180   4.604   0.233 -0.1642  0.2038  0.2057
 8025TIP3    H145566   2.138   4.540   0.290  0.3344  1.2590  1.7813
 8025TIP3    H245567   2.212   4.672   0.292  2.0543  0.3843 -1.1374
 8026TIP3   OH245568   1.917   0.367   6.710  0.7228  0.9015 -0.1706
 8026TIP3    H145569   1.992   0.340   6.763 -0.2903 -0.6124  0.5508
 8026TIP3    H245570   1.845   0.377   6.773  0.1772  1.7841 -0.9140
 8027TIP3   OH245571   6.456   5.943  12.447 -0.1487  0.0313  0.1809
 8027TIP3    H145572   6.539   5.957  12.492  0.6739  0.6820 -1.5144
 8027TIP3    H245573   6.418   5.866  12.490  0.5452  0.7086  2.0628
 8028TIP3   OH245574   2.526   5.618   0.227  0.2745  0.3407 -0.2312
 8028TIP3    H145575   2.603   5.674   0.213 -2.4382  3.3797 -3.9095
 8028TIP3    H245576   2.514   5.573   0.144 -2.8309  1.1347 -0.2565
 8029TIP3   OH245577   0.504   4.766  16.320 -0.1082 -0.1881  0.3279
 8029TIP3    H145578   0.497   4.702  16.390  1.1138 -1.7409 -0.9107
 8029TIP3    H245579   0.417   4.769  16.281 -0.9458  1.1238  2.2630
 8030TIP3   OH245580   5.859   1.367   4.789  0.0651  0.1134  0.0501
 8030TIP3    H145581   5.823   1.315   4.861  1.3735  0.6714  1.1413
 8030TIP3    H245582   5.886   1.301   4.724 -1.2071 -0.3895  0.0239
 8031TIP3   OH245583   6.273   3.434  10.286  0.0070 -0.2577 -0.1137
 8031TIP3    H145584   6.254   3.343  10.266  1.8627 -0.2359 -2.1554
 8031TIP3    H245585   6.227   3.484  10.219 -0.7932  0.3144  0.8424
 8032TIP3   OH245586   1.920   4.433   2.460  0.1225 -0.0370 -0.0340
 8032TIP3    H145587   1.973   4.413   2.384  1.1353  0.7720  0.4446
 8032TIP3    H245588   1.982   4.440   2.533 -0.4793  1.9302  0.3410
 8033TIP3   OH245589   0.944   6.739   1.520  0.1944 -0.1220  0.4915
 8033TIP3    H145590   1.031   6.773   1.538  0.5192 -0.3829 -0.5395
 8033TIP3    H245591   0.926   6.765   1.430 -1.2687  0.9112  1.0608
 8034TIP3   OH245592   5.640   0.393   3.350  1.1051  0.4853  0.8678
 8034TIP3    H145593   5.697   0.384   3.274  0.6249  1.4316  0.3843
 8034TIP3    H245594   5.694   0.365   3.424  1.9912  0.7456  0.3346
 8035TIP3   OH245595   4.886   0.190  12.627 -0.3879 -0.4468 -0.7984
 8035TIP3    H145596   4.884   0.153  12.539 -1.3170 -0.0786 -0.9310
 8035TIP3    H245597   4.816   0.255  12.628  0.6552  0.6894 -0.2858
 8036TIP3   OH245598   3.209   6.778  15.604  0.2797 -0.3951 -0.0809
 8036TIP3    H145599   3.133   6.837  15.605 -0.8070 -1.7642  1.1785
 8036TIP3    H245600   3.274   6.821  15.658  0.6688  1.1194 -1.7259
 8037TIP3   OH245601   1.949   4.142   2.316 -0.1472 -0.0305  0.3820
 8037TIP3    H145602   1.994   4.073   2.364  0.7777  0.9363  0.9458
 8037TIP3    H245603   2.020   4.195   2.278 -0.8343  0.5228 -0.1570
 8038TIP3   OH245604   2.384   0.803  14.981 -0.6620 -0.0405 -0.4621
 8038TIP3    H145605   2.376   0.720  15.028  0.7167  0.3122  0.4337
 8038TIP3    H245606   2.338   0.866  15.035 -0.9499 -0.0456 -0.6977
 8039TIP3   OH245607   5.075   0.613   0.833 -0.2690  0.4241 -0.5676
 8039TIP3    H145608   5.108   0.575   0.751 -1.7865 -0.5291 -0.7610
 8039TIP3    H245609   5.150   0.611   0.892  0.4089 -0.3740 -1.4310
 8040TIP3   OH245610   3.797   4.036  16.493 -0.5143 -0.1457 -0.2131
 8040TIP3    H145611   3.763   4.112  16.540 -0.4939 -0.5340  0.4358
 8040TIP3    H245612   3.772   3.961  16.547 -1.2709 -0.6668 -1.2712
 8041TIP3   OH245613   4.727   6.208  12.090  0.3706  0.3032 -0.1709
 8041TIP3    H145614   4.710   6.290  12.137  2.1142  0.1028  0.8575
 8041TIP3    H245615   4.815   6.219  12.053  0.0884 -0.6001 -1.1549
 8042TIP3   OH245616   0.335   2.016  12.777  0.1787  0.2528 -0.3739
 8042TIP3    H145617   0.292   2.021  12.692  0.4894  1.0642 -0.4842
 8042TIP3    H245618   0.413   2.070  12.768  1.2312 -1.1932 -0.1705
 8043TIP3   OH245619   6.235   1.251   4.797  0.1720 -0.2418 -0.2551
 8043TIP3    H145620   6.259   1.191   4.868  0.5251  0.4267  0.1893
 8043TIP3    H245621   6.318   1.288   4.768  0.1838 -1.5516 -1.9556
 8044TIP3   OH245622   6.751   1.006  10.733  0.2349 -0.8837  0.1547
 8044TIP3    H145623   6.731   0.946  10.662 -2.8489 -1.5040  1.4722
 8044TIP3    H245624   6.770   0.950  10.808  0.0536 -0.2476  0.6846
 8045TIP3   OH245625   3.290   5.989   4.576 -0.0200 -0.2636  0.3524
 8045TIP3    H145626   3.327   5.973   4.663 -0.6976  0.3081  0.7500
 8045TIP3    H245627   3.206   5.942   4.577  0.0800 -0.4510 -0.0761
 8046TIP3   OH245628   0.861   4.487   2.566 -0.6584  0.0521  0.0480
 8046TIP3    H145629   0.920   4.544   2.615  0.7369 -1.1906 -0.1481
 8046TIP3    H245630   0.905   4.402   2.566 -2.0218 -0.6640 -0.8928
 8047TIP3   OH245631   1.605   1.126   5.423  0.0642 -0.5991  0.2010
 8047TIP3    H145632   1.681   1.181   5.406  0.0956 -0.6653  0.1249
 8047TIP3    H245633   1.632   1.068   5.495  0.0889 -0.6298  0.1666
 8048TIP3   OH245634   5.384   4.684   5.843 -0.1567 -0.2610 -0.0709
 8048TIP3    H145635   5.431   4.631   5.907  0.3040 -1.3849 -1.3251
 8048TIP3    H245636   5.334   4.621   5.792 -1.0778  0.7002 -0.3684
 8049TIP3   OH245637   0.242   5.231   4.616 -0.1447 -0.3802  0.4958
 8049TIP3    H145638   0.269   5.172   4.546  0.5045 -0.2218  0.6047
 8049TIP3    H245639   0.302   5.212   4.688  2.3113  2.6611 -0.5774
 8050TIP3   OH245640   1.876   6.464   6.212  0.0332  0.0095  0.0673
 8050TIP3    H145641   1.928   6.425   6.282 -0.9039  0.7513  1.2040
 8050TIP3    H245642   1.800   6.406   6.204 -1.4231  1.6145  1.8417
 8051TIP3   OH245643   1.855   5.576   4.102  0.0636  0.0732  0.4332
 8051TIP3    H145644   1.795   5.649   4.120  0.5116 -0.2192  3.2306
 8051TIP3    H245645   1.937   5.601   4.144  1.1355 -0.7564 -1.0983
 8052TIP3   OH245646   5.427   3.204  12.682 -0.3139  0.4090 -0.2048
 8052TIP3    H145647   5.491   3.134  12.669 -1.4818 -0.8001  0.3526
 8052TIP3    H245648   5.385   3.214  12.597 -0.3096  0.2563 -0.2242
 8053TIP3   OH245649   4.312   3.272   4.356  0.4583 -0.5665 -0.1566
 8053TIP3    H145650   4.397   3.313   4.340 -0.0099  1.4264  2.0983
 8053TIP3    H245651   4.316   3.245   4.448 -1.6280  0.2789  0.2107
 8054TIP3   OH245652   6.085   5.440   2.497 -0.3238  0.0635 -0.4509
 8054TIP3    H145653   6.141   5.434   2.574 -0.7016  2.2435  0.0171
 8054TIP3    H245654   6.078   5.534   2.479 -1.8761 -0.3022 -1.9341
 8055TIP3   OH245655   6.128   5.567   4.647  0.1419  0.4843 -0.2479
 8055TIP3    H145656   6.188   5.540   4.578 -0.1364 -3.1643  0.8493
 8055TIP3    H245657   6.046   5.585   4.602  0.3511 -0.5243 -1.0550
 8056TIP3   OH245658   4.602   1.454  14.619 -0.5379 -0.4780 -0.1547
 8056TIP3    H145659   4.555   1.529  14.582  0.9355 -0.5853 -2.2912
 8056TIP3    H245660   4.691   1.486  14.632 -0.1696 -1.5367 -0.0609
 8057TIP3   OH245661   5.228   1.944   3.650 -0.1698  0.0902 -0.0065
 8057TIP3    H145662   5.321   1.948   3.673 -0.0780  0.4532 -0.4341
 8057TIP3    H245663   5.227   1.902   3.564 -0.5655 -1.9547  0.9857
 8058TIP3   OH245664   1.698   3.992   2.675 -0.5387 -0.1366 -0.1098
 8058TIP3    H145665   1.718   3.972   2.583 -0.2777 -1.4271  0.2197
 8058TIP3    H245666   1.613   4.037   2.671 -0.2619  0.3339 -1.0220
 8059TIP3   OH245667   1.458   3.547   1.143  0.1798  0.0600 -0.2492
 8059TIP3    H145668   1.543   3.525   1.183  1.0592  2.6545 -0.5903
 8059TIP3    H245669   1.428   3.465   1.105  1.6756 -1.3345  1.4472
 8060TIP3   OH245670   2.895   6.585  16.355  0.8054  0.6385  0.1845
 8060TIP3    H145671   2.806   6.575  16.323  0.5346  0.6042  0.9239
 8060TIP3    H245672   2.897   6.534  16.437  1.5110  0.6016  0.1460
 8061TIP3   OH245673   0.956   6.504  13.041 -0.4317  0.1094 -0.0719
 8061TIP3    H145674   0.965   6.577  12.979  1.3010  1.5507  1.8221
 8061TIP3    H245675   0.979   6.427  12.990  0.1454  1.1709 -1.4599
 8062TIP3   OH245676   3.851   1.241  15.362 -0.2822 -0.6149  0.1679
 8062TIP3    H145677   3.924   1.240  15.425 -0.4391 -0.4437  0.3549
 8062TIP3    H245678   3.806   1.158  15.377  1.7013 -2.1435 -2.1186
 8063TIP3   OH245679   5.666   5.366   4.587  0.7739 -0.3602 -0.4274
 8063TIP3    H145680   5.577   5.352   4.618  0.8309 -0.6544 -0.3928
 8063TIP3    H245681   5.666   5.455   4.553  0.6229 -0.1522  0.1139
 8064TIP3   OH245682   0.664   6.158   6.477 -0.5001 -0.7850 -0.2134
 8064TIP3    H145683   0.685   6.246   6.508 -0.6718 -0.4036 -1.1571
 8064TIP3    H245684   0.583   6.169   6.428 -0.2116 -1.3600 -0.8293
 8065TIP3   OH245685   2.726   3.277   5.965 -0.0804  0.1128  0.2618
 8065TIP3    H145686   2.669   3.259   6.039  0.4607  0.4179  0.7547
 8065TIP3    H245687   2.805   3.226   5.982  0.5949  1.2519  0.5933
 8066TIP3   OH245688   5.704   3.890   1.803 -0.2832  0.0709  0.0639
 8066TIP3    H145689   5.793   3.881   1.770 -0.4347 -0.9828 -0.0691
 8066TIP3    H245690   5.660   3.945   1.738 -0.3342 -1.2412 -1.0349
 8067TIP3   OH245691   3.219   1.901   3.155  0.2255  0.7432 -0.0777
 8067TIP3    H145692   3.307   1.865   3.162  0.5215  1.5945  0.7065
 8067TIP3    H245693   3.172   1.840   3.099  0.4098 -1.4027  2.0417
 8068TIP3   OH245694   1.025   5.997   0.285  0.0968  0.1682 -0.1294
 8068TIP3    H145695   0.967   5.924   0.262 -0.9886  0.6633  1.0143
 8068TIP3    H245696   1.079   6.010   0.207 -1.5221 -0.1025 -1.3064
 8069TIP3   OH245697   1.718   4.927   1.002 -0.0287  0.3876  0.0667
 8069TIP3    H145698   1.801   4.973   1.012  0.3470 -0.1827 -0.4171
 8069TIP3    H245699   1.652   4.996   1.004  0.5118  0.9234 -0.3863
 8070TIP3   OH245700   2.124   2.381  14.545 -0.3538  0.0803 -0.3283
 8070TIP3    H145701   2.155   2.312  14.604  0.2703  0.7916  0.1840
 8070TIP3    H245702   2.035   2.399  14.575  0.1488  0.8163  0.7469
 8071TIP3   OH245703   1.655   6.048   4.261 -0.3945 -0.4429  0.0051
 8071TIP3    H145704   1.681   6.008   4.344 -0.3793 -0.9478 -0.2476
 8071TIP3    H245705   1.562   6.070   4.274  0.2543  1.8965  1.1203
 8072TIP3   OH245706   4.763   1.222   2.766  0.1516  0.0267 -0.4677
 8072TIP3    H145707   4.814   1.145   2.791  0.3778  0.0383 -0.8803
 8072TIP3    H245708   4.784   1.288   2.832  1.4366  0.3461 -1.1872
 8073TIP3   OH245709   0.244   3.350   2.277  0.4975  0.0415  0.3911
 8073TIP3    H145710   0.264   3.345   2.370 -1.2511  1.2722  0.8708
 8073TIP3    H245711   0.195   3.433   2.267  1.0832  0.1835 -1.6826
 8074TIP3   OH245712   4.708   0.894  15.559 -0.2954 -0.6594 -0.1307
 8074TIP3    H145713   4.751   0.881  15.475 -0.4393 -0.3680 -0.2502
 8074TIP3    H245714   4.617   0.872  15.544  0.0449 -2.5157  0.4438
 8075TIP3   OH245715   5.409   5.356   4.648  0.1504  0.2515  0.0524
 8075TIP3    H145716   5.400   5.384   4.739  1.4107  1.0166 -0.0463
 8075TIP3    H245717   5.322   5.322   4.625 -0.5318  1.2215  1.1371
 8076TIP3   OH245718   0.744   4.361  11.342 -0.0704  0.0072 -0.0972
 8076TIP3    H145719   0.791   4.417  11.404  1.1497 -1.9191  0.7480
 8076TIP3    H245720   0.651   4.381  11.357  0.3296  1.3386  0.6333
 8077TIP3   OH245721   2.118   6.535   3.190  0.2236  0.2104  0.1584
 8077TIP3    H145722   2.170   6.511   3.113 -0.1150  2.3218 -0.7544
 8077TIP3    H245723   2.059   6.460   3.203  0.4193 -0.2542 -1.5034
 8078TIP3   OH245724   3.582   3.875  11.128  0.0869 -0.2721  0.3752
 8078TIP3    H145725   3.592   3.858  11.222  0.1604  2.7567  0.9674
 8078TIP3    H245726   3.655   3.828  11.087 -0.5880 -2.5398  1.6915
 8079TIP3   OH245727   3.406   2.941   0.452  0.6606 -0.2610  0.4777
 8079TIP3    H145728   3.336   2.889   0.492  0.7199 -1.0393 -0.4111
 8079TIP3    H245729   3.379   3.032   0.466 -1.0218 -0.5606 -0.6960
 8080TIP3   OH245730   5.610   2.648  16.799  0.2538  0.0849  0.5773
 8080TIP3    H145731   5.691   2.699  16.789  1.2609 -1.4685  0.7567
 8080TIP3    H245732   5.542   2.705  16.763  1.4810  1.2448  0.0429
 8081TIP3   OH245733   3.984   5.183  15.319 -0.2903  0.4857 -0.3766
 8081TIP3    H145734   4.046   5.177  15.247 -0.0215 -0.7510 -0.0507
 8081TIP3    H245735   4.031   5.231  15.388  1.2709 -2.6117  0.8322
 8082TIP3   OH245736   2.394   6.799   3.675 -0.4709  0.4263  0.4103
 8082TIP3    H145737   2.383   6.864   3.744 -0.1934  2.0209 -1.0083
 8082TIP3    H245738   2.313   6.748   3.677 -0.0375 -0.2389  2.5773
 8083TIP3   OH245739   6.182   4.927  16.920 -0.3395 -0.0776  1.0255
 8083TIP3    H145740   6.191   5.016  16.953 -0.2056  0.9778 -1.7522
 8083TIP3    H245741   6.265   4.884  16.943  0.9530  1.5260 -0.5315
 8084TIP3   OH245742   4.722   1.047   4.780 -0.3171 -0.1219  0.2598
 8084TIP3    H145743   4.775   1.021   4.855  0.5354 -0.6064 -0.5039
 8084TIP3    H245744   4.697   1.137   4.798 -0.7029 -0.4573  1.4511
 8085TIP3   OH245745   5.425   3.853  16.110 -0.2067  0.1055 -0.1026
 8085TIP3    H145746   5.511   3.839  16.150  0.3065  1.2575 -0.7537
 8085TIP3    H245747   5.362   3.823  16.175  0.7071 -1.3969  0.1119
 8086TIP3   OH245748   4.753   6.503  16.967  0.6411 -0.7866  0.2142
 8086TIP3    H145749   4.792   6.485  16.881 -0.1259  1.3725 -0.6276
 8086TIP3    H245750   4.659   6.491  16.955  0.5537 -0.7784  0.8396
 8087TIP3   OH245751   3.401   1.693  12.102 -0.2180 -0.5347 -0.0733
 8087TIP3    H145752   3.398   1.615  12.157  2.9791 -0.0980  0.7977
 8087TIP3    H245753   3.480   1.682  12.049 -1.3287  0.7433 -2.0639
 8088TIP3   OH245754   3.229   2.785  14.828 -0.7050 -0.1782  0.1104
 8088TIP3    H145755   3.248   2.713  14.887  2.3686 -0.0445 -0.6385
 8088TIP3    H245756   3.176   2.846  14.880  0.7485 -0.7112  2.2648
 8089TIP3   OH245757   4.159   5.087   4.375 -0.0441 -0.1695 -0.2713
 8089TIP3    H145758   4.137   4.996   4.397 -1.7378  0.7049  1.9128
 8089TIP3    H245759   4.168   5.087   4.280  1.0792 -2.8473 -0.2284
 8090TIP3   OH245760   3.245   1.927   0.304 -0.9273 -1.0666  0.2001
 8090TIP3    H145761   3.291   1.859   0.255 -1.5662 -1.0274 -0.4754
 8090TIP3    H245762   3.308   1.957   0.369  0.5667  0.1134 -1.7203
 8091TIP3   OH245763   2.348   0.313  15.150  0.1821 -0.1542 -0.3622
 8091TIP3    H145764   2.350   0.240  15.088 -0.2998 -1.2024  0.8483
 8091TIP3    H245765   2.403   0.286  15.223 -0.4532  0.4459  0.3630
 8092TIP3   OH245766   2.986   5.618  15.531 -0.0274  0.1525  0.5101
 8092TIP3    H145767   3.009   5.687  15.593 -1.2711  0.4817  0.6156
 8092TIP3    H245768   2.901   5.586  15.560  0.3796 -1.2016  0.2571
 8093TIP3   OH245769   4.196   5.878   6.770  0.4564 -0.2657  0.2768
 8093TIP3    H145770   4.177   5.785   6.760  1.8482 -0.3541 -1.8820
 8093TIP3    H245771   4.113   5.922   6.753 -0.4126 -1.1179  2.1437
 8094TIP3   OH245772   5.933   1.917   3.215  0.2188  0.2045  0.0563
 8094TIP3    H145773   5.999   1.983   3.195 -0.0800  0.1684 -1.0446
 8094TIP3    H245774   5.877   1.914   3.138 -1.6145  0.8882  1.3375
 8095TIP3   OH245775   0.853   3.161  12.622  0.2164  0.0312 -0.3098
 8095TIP3    H145776   0.893   3.240  12.585 -0.6874  0.8787  0.5088
 8095TIP3    H245777   0.865   3.170  12.716 -0.3943 -0.5434 -0.1767
 8096TIP3   OH245778   1.835   3.455   0.063 -0.0324  0.0337 -0.5190
 8096TIP3    H145779   1.913   3.434   0.115 -2.1100 -0.8677  2.3122
 8096TIP3    H245780   1.808   3.372   0.025  0.4441  0.3798 -1.6470
 8097TIP3   OH245781   5.005   6.082   3.517 -0.0000  0.0033  0.5761
 8097TIP3    H145782   5.059   6.161   3.517  2.3958 -1.5270 -2.3899
 8097TIP3    H245783   5.051   6.022   3.577  0.8406 -0.7933 -0.8478
 8098TIP3   OH245784   2.158   6.269   6.110  0.0444 -0.0010 -1.2567
 8098TIP3    H145785   2.194   6.356   6.095 -0.2348  0.1572 -1.0067
 8098TIP3    H245786   2.234   6.215   6.134  0.0060  0.5280  0.1192
 8099TIP3   OH245787   0.829   5.972   4.469 -0.1187 -0.4142  0.0438
 8099TIP3    H145788   0.784   5.948   4.388  0.2410 -2.0186  0.3016
 8099TIP3    H245789   0.774   5.937   4.539  0.6709 -0.9671  0.4092
 8100TIP3   OH245790   4.296   3.508   3.212 -0.5373 -0.7826  0.0728
 8100TIP3    H145791   4.338   3.566   3.148  1.5715 -1.1791  1.0641
 8100TIP3    H245792   4.270   3.566   3.283  1.1302 -0.9366  0.8402
 8101TIP3   OH245793   3.723   1.459   5.664 -0.6940 -0.2733  0.2967
 8101TIP3    H145794   3.709   1.553   5.649 -0.2556 -0.2784 -0.1458
 8101TIP3    H245795   3.692   1.444   5.753  1.8163  0.8155  1.3757
 8102TIP3   OH245796   5.229   6.534  13.338 -0.3139 -0.4692  0.0633
 8102TIP3    H145797   5.280   6.572  13.266 -1.3526 -0.0624 -0.4757
 8102TIP3    H245798   5.141   6.571  13.327 -0.5818 -0.7038  1.3196
 8103TIP3   OH245799   6.064   0.355  16.236 -0.0923 -0.6134 -0.0247
 8103TIP3    H145800   6.007   0.279  16.228 -0.8691 -0.1761  1.2029
 8103TIP3    H245801   6.135   0.339  16.174 -0.5571 -2.0513 -0.1913
 8104TIP3   OH245802   0.426   6.303   0.041 -0.7878  0.1073  0.1258
 8104TIP3    H145803   0.376   6.231   0.002 -0.7078 -0.4648  1.0532
 8104TIP3    H245804   0.469   6.263   0.117  1.0480  0.5842 -0.6372
 8105TIP3   OH245805   3.024   2.017   2.806 -0.0549  0.1158  0.1561
 8105TIP3    H145806   2.972   1.975   2.875  1.6502  1.3754  2.2589
 8105TIP3    H245807   2.964   2.023   2.731 -2.7983  1.0258  2.3427
 8106TIP3   OH245808   0.010   1.585   4.799  0.1300 -0.6685  0.2437
 8106TIP3    H145809   0.074   1.589   4.728  0.0459  1.0281  0.2330
 8106TIP3    H245810  -0.010   1.492   4.808  2.0767 -1.1498 -0.2096
 8107TIP3   OH245811   3.491   4.745   4.080  0.2056  0.1815  0.2288
 8107TIP3    H145812   3.547   4.683   4.127  0.2398 -0.9721 -1.2815
 8107TIP3    H245813   3.542   4.826   4.077  0.7335 -0.1170  1.0423
 8108TIP3   OH245814   6.226   4.309  15.613  0.1445 -1.1948  0.0196
 8108TIP3    H145815   6.170   4.265  15.677 -0.8043  1.1450  0.8638
 8108TIP3    H245816   6.180   4.299  15.529 -0.4698 -1.1195  0.3458
 8109TIP3   OH245817   1.852   0.029   3.914  0.5097 -0.3109  0.2856
 8109TIP3    H145818   1.817  -0.015   3.837  1.3392 -1.4740  0.5585
 8109TIP3    H245819   1.857   0.121   3.888 -0.9404 -0.4139 -0.4027
 8110TIP3   OH245820   6.475   4.395  16.788  0.4409 -0.1199 -0.2632
 8110TIP3    H145821   6.385   4.396  16.754 -0.5249 -0.2427  2.1793
 8110TIP3    H245822   6.528   4.429  16.716 -1.7705  1.5433 -1.1669
 8111TIP3   OH245823   3.621   5.946   3.252 -0.0346 -0.2719  0.0103
 8111TIP3    H145824   3.638   6.032   3.292  0.2265  0.5896 -1.8779
 8111TIP3    H245825   3.697   5.931   3.196 -1.4242 -0.3946 -1.8835
 8112TIP3   OH245826   4.562   2.812  14.232  0.2857  0.7938 -0.0817
 8112TIP3    H145827   4.624   2.836  14.163  0.3503  0.3883 -0.1640
 8112TIP3    H245828   4.615   2.765  14.296 -0.1161 -0.3863 -0.6038
 8113TIP3   OH245829   1.992   6.013  14.574  0.3322  0.2610  0.3612
 8113TIP3    H145830   1.910   6.052  14.545 -0.5684 -3.0387 -1.8230
 8113TIP3    H245831   1.972   5.976  14.660 -0.4588 -0.3218 -0.0598
 8114TIP3   OH245832   2.239   4.656  16.370 -0.2545  0.3101  0.5121
 8114TIP3    H145833   2.147   4.650  16.397 -0.6256  1.3827 -0.4752
 8114TIP3    H245834   2.287   4.604  16.436 -1.5160  0.0370  1.2323
 8115TIP3   OH245835   5.113   1.247   4.027  0.2936 -0.1696  0.4417
 8115TIP3    H145836   5.018   1.232   4.031  0.6047 -2.4153 -0.1001
 8115TIP3    H245837   5.147   1.203   4.105  1.1182 -1.1696 -0.4804
 8116TIP3   OH245838   2.001   2.263   5.929  0.3290  0.3892 -0.1242
 8116TIP3    H145839   1.949   2.337   5.960 -0.7061  0.3701 -1.7933
 8116TIP3    H245840   2.070   2.302   5.875 -0.6711  0.0821 -1.6266
 8117TIP3   OH245841   5.064   3.628   1.122 -0.4902 -0.3138  0.4388
 8117TIP3    H145842   5.127   3.630   1.050 -1.3339  3.1747 -0.3081
 8117TIP3    H245843   5.084   3.706   1.174 -4.2847  1.0524  0.0289
 8118TIP3   OH245844   1.846   0.349  15.274 -0.0372 -0.1560  0.3320
 8118TIP3    H145845   1.886   0.415  15.331 -1.1635  1.0566 -0.2609
 8118TIP3    H245846   1.921   0.300  15.239  0.6897 -0.9698  2.8380
 8119TIP3   OH245847   0.981   0.978  17.030  0.2410 -0.0914 -0.1823
 8119TIP3    H145848   0.970   1.025  17.112 -1.6725 -0.3336 -0.2808
 8119TIP3    H245849   1.054   0.919  17.046 -1.3513 -1.5400  2.0378
 8120TIP3   OH245850   6.383   3.834   5.942 -0.0731  0.0673  0.1817
 8120TIP3    H145851   6.393   3.911   5.886 -1.3579 -0.0678 -0.2561
 8120TIP3    H245852   6.374   3.870   6.030  1.4386  0.3066  0.2471
 8121TIP3   OH245853   4.831   3.241  11.034 -0.3255  0.0490 -0.0533
 8121TIP3    H145854   4.874   3.250  10.950 -0.0125 -1.4886 -0.0602
 8121TIP3    H245855   4.870   3.309  11.089 -0.2258  0.7661 -1.0058
 8122TIP3   OH245856   4.067   3.585  14.288 -1.1104  0.3203 -0.2898
 8122TIP3    H145857   4.001   3.638  14.334 -0.1403 -1.1296  2.9092
 8122TIP3    H245858   4.021   3.504  14.267  0.2246 -1.9100  4.5377
 8123TIP3   OH245859   5.795   0.252  12.652  0.0779 -0.4485  0.3377
 8123TIP3    H145860   5.810   0.345  12.669  0.5215 -0.6756  1.2054
 8123TIP3    H245861   5.882   0.212  12.656 -0.0530 -0.8273 -0.4945
 8124TIP3   OH245862   4.202   3.306   6.658  0.7945 -0.4357  0.4198
 8124TIP3    H145863   4.281   3.357   6.639  0.4416  0.9694  2.4537
 8124TIP3    H245864   4.229   3.246   6.728 -0.3882  1.4816  2.6133
 8125TIP3   OH245865   0.144   1.471   6.978 -0.0129  0.6729 -0.0059
 8125TIP3    H145866   0.112   1.441   6.893  1.0910  0.8402 -0.4760
 8125TIP3    H245867   0.191   1.396   7.014 -0.3486  0.6514  0.3969
 8126TIP3   OH245868   6.473   3.867  13.200 -0.6379  0.1207 -0.3835
 8126TIP3    H145869   6.384   3.901  13.204 -0.3590  0.9310 -0.9421
 8126TIP3    H245870   6.524   3.929  13.253 -0.4308 -0.4129  0.0415
 8127TIP3   OH245871   3.615   4.153  14.748 -0.4904 -0.1330  0.5322
 8127TIP3    H145872   3.679   4.168  14.678  1.4147 -0.9110  2.0799
 8127TIP3    H245873   3.607   4.238  14.791 -0.7156  0.0277  0.1825
 8128TIP3   OH245874   3.744   0.018   3.678  0.0411  0.2164  0.0037
 8128TIP3    H145875   3.810   0.085   3.664  0.0582  0.2611  0.3025
 8128TIP3    H245876   3.767  -0.022   3.762 -0.1399  0.0359 -0.0308
 8129TIP3   OH245877   3.304   0.120   2.158 -0.0873 -0.3769  0.4031
 8129TIP3    H145878   3.358   0.079   2.090 -0.6401  1.5209 -1.2126
 8129TIP3    H245879   3.221   0.073   2.154  0.3982 -1.3143  0.8811
 8130TIP3   OH245880   4.174   0.026  17.260 -0.1106  0.7199 -0.1868
 8130TIP3    H145881   4.088  -0.004  17.288 -0.1389 -1.2147 -2.1467
 8130TIP3    H245882   4.236  -0.027  17.310 -0.1121  0.4914 -0.4217
 8131TIP3   OH245883   3.622   1.085  16.104 -0.2915  0.4954  0.2830
 8131TIP3    H145884   3.566   1.160  16.121 -1.0287 -0.3131  1.5132
 8131TIP3    H245885   3.704   1.104  16.151 -1.6806 -0.9314  3.4324
 8132TIP3   OH245886   1.988   3.085  12.485 -0.2097  0.1843  0.4831
 8132TIP3    H145887   2.035   3.069  12.567 -0.2579 -0.0995  0.4563
 8132TIP3    H245888   1.955   3.174  12.493  1.0153  0.6768  0.1735
 8133TIP3   OH245889   0.813   0.848  14.253  0.2140  0.2281  0.6904
 8133TIP3    H145890   0.722   0.835  14.230  0.0975 -0.2284  1.4007
 8133TIP3    H245891   0.822   0.811  14.340  0.6187  2.0067  1.4373
 8134TIP3   OH245892   3.968   0.607   2.779  0.1623  0.3262  0.8993
 8134TIP3    H145893   3.993   0.688   2.734  0.9511 -1.0551 -1.2244
 8134TIP3    H245894   3.994   0.621   2.870 -0.2466  2.6781  0.6776
 8135TIP3   OH245895   3.667   3.211   4.642  0.0279 -0.0189  0.1137
 8135TIP3    H145896   3.704   3.157   4.572  0.4032 -0.3006  0.5229
 8135TIP3    H245897   3.603   3.267   4.598 -1.0726 -1.4742 -0.1934
 8136TIP3   OH245898   4.243   2.839  11.618  0.0587 -0.6837 -0.4535
 8136TIP3    H145899   4.305   2.782  11.574  1.0578 -0.2389  0.3765
 8136TIP3    H245900   4.190   2.781  11.672 -1.1411 -1.2283 -2.1861
 8137TIP3   OH245901   4.675   2.945   3.462  0.2965 -0.2326  0.4357
 8137TIP3    H145902   4.663   2.930   3.556 -3.6786  1.7364  0.3390
 8137TIP3    H245903   4.723   2.868   3.432 -2.0973 -3.0003  3.3461
 8138TIP3   OH245904   0.730   4.161   0.361  0.0476  0.0048 -0.5074
 8138TIP3    H145905   0.803   4.224   0.363 -0.1520  0.2968 -1.8385
 8138TIP3    H245906   0.748   4.102   0.434  0.5089  1.3087  0.4505
 8139TIP3   OH245907   1.898   3.899  15.905 -0.7547 -0.0838  0.0971
 8139TIP3    H145908   1.898   3.988  15.941 -0.9501 -0.5212  1.2106
 8139TIP3    H245909   1.917   3.843  15.980  2.5280 -0.7876 -1.1331
 8140TIP3   OH245910   2.061   3.259   4.687  0.8017  0.1024 -0.2779
 8140TIP3    H145911   2.127   3.266   4.755  1.0859 -1.2761 -0.3825
 8140TIP3    H245912   1.982   3.230   4.733  1.1355 -1.3574 -0.5766
 8141TIP3   OH245913   0.428   6.433   0.912  0.0234 -0.0358  0.4371
 8141TIP3    H145914   0.414   6.523   0.940  0.6830  0.3787 -0.5543
 8141TIP3    H245915   0.523   6.425   0.903  0.0313 -1.0686  1.2971
 8142TIP3   OH245916   5.894   0.493   4.156 -0.2085 -0.6980  0.4721
 8142TIP3    H145917   5.970   0.435   4.158 -0.0850 -0.5161  1.1245
 8142TIP3    H245918   5.847   0.474   4.237 -0.2713 -0.0346  0.5962
 8143TIP3   OH245919   4.411   0.969  15.543 -0.0393  0.2632  1.0407
 8143TIP3    H145920   4.354   1.005  15.611 -0.1728  0.9186  0.5850
 8143TIP3    H245921   4.465   1.043  15.516 -0.0105  0.0128  0.4035
 8144TIP3   OH245922   5.817   2.125   1.800  0.4709  0.7951  0.1427
 8144TIP3    H145923   5.759   2.166   1.865 -0.7503  1.5427 -1.3909
 8144TIP3    H245924   5.869   2.197   1.766 -1.5198  1.1140 -2.4016
 8145TIP3   OH245925   5.698   0.249  14.729 -0.1774 -0.1280 -0.1417
 8145TIP3    H145926   5.698   0.189  14.654  2.1156 -2.1000  1.3672
 8145TIP3    H245927   5.770   0.309  14.711  0.7408 -0.9544  0.7122
 8146TIP3   OH245928   2.564   2.070   2.812  1.0214  0.0747  0.3207
 8146TIP3    H145929   2.517   1.987   2.803  0.0032  0.6965 -0.2160
 8146TIP3    H245930   2.541   2.103   2.899 -0.9273  1.2044 -0.5947
 8147TIP3   OH245931   0.415   1.440  13.866 -0.3275  0.6822  0.0191
 8147TIP3    H145932   0.501   1.413  13.897  0.0129  1.0775 -0.5763
 8147TIP3    H245933   0.358   1.366  13.888  0.1240  0.5033  0.5867
 8148TIP3   OH245934   6.815   6.634   5.988  0.4186  0.5015  0.3358
 8148TIP3    H145935   6.774   6.670   5.910  0.7027  0.5303  0.1987
 8148TIP3    H245936   6.849   6.711   6.035  1.2347  0.3938 -0.0781
 8149TIP3   OH245937   5.105   3.735   3.916 -0.0430 -0.1997  0.5675
 8149TIP3    H145938   5.200   3.744   3.911  0.1235 -1.3185  1.4923
 8149TIP3    H245939   5.088   3.703   4.005 -1.2161 -0.6603  0.1932
 8150TIP3   OH245940   6.501   2.523   2.169  0.8062  0.4212  0.6738
 8150TIP3    H145941   6.563   2.452   2.151  1.5857  1.5890 -1.4150
 8150TIP3    H245942   6.519   2.548   2.260  0.3655 -2.1763  1.5357
 8151TIP3   OH245943   2.433   0.659  14.564 -0.4626 -0.6122  0.0126
 8151TIP3    H145944   2.523   0.631  14.581  0.0831  0.4156 -1.0788
 8151TIP3    H245945   2.419   0.638  14.471 -1.6563 -1.5680  0.4009
 8152TIP3   OH245946   4.529   1.954  11.027  0.3025 -0.5597 -0.2737
 8152TIP3    H145947   4.492   1.898  10.959  2.4264  0.6946 -2.5309
 8152TIP3    H245948   4.619   1.923  11.037  0.6102  0.5824  0.5335
 8153TIP3   OH245949   5.722   3.021   2.826 -0.2155 -0.3516 -0.3921
 8153TIP3    H145950   5.754   3.069   2.750  0.9418 -1.0526 -0.3713
 8153TIP3    H245951   5.636   3.058   2.844  1.3847  3.0238  0.7558
 8154TIP3   OH245952   2.790   0.018  16.825  0.0730  0.2373 -0.5167
 8154TIP3    H145953   2.805   0.021  16.731  1.7210  0.0249 -0.2683
 8154TIP3    H245954   2.865   0.063  16.863 -0.4551  0.1082  0.7147
 8155TIP3   OH245955   0.988   6.633  16.043 -0.0667 -0.1129 -0.3118
 8155TIP3    H145956   0.993   6.538  16.030 -1.5438 -0.1730 -0.4912
 8155TIP3    H245957   0.938   6.665  15.968  1.1117  0.9085 -0.6710
 8156TIP3   OH245958   1.027   3.021   4.636 -0.3542  0.4055  1.2308
 8156TIP3    H145959   1.043   2.989   4.547  0.8003 -0.5974  1.7758
 8156TIP3    H245960   1.112   3.056   4.664 -1.2757  2.8320  1.1172
 8157TIP3   OH245961   0.848   1.916   0.916  0.3985 -0.4649 -0.1573
 8157TIP3    H145962   0.846   1.838   0.972 -1.4857 -0.4339 -0.1293
 8157TIP3    H245963   0.892   1.888   0.836 -0.0434 -1.4912 -0.0424
 8158TIP3   OH245964   0.102   3.343  13.427  0.1245  0.3251 -0.0377
 8158TIP3    H145965   0.067   3.426  13.394  0.8425  1.4655  2.0170
 8158TIP3    H245966   0.116   3.358  13.520 -1.6101 -2.7531  0.7922
 8159TIP3   OH245967   1.435   2.561   3.023  0.4414  0.0089 -0.2341
 8159TIP3    H145968   1.452   2.483   3.075  1.7807 -0.7518 -1.7649
 8159TIP3    H245969   1.341   2.560   3.008  0.4620 -1.3293 -0.2945
 8160TIP3   OH245970   2.740   5.268  14.382 -0.1685 -0.0725  0.0029
 8160TIP3    H145971   2.818   5.316  14.410 -1.5241  1.3843  1.3210
 8160TIP3    H245972   2.773   5.203  14.320  2.0035  0.9802  0.0304
 8161TIP3   OH245973   6.148   3.173  13.301 -0.2818 -0.6444 -0.0650
 8161TIP3    H145974   6.064   3.138  13.271 -1.2540  0.7055  1.0225
 8161TIP3    H245975   6.177   3.112  13.369  0.2238 -1.7690 -1.2604
 8162TIP3   OH245976   5.149   6.805  14.175 -0.7358 -0.2301  0.4610
 8162TIP3    H145977   5.198   6.822  14.094  1.2616 -0.2588  1.6386
 8162TIP3    H245978   5.206   6.748  14.226  0.1242  3.5328  3.9225
 8163TIP3   OH245979   0.904   0.811  12.616  0.4516 -0.3593  0.5091
 8163TIP3    H145980   0.935   0.720  12.618  0.9139 -0.2434 -0.7586
 8163TIP3    H245981   0.881   0.831  12.706 -2.5294 -2.7096  0.3126
 8164TIP3   OH245982   3.064   4.721   2.683  0.2560 -1.0001 -0.0358
 8164TIP3    H145983   3.021   4.720   2.597  0.6204  0.4705 -0.2620
 8164TIP3    H245984   3.088   4.813   2.695 -0.0978 -1.1384  1.7992
 8165TIP3   OH245985   5.872   3.650  12.119  0.2180  0.1076  0.1091
 8165TIP3    H145986   5.857   3.598  12.198  0.5275  0.2514  0.2647
 8165TIP3    H245987   5.786   3.681  12.094  0.0790 -0.1765  0.2266
 8166TIP3   OH245988   3.975   6.687   4.137  0.4465  0.1967  0.2646
 8166TIP3    H145989   3.911   6.724   4.077  1.3475  0.5879 -0.4804
 8166TIP3    H245990   4.005   6.606   4.094 -0.2804 -0.5209  1.0862
 8167TIP3   OH245991   2.466   3.856   5.057  0.2861  0.6922  0.3183
 8167TIP3    H145992   2.480   3.765   5.030  0.5446  1.9099 -4.0271
 8167TIP3    H245993   2.526   3.868   5.131 -0.4827 -2.9194  1.6392
 8168TIP3   OH245994   6.005   0.180  13.897 -0.5493 -0.8209  0.1597
 8168TIP3    H145995   6.032   0.201  13.807  1.9634  2.0872  1.4890
 8168TIP3    H245996   5.921   0.225  13.907  0.1936  0.6797 -0.0986
 8169TIP3   OH245997   6.111   6.654  10.970 -0.5030 -0.4870  0.2672
 8169TIP3    H145998   6.073   6.597  10.903 -2.5657 -1.2090  1.9773
 8169TIP3    H245999   6.199   6.673  10.939 -1.0886 -1.5747 -2.1676
 8170TIP3   OH246000   0.276   0.193   6.155 -0.0299 -0.4019 -0.3717
 8170TIP3    H146001   0.248   0.171   6.243  0.2076 -1.1572 -0.4806
 8170TIP3    H246002   0.201   0.173   6.099 -0.2254  0.1985 -0.3289
 8171TIP3   OH246003   5.600   6.032   4.803  0.5325 -0.4827  0.1516
 8171TIP3    H146004   5.651   5.954   4.825  2.6361  1.3725  2.1270
 8171TIP3    H246005   5.635   6.060   4.718  0.3069 -1.2256 -0.1920
 8172TIP3   OH246006   0.742   5.396  15.655  0.3802 -0.1940 -0.4125
 8172TIP3    H146007   0.795   5.319  15.674  1.5202  0.1488 -2.1203
 8172TIP3    H246008   0.686   5.407  15.732  1.6766 -1.4883  0.7182
 8173TIP3   OH246009   2.391   0.001   0.722  0.3746 -0.4047  0.5705
 8173TIP3    H146010   2.310  -0.041   0.752  0.9240 -0.9764  1.2923
 8173TIP3    H246011   2.442  -0.071   0.685 -0.7407  0.4525 -2.8464
 8174TIP3   OH246012   5.401   5.926  16.552  0.6147  0.8601  0.7797
 8174TIP3    H146013   5.403   6.020  16.531 -1.1445  0.4461 -1.3574
 8174TIP3    H246014   5.426   5.883  16.470  1.0992 -0.5771  1.6683
 8175TIP3   OH246015   5.506   2.368  14.082  0.1284 -0.2875  0.2111
 8175TIP3    H146016   5.513   2.319  14.164 -1.2644  0.9071  1.0558
 8175TIP3    H246017   5.569   2.325  14.023 -0.2086 -2.3504  1.2998
 8176TIP3   OH246018   5.887   4.825  12.492  0.0556 -0.5149  0.8513
 8176TIP3    H146019   5.851   4.736  12.488  2.2008 -1.3731 -0.3295
 8176TIP3    H246020   5.860   4.858  12.578 -0.9536 -2.2338  1.2241
 8177TIP3   OH246021   6.306   6.438   0.859  0.3409  0.0432 -0.3671
 8177TIP3    H146022   6.252   6.371   0.817  0.6363  0.2819 -1.1521
 8177TIP3    H246023   6.306   6.511   0.796 -3.8345  2.6987  2.4657
 8178TIP3   OH246024   2.014   3.778  11.583 -0.3663  0.0936 -0.0086
 8178TIP3    H146025   2.082   3.840  11.556 -0.1897 -1.1034 -2.4300
 8178TIP3    H246026   1.952   3.777  11.510 -0.7180 -2.0346  0.2880
 8179TIP3   OH246027   4.861   2.428  16.536  0.3529  0.1539 -0.6196
 8179TIP3    H146028   4.874   2.345  16.489  0.3595  0.3012 -0.8765
 8179TIP3    H246029   4.925   2.425  16.607 -0.7948 -0.8266  0.4053
 8180TIP3   OH246030   4.075   4.725  11.276  0.0094 -0.5063 -0.2823
 8180TIP3    H146031   4.119   4.661  11.332  0.6427  0.5421  0.4441
 8180TIP3    H246032   4.037   4.788  11.338 -1.0504 -0.4611 -0.9695
 8181TIP3   OH246033   5.905   5.863   4.784  0.6634  0.0749  0.0905
 8181TIP3    H146034   5.837   5.840   4.846 -1.1974  0.3423 -1.7904
 8181TIP3    H246035   5.986   5.861   4.835 -0.4447 -2.4271  1.8726
 8182TIP3   OH246036   0.975   5.540  14.891  0.4460 -1.2900  0.4315
 8182TIP3    H146037   0.989   5.451  14.924  1.4582 -1.1314  0.4372
 8182TIP3    H246038   0.933   5.586  14.963 -0.8082 -1.9724  0.1533
 8183TIP3   OH246039   6.080   5.724   0.153  0.1075  0.0479  0.0340
 8183TIP3    H146040   6.167   5.743   0.188 -0.4191  0.0319  1.4078
 8183TIP3    H246041   6.025   5.796   0.186 -0.8454 -1.1277  1.0584
 8184TIP3   OH246042   5.190   3.751   5.512 -0.4271 -0.4885 -0.0617
 8184TIP3    H146043   5.278   3.790   5.513 -0.1046 -1.1166 -1.5218
 8184TIP3    H246044   5.146   3.794   5.439 -1.5758  0.3214  1.1070
 8185TIP3   OH246045   0.997   4.947   3.254 -0.3086  0.1674  0.0361
 8185TIP3    H146046   0.950   5.030   3.244 -0.9302  0.2771  3.2529
 8185TIP3    H246047   1.089   4.972   3.260 -0.4116  0.5585 -0.0021
 8186TIP3   OH246048   1.757   6.632  12.479 -0.2506  0.4587  0.2020
 8186TIP3    H146049   1.667   6.610  12.504  0.1034 -0.9148  0.2651
 8186TIP3    H246050   1.768   6.597  12.391  0.6938 -0.6713  0.7609
 8187TIP3   OH246051   0.998   4.105  12.670  0.0001 -0.3447  0.1773
 8187TIP3    H146052   0.992   4.045  12.596 -0.1887 -0.8830  0.6262
 8187TIP3    H246053   0.997   4.192  12.630 -1.1779 -0.6043 -0.3887
 8188TIP3   OH246054   2.654   4.486  16.524  0.0488  0.0442  0.4577
 8188TIP3    H146055   2.571   4.534  16.521  0.9202  1.5080 -0.9415
 8188TIP3    H246056   2.640   4.418  16.590 -2.3968  0.0068 -0.0405
 8189TIP3   OH246057   4.843   3.020   5.520 -0.3650  0.6494 -0.4374
 8189TIP3    H146058   4.810   2.938   5.555  2.2039 -0.2734 -0.0654
 8189TIP3    H246059   4.810   3.023   5.430 -3.2674  0.8700  0.5965
 8190TIP3   OH246060   3.217   0.539  15.518 -0.0779  0.0841 -0.3118
 8190TIP3    H146061   3.148   0.484  15.479 -0.0615  0.2172 -0.5247
 8190TIP3    H246062   3.181   0.565  15.603  0.0450 -0.5235 -0.0680
 8191TIP3   OH246063   0.196   0.444  15.796  0.1834  0.9294 -0.3922
 8191TIP3    H146064   0.128   0.439  15.863  0.6549 -0.5422 -0.0146
 8191TIP3    H246065   0.166   0.512  15.736 -0.1981  2.3266  1.3619
 8192TIP3   OH246066   4.831   4.020  13.696 -0.3452 -0.0989  0.2871
 8192TIP3    H146067   4.822   4.112  13.719  2.3663  0.2545  0.0880
 8192TIP3    H246068   4.914   4.016  13.648 -1.7927 -2.1732 -2.1629
 8193TIP3   OH246069   6.506   0.403  11.856  0.0147 -0.1899  0.2341
 8193TIP3    H146070   6.576   0.414  11.791  0.3783  0.7848  0.7812
 8193TIP3    H246071   6.434   0.363  11.807  0.3582  0.3493 -0.7266
 8194TIP3   OH246072   4.213   5.615   5.385  0.3464 -0.1718  0.3993
 8194TIP3    H146073   4.246   5.569   5.308 -0.9830  0.2160 -0.4270
 8194TIP3    H246074   4.291   5.649   5.428  1.1548 -0.9696 -0.4054
 8195TIP3   OH246075   3.072   4.143   3.613  0.0625 -0.7297  0.5213
 8195TIP3    H146076   3.092   4.170   3.523  2.6787 -1.9454  0.7101
 8195TIP3    H246077   3.047   4.223   3.658  0.8586  0.2350 -0.7408
 8196TIP3   OH246078   1.962   4.085   1.687  0.2647  0.4218  0.4381
 8196TIP3    H146079   1.994   4.009   1.736 -1.3290 -1.3428 -1.1534
 8196TIP3    H246080   1.942   4.150   1.754 -0.1015 -1.2433  2.0003
 8197TIP3   OH246081   5.347   2.795   1.098 -0.1430  0.1590  0.1630
 8197TIP3    H146082   5.401   2.806   1.176 -1.8053  0.7171  1.2528
 8197TIP3    H246083   5.306   2.880   1.084  0.8859  0.3467 -1.9132
 8198TIP3   OH246084   2.087   6.353   5.471  0.4244 -0.4417  0.3745
 8198TIP3    H146085   2.053   6.316   5.389  2.1295 -1.7558  0.2250
 8198TIP3    H246086   2.037   6.433   5.484  2.6254  1.8268 -3.9687
 8199TIP3   OH246087   6.234   4.453   5.047 -0.0783 -0.3054 -0.0192
 8199TIP3    H146088   6.230   4.400   5.128  0.6472 -0.8699 -0.3438
 8199TIP3    H246089   6.310   4.419   5.000  0.4365  1.0764 -0.2147
 8200TIP3   OH246090   6.570   0.725   4.681 -0.1033  0.6892 -0.1591
 8200TIP3    H146091   6.596   0.641   4.719 -2.4348 -0.2220 -0.4932
 8200TIP3    H246092   6.554   0.781   4.757 -0.3310  0.2620  0.1137
 8201TIP3   OH246093   3.972   2.282   4.104  0.1040  0.4519 -0.2383
 8201TIP3    H146094   4.063   2.280   4.074  0.5134  1.4161  0.8912
 8201TIP3    H246095   3.978   2.279   4.199 -1.1760 -2.2555 -0.2146
 8202TIP3   OH246096   3.508   5.961  12.262  0.4787  0.8703 -0.0377
 8202TIP3    H146097   3.447   5.972  12.188  0.4075  0.2762 -0.0727
 8202TIP3    H246098   3.452   5.967  12.339 -0.1988 -2.9308 -0.1277
 8203TIP3   OH246099   2.817   4.012  16.478 -0.1395  0.1545 -0.3611
 8203TIP3    H146100   2.768   4.041  16.400  1.5871  1.0564 -1.1298
 8203TIP3    H246101   2.824   3.917  16.467 -1.0244  0.1080 -0.6360
 8204TIP3   OH246102   4.065   1.829  13.916  0.4434 -0.7025  0.2960
 8204TIP3    H146103   3.973   1.831  13.945  0.7368  0.8417  1.1791
 8204TIP3    H246104   4.068   1.890  13.843  0.8645 -0.3482  0.6064
 8205TIP3   OH246105   4.925   0.833  16.036  0.6901  0.4169  0.1692
 8205TIP3    H146106   4.887   0.750  16.008  0.4292  0.3968  0.5886
 8205TIP3    H246107   4.959   0.872  15.955  1.3737 -0.3852  0.0546
 8206TIP3   OH246108   6.329   0.241   3.699 -0.3796 -0.0590  0.1982
 8206TIP3    H146109   6.319   0.224   3.793  0.0882 -0.5038  0.1686
 8206TIP3    H246110   6.245   0.277   3.673 -0.2867  0.7207  0.9337
 8207TIP3   OH246111   3.422   2.856  15.186 -0.3844 -0.2954 -0.1869
 8207TIP3    H146112   3.516   2.848  15.169 -0.1401  0.7527  0.6276
 8207TIP3    H246113   3.387   2.769  15.168  1.0560 -1.2437  1.4860
 8208TIP3   OH246114   6.450   5.279  16.526 -0.4939 -0.0717 -0.3968
 8208TIP3    H146115   6.465   5.354  16.468 -3.5964  0.6561 -0.3629
 8208TIP3    H246116   6.439   5.319  16.612  0.7379 -0.8709  0.1497
 8209TIP3   OH246117   4.422   3.881  14.652 -0.2585  0.0214  0.2792
 8209TIP3    H146118   4.362   3.879  14.578 -0.8058  0.9467  0.6930
 8209TIP3    H246119   4.505   3.910  14.614 -0.3145 -0.3386 -0.1216
 8210TIP3   OH246120   1.964   6.728  11.468  0.1325 -0.0303 -0.7576
 8210TIP3    H146121   1.946   6.810  11.423 -2.9216 -0.2279  0.0132
 8210TIP3    H246122   1.972   6.753  11.561 -1.8032 -0.6953 -0.3892
 8211TIP3   OH246123   3.912   5.711  13.078 -0.0219  0.5888 -0.0006
 8211TIP3    H146124   3.905   5.639  13.015 -1.2472  1.4143 -0.8313
 8211TIP3    H246125   4.003   5.740  13.072  0.2601 -0.3305 -0.2710
 8212TIP3   OH246126   1.552   2.167   3.835  0.3385  0.5076 -0.0114
 8212TIP3    H146127   1.537   2.103   3.765  2.4333 -0.4065  0.3508
 8212TIP3    H246128   1.643   2.194   3.824 -0.1460  2.4982  0.6341
 8213TIP3   OH246129   2.301   2.858  14.536  0.4965 -0.4922  0.3018
 8213TIP3    H146130   2.207   2.862  14.551  0.4643  0.1318 -0.0884
 8213TIP3    H246131   2.323   2.765  14.550  0.4462 -0.0134  4.2187
 8214TIP3   OH246132   1.021   5.929   0.782  0.4609 -0.5251  0.3504
 8214TIP3    H146133   1.021   5.900   0.691  1.0336 -1.3677  0.6105
 8214TIP3    H246134   0.951   5.994   0.787  1.6180  0.8907 -1.1152
 8215TIP3   OH246135   1.003   0.598   2.035  0.1340  0.2427  0.2795
 8215TIP3    H146136   0.975   0.525   2.089 -0.2349 -0.1123 -0.3895
 8215TIP3    H246137   1.096   0.609   2.057  0.6324 -1.4981 -0.8117
 8216TIP3   OH246138   0.450   0.823  15.168 -0.0308  0.2908  0.1397
 8216TIP3    H146139   0.545   0.833  15.161 -0.0908  0.5309 -0.3826
 8216TIP3    H246140   0.437   0.758  15.237  0.4898  0.8245  0.7419
 8217TIP3   OH246141   1.617   3.582  14.030 -0.2905 -0.0141 -0.5316
 8217TIP3    H146142   1.613   3.676  14.010 -0.5877  0.1950  0.4641
 8217TIP3    H246143   1.627   3.579  14.126  1.2302 -0.9766 -0.7151
 8218TIP3   OH246144   3.854   4.661  14.831  0.1169  0.1458  0.0932
 8218TIP3    H146145   3.771   4.644  14.788 -0.2300  2.2148 -0.1043
 8218TIP3    H246146   3.834   4.656  14.925  0.0227 -0.4335  0.0470
 8219TIP3   OH246147   4.481   2.743  17.285 -0.2863 -0.0568  0.4808
 8219TIP3    H146148   4.490   2.736  17.190 -0.2114 -0.7273  0.5388
 8219TIP3    H246149   4.487   2.837  17.303  0.1472  0.0296 -0.1266
 8220TIP3   OH246150   6.012   5.588   3.041  0.2617 -0.0957 -0.1191
 8220TIP3    H146151   6.059   5.663   3.076  2.7072 -0.3001 -2.7725
 8220TIP3    H246152   5.956   5.624   2.973  1.4923 -0.6638 -1.4456
 8221TIP3   OH246153   4.544   3.944   0.862 -0.0154  0.4942 -0.0135
 8221TIP3    H146154   4.476   3.937   0.928 -0.1377 -0.8190 -0.2517
 8221TIP3    H246155   4.502   3.987   0.787 -0.9038 -1.2451 -0.5475
 8222TIP3   OH246156   1.040   4.979   4.447  0.3713  0.5494  0.4042
 8222TIP3    H146157   1.045   4.971   4.543  0.0344 -1.2846  0.2758
 8222TIP3    H246158   0.946   4.985   4.429  0.2326 -2.5650 -0.0643
 8223TIP3   OH246159   2.669   1.594  15.591  0.4481  0.3346 -0.0021
 8223TIP3    H146160   2.618   1.598  15.509  2.5694 -0.6487 -1.4028
 8223TIP3    H246161   2.633   1.665  15.645  0.3638  2.3165 -2.5754
 8224TIP3   OH246162   2.256   6.759  15.799  0.0176 -0.5941  0.0709
 8224TIP3    H146163   2.303   6.839  15.822  2.2689 -1.2456 -2.0656
 8224TIP3    H246164   2.166   6.787  15.786  0.1738  1.0701  2.1820
 8225TIP3   OH246165   1.834   2.248  12.684 -0.5372 -0.0328 -0.3583
 8225TIP3    H146166   1.878   2.316  12.632 -0.2926  0.8961  1.0272
 8225TIP3    H246167   1.853   2.272  12.775  0.2904 -2.4450  0.1432
 8226TIP3   OH246168   0.925   0.972  12.148  0.1309  0.4872 -0.1186
 8226TIP3    H146169   1.001   1.002  12.099  1.1717  0.5249  1.4574
 8226TIP3    H246170   0.961   0.945  12.233 -1.6144  0.4501  0.6287
 8227TIP3   OH246171   3.537   5.622   4.938 -0.2533  0.7415 -0.3295
 8227TIP3    H146172   3.559   5.530   4.950 -0.0488  0.7464 -0.6449
 8227TIP3    H246173   3.522   5.655   5.026  2.1614  1.0178  0.0154
 8228TIP3   OH246174   2.723   4.053   4.666 -0.1373  0.5068 -0.2629
 8228TIP3    H146175   2.763   4.016   4.744  0.0275 -1.4331 -1.2471
 8228TIP3    H246176   2.654   4.111   4.700 -1.7560 -2.2297  1.3258
 8229TIP3   OH246177   2.903   4.855  11.660  0.1504  0.5140 -0.1470
 8229TIP3    H146178   2.814   4.890  11.654  0.2423  1.0247  1.4001
 8229TIP3    H246179   2.905   4.784  11.596 -1.8367 -0.5342  0.9239
 8230TIP3   OH246180   2.355   0.889  15.651 -0.0573  0.4910  0.2256
 8230TIP3    H146181   2.373   0.816  15.592 -1.6556  1.0611 -0.9986
 8230TIP3    H246182   2.440   0.932  15.661  0.7300 -1.0396  0.2977
 8231TIP3   OH246183   2.617   6.605  14.339 -0.4939 -0.4395  0.0827
 8231TIP3    H146184   2.660   6.550  14.274 -0.7151 -0.1830 -0.2829
 8231TIP3    H246185   2.621   6.554  14.420  1.7244  0.1787  0.3765
 8232TIP3   OH246186   3.179   1.035  12.804 -0.1735  0.1373 -0.2306
 8232TIP3    H146187   3.117   1.072  12.866 -1.4818 -1.5900 -0.4800
 8232TIP3    H246188   3.166   0.940  12.811  1.5271 -0.1883 -1.2203
 8233TIP3   OH246189   0.989   0.009  15.673  0.0789 -0.3613 -0.0426
 8233TIP3    H146190   1.032  -0.056  15.729 -0.8407  0.4960  1.7145
 8233TIP3    H246191   0.964  -0.039  15.594  3.1752 -1.1646 -0.6169
 8234TIP3   OH246192   3.951   1.403  12.510 -0.0222  0.2385  0.5318
 8234TIP3    H146193   3.885   1.395  12.578 -0.1555 -0.4116  0.3323
 8234TIP3    H246194   4.006   1.325  12.520  0.6212  0.6891  0.5902
 8235TIP3   OH246195   2.506   6.364   6.062 -0.1251 -0.6571 -0.1174
 8235TIP3    H146196   2.453   6.300   6.110  0.0933 -1.0198 -0.3696
 8235TIP3    H246197   2.519   6.435   6.125  0.3836 -1.2540  0.4579
 8236TIP3   OH246198   6.245   1.604  11.944 -0.2738  0.6193  0.1980
 8236TIP3    H146199   6.282   1.671  11.886 -0.0578  1.3487  1.1746
 8236TIP3    H246200   6.151   1.621  11.944 -0.1657  1.2463  0.8389
 8237TIP3   OH246201   2.644   1.297   2.227 -0.1358  0.1010 -0.3756
 8237TIP3    H146202   2.568   1.352   2.206 -0.0026  0.1755 -0.6637
 8237TIP3    H246203   2.608   1.225   2.279 -0.2198  0.7995  0.5541
 8238TIP3   OH246204   5.225   3.186  16.460  0.3616  0.3996  0.5290
 8238TIP3    H146205   5.166   3.174  16.534  1.0352 -2.9585  0.6218
 8238TIP3    H246206   5.179   3.145  16.386  0.9224  1.1705 -0.2483
 8239TIP3   OH246207   2.383   0.429   3.712 -0.0820 -0.6473 -0.0707
 8239TIP3    H146208   2.336   0.500   3.757  0.0447 -0.1232 -0.7630
 8239TIP3    H246209   2.366   0.351   3.766 -0.6964 -0.2072  0.3768
 8240TIP3   OH246210   6.274   2.959   1.507 -0.0002  0.3921 -0.1529
 8240TIP3    H146211   6.250   2.879   1.460 -0.9398  0.9550 -0.6432
 8240TIP3    H246212   6.364   2.943   1.538 -0.4405 -1.1164  0.3580
 8241TIP3   OH246213   3.649   6.003  16.484  0.3518  0.3137  0.3035
 8241TIP3    H146214   3.642   5.991  16.579  1.5697 -0.5311  0.2947
 8241TIP3    H246215   3.678   6.094  16.473 -0.2155  0.5474  0.7148
 8242TIP3   OH246216   0.238   6.087   5.125  0.3894  0.1548 -0.5692
 8242TIP3    H146217   0.291   6.136   5.062  0.6582 -1.2553 -1.4726
 8242TIP3    H246218   0.190   6.154   5.173  2.5618  1.4350 -0.1059
 8243TIP3   OH246219   4.778   2.787   1.117  0.3586 -0.0642 -0.0005
 8243TIP3    H146220   4.821   2.722   1.172 -0.1056  0.6030  1.1448
 8243TIP3    H246221   4.775   2.746   1.030  2.9159 -0.3010 -0.0197
 8244TIP3   OH246222   2.074   4.443   0.805  0.0378  0.3535 -0.4322
 8244TIP3    H146223   2.000   4.423   0.861  1.2614 -0.0036  1.0845
 8244TIP3    H246224   2.082   4.366   0.748 -0.6899  0.3694 -0.5645
 8245TIP3   OH246225   5.724   2.894  10.748 -0.4031 -0.2469 -0.5326
 8245TIP3    H146226   5.806   2.866  10.709 -0.3378  0.1996 -0.7242
 8245TIP3    H246227   5.656   2.848  10.700 -0.2065 -1.6277  0.4940
 8246TIP3   OH246228   0.195   0.887   4.128  0.1265  0.2043  0.5776
 8246TIP3    H146229   0.189   0.938   4.209  1.5892  0.2080  0.6891
 8246TIP3    H246230   0.126   0.924   4.072  0.1150  1.2345  1.2542
 8247TIP3   OH246231   5.085   1.941   0.601  0.1747  0.2711  0.4273
 8247TIP3    H146232   5.143   1.876   0.642  0.0758  0.3902  0.7572
 8247TIP3    H246233   5.139   2.019   0.594  1.1891 -0.6320 -2.5035
 8248TIP3   OH246234   4.363   2.667  16.780 -0.1753  0.4310  0.3800
 8248TIP3    H146235   4.423   2.646  16.708 -0.8347 -1.3614  0.3225
 8248TIP3    H246236   4.284   2.699  16.737  0.1351  1.2046  0.3870
 8249TIP3   OH246237   2.547   3.887  14.971 -0.0184 -0.4435 -0.0920
 8249TIP3    H146238   2.457   3.854  14.964 -0.1223 -0.0536 -0.6440
 8249TIP3    H246239   2.602   3.811  14.955 -0.2553 -0.5126 -0.5885
 8250TIP3   OH246240   5.160   0.199   1.870  0.1252  0.3375 -0.3262
 8250TIP3    H146241   5.220   0.245   1.811  0.1056 -1.1295 -1.5455
 8250TIP3    H246242   5.074   0.235   1.850  0.4749  1.8376  0.8171
 8251TIP3   OH246243   3.923   0.951   3.284 -0.4053 -0.0831 -0.3188
 8251TIP3    H146244   3.942   0.997   3.202 -0.8124 -1.0822 -0.9846
 8251TIP3    H246245   4.007   0.948   3.330  0.2561 -1.1666 -1.5452
 8252TIP3   OH246246   4.186   0.435   4.484 -0.2917 -0.0055 -0.4982
 8252TIP3    H146247   4.108   0.382   4.469  0.3490 -1.3730  0.8595
 8252TIP3    H246248   4.157   0.525   4.471 -1.8925 -0.5549 -0.8324
 8253TIP3   OH246249   0.142   4.790  13.412 -0.0807  0.1317  0.3334
 8253TIP3    H146250   0.106   4.877  13.432  0.8880  0.6423 -0.1218
 8253TIP3    H246251   0.159   4.751  13.498 -0.8490  0.2456  0.5456
 8254TIP3   OH246252   2.586   0.515   1.787  0.3902 -0.2702 -0.0609
 8254TIP3    H146253   2.562   0.584   1.724 -1.5939 -0.7119  0.1727
 8254TIP3    H246254   2.532   0.533   1.864  2.0957 -0.3082  1.1884
 8255TIP3   OH246255   5.670   5.564  13.613 -0.8282 -0.2260 -0.2859
 8255TIP3    H146256   5.586   5.531  13.581 -0.5225  0.0790 -1.4249
 8255TIP3    H246257   5.647   5.621  13.687 -1.6790  0.4666 -1.0711
 8256TIP3   OH246258   4.454   2.870   5.229  0.4142 -0.5402  0.5378
 8256TIP3    H146259   4.450   2.775   5.217 -1.7525 -0.2086 -1.8711
 8256TIP3    H246260   4.405   2.885   5.311 -2.8285 -1.2226 -1.1797
 8257TIP3   OH246261   6.006   1.763  16.593 -0.2915 -0.3099  0.1389
 8257TIP3    H146262   6.046   1.811  16.666 -1.6261  0.2622  0.5295
 8257TIP3    H246263   6.060   1.685  16.582  2.9479  2.0740 -1.6277
 8258TIP3   OH246264   4.534   2.212   5.070  0.3733  0.5259  0.3567
 8258TIP3    H146265   4.525   2.243   4.980  1.4366 -2.0722 -0.7155
 8258TIP3    H246266   4.454   2.163   5.087  1.3468 -1.3055 -0.1927
 8259TIP3   OH246267   4.416   0.144   1.495  0.4747 -0.9132  0.5079
 8259TIP3    H146268   4.464   0.212   1.447 -0.4634 -0.2638  0.4869
 8259TIP3    H246269   4.472   0.067   1.488  1.6284 -0.1095  0.6640
 8260TIP3   OH246270   3.153   1.622  13.432 -0.3090  0.4080 -0.0304
 8260TIP3    H146271   3.066   1.648  13.401 -1.6094 -5.0775 -1.4945
 8260TIP3    H246272   3.214   1.662  13.371 -2.1341  0.5068 -1.8141
 8261TIP3   OH246273   0.772   6.671  12.078 -0.0098  0.7563  0.0773
 8261TIP3    H146274   0.695   6.677  12.023  0.0567  2.7418  0.1700
 8261TIP3    H246275   0.843   6.705  12.024  0.3431  1.2512  0.8442
 8262TIP3   OH246276   4.677   3.422   1.817 -0.2494  0.1080 -0.0309
 8262TIP3    H146277   4.715   3.491   1.762 -0.4582  0.8296  0.7081
 8262TIP3    H246278   4.646   3.356   1.755  1.5258 -0.1469 -0.6681
 8263TIP3   OH246279   4.523   2.625  12.639  0.5863  0.3574 -0.3785
 8263TIP3    H146280   4.465   2.549  12.644  0.3274  0.5823  0.1584
 8263TIP3    H246281   4.489   2.676  12.565 -0.0654  0.6098  0.0812
 8264TIP3   OH246282   4.525   1.916   4.001  0.4070 -0.4716  0.2183
 8264TIP3    H146283   4.474   1.955   3.930 -1.0326 -0.5233  1.1963
 8264TIP3    H246284   4.587   1.984   4.027  0.5272 -0.2352 -0.6674
 8265TIP3   OH246285   4.201   6.189   6.092  0.1322  0.2350  0.2089
 8265TIP3    H146286   4.278   6.195   6.148  0.9565 -1.0523 -0.7577
 8265TIP3    H246287   4.225   6.126   6.024 -2.1425 -1.0409  0.5252
 8266TIP3   OH246288   2.072   0.683   2.046 -0.2321 -0.0554  0.4377
 8266TIP3    H146289   1.987   0.642   2.062 -0.4663 -0.0602 -0.7996
 8266TIP3    H246290   2.060   0.774   2.073 -1.1025  0.3282 -1.1995
 8267TIP3   OH246291   3.536   3.288   5.566  0.3310  0.4343  0.2839
 8267TIP3    H146292   3.617   3.274   5.517 -0.3491  0.5435 -0.8985
 8267TIP3    H246293   3.489   3.205   5.558 -0.9816  1.3139 -1.5593
 8268TIP3   OH246294   5.237   6.348   4.331 -0.1975 -0.0810  0.0310
 8268TIP3    H146295   5.193   6.388   4.406 -0.3108 -0.7884  0.3428
 8268TIP3    H246296   5.172   6.351   4.261  1.1417  4.0330 -1.1852
 8269TIP3   OH246297   0.483   5.439  11.508 -0.5011 -0.4444 -0.6650
 8269TIP3    H146298   0.576   5.432  11.489 -0.4132  0.4863 -0.5686
 8269TIP3    H246299   0.456   5.522  11.470 -0.7319  0.5574  1.6094
 8270TIP3   OH246300   5.978   4.936  14.603 -0.0951 -1.0631  0.5000
 8270TIP3    H146301   6.055   4.896  14.563  1.0144  3.0342 -1.6666
 8270TIP3    H246302   5.916   4.946  14.531 -0.8908 -0.1389  1.2942
 8271TIP3   OH246303   0.976   2.709   2.886  0.1294 -0.2174  0.1909
 8271TIP3    H146304   1.014   2.786   2.843 -0.0491 -0.3140 -0.1411
 8271TIP3    H246305   0.887   2.705   2.853  0.0064 -0.3212  0.5371
 8272TIP3   OH246306   1.903   1.470   2.921  0.0795 -0.5985  0.8425
 8272TIP3    H146307   1.948   1.554   2.910 -0.5957 -0.1156  1.6443
 8272TIP3    H246308   1.926   1.420   2.843  2.0733 -0.4022  1.2637
 8273TIP3   OH246309   4.349   3.445  14.549  0.2562 -0.0734 -0.1638
 8273TIP3    H146310   4.407   3.413  14.480 -0.5847 -0.9664 -0.4781
 8273TIP3    H246311   4.267   3.398  14.534 -0.6585  1.4276  0.0619
 8274TIP3   OH246312   5.002   3.820   4.647 -0.4794 -0.4139 -0.2665
 8274TIP3    H146313   5.024   3.882   4.578  4.0011 -1.4316  0.1388
 8274TIP3    H246314   4.968   3.743   4.600  0.3287 -0.2126 -1.1979
 8275TIP3   OH246315   2.325   3.057  14.048  0.1640 -0.0147  0.2837
 8275TIP3    H146316   2.335   2.974  14.096 -0.1741 -0.1280  0.1585
 8275TIP3    H246317   2.268   3.110  14.104  0.2545  0.0768  0.2885
 8276TIP3   OH246318   4.688   2.155   3.049 -0.0179  0.0990 -0.1485
 8276TIP3    H146319   4.695   2.204   2.967  3.9950  1.7357  1.0382
 8276TIP3    H246320   4.674   2.223   3.116  3.0037 -0.5249  1.2041
 8277TIP3   OH246321   2.495   4.115  15.958 -0.0970 -0.2118 -0.0990
 8277TIP3    H146322   2.487   4.183  15.891 -0.0934  1.1218  1.2249
 8277TIP3    H246323   2.545   4.157  16.028 -0.7882 -1.3350  1.0786
 8278TIP3   OH246324   3.385   5.004   2.952  0.2981  0.2058 -0.0698
 8278TIP3    H146325   3.456   4.987   3.014 -0.8016  3.0112  2.0956
 8278TIP3    H246326   3.312   4.951   2.984  0.2938  0.2201 -0.0556
 8279TIP3   OH246327   1.299   4.378   5.581  1.0950 -0.1228  0.2027
 8279TIP3    H146328   1.224   4.391   5.638 -0.1048 -0.1752 -1.3392
 8279TIP3    H246329   1.370   4.355   5.640 -0.0124  0.2615  1.7096
 8280TIP3   OH246330   4.180   4.022  12.360 -0.5079 -0.5849  0.1961
 8280TIP3    H146331   4.256   3.990  12.312 -0.2141 -1.7413  1.4017
 8280TIP3    H246332   4.148   3.946  12.408 -2.1441  0.0069  0.0872
 8281TIP3   OH246333   2.995   3.317   1.109  0.1197 -0.1215  0.1897
 8281TIP3    H146334   2.930   3.320   1.179 -0.9462 -0.3863 -0.7763
 8281TIP3    H246335   3.078   3.296   1.153 -0.4440  0.2745  1.4275
 8282TIP3   OH246336   2.752   3.239  13.085  0.0225 -0.4234 -0.2041
 8282TIP3    H146337   2.777   3.173  13.020  0.2677  0.7447 -1.3208
 8282TIP3    H246338   2.807   3.315  13.064 -0.3266  0.1687  1.0039
 8283TIP3   OH246339   1.901   3.732  16.104 -0.3481 -0.4788  0.2028
 8283TIP3    H146340   1.809   3.721  16.081 -0.4142 -0.3192  0.3883
 8283TIP3    H246341   1.910   3.688  16.189 -0.5796  0.7425  0.8721
 8284TIP3   OH246342   2.594   3.777   2.240 -0.0303 -0.4835  0.6224
 8284TIP3    H146343   2.589   3.695   2.191  0.2984  0.2162 -0.6105
 8284TIP3    H246344   2.603   3.844   2.173 -0.8807  0.6186  1.5911
 8285TIP3   OH246345   0.143   2.864  12.303 -0.0815  0.4004 -0.7129
 8285TIP3    H146346   0.114   2.814  12.379  2.3849  0.1025  0.0720
 8285TIP3    H246347   0.153   2.953  12.336  0.2013  0.4389 -0.9041
 8286TIP3   OH246348   0.443   5.859  15.864 -0.3220  1.1414  0.6748
 8286TIP3    H146349   0.444   5.849  15.960 -0.1987  1.0310  0.6635
 8286TIP3    H246350   0.405   5.776  15.833  0.7155  0.6944  0.5714
 8287TIP3   OH246351   5.754   5.029   0.578  0.6392  0.5499  0.2561
 8287TIP3    H146352   5.708   5.113   0.576 -0.1297  0.1288  0.0621
 8287TIP3    H246353   5.730   4.990   0.662 -0.7273 -0.4195 -0.5633
 8288TIP3   OH246354   1.765   3.024   2.865 -0.5802  0.0789 -0.3582
 8288TIP3    H146355   1.773   3.114   2.834 -1.0153  0.3508  0.2887
 8288TIP3    H246356   1.746   3.033   2.959  1.3093 -0.7176  0.1256
 8289TIP3   OH246357   2.989   4.758   0.531 -0.1811 -0.0904  0.1108
 8289TIP3    H146358   3.025   4.714   0.608  0.7765  1.3861  0.5209
 8289TIP3    H246359   2.915   4.808   0.566 -1.3270 -1.4160 -0.3696
 8290TIP3   OH246360   1.367   1.882  14.339  0.4023  0.3398 -0.5154
 8290TIP3    H146361   1.320   1.829  14.274  0.9557 -0.6743 -0.0955
 8290TIP3    H246362   1.428   1.935  14.288  1.2403 -0.8733 -0.7895
 8291TIP3   OH246363   2.096   5.080  15.508 -0.6816 -0.0174  0.2464
 8291TIP3    H146364   2.162   5.011  15.500  0.8055  1.3225  0.6967
 8291TIP3    H246365   2.070   5.076  15.600 -2.4856 -1.6552 -0.3141
 8292TIP3   OH246366   4.387   4.683  12.274 -0.0164 -0.7558 -0.4705
 8292TIP3    H146367   4.427   4.694  12.360 -0.9412 -0.9269 -0.0123
 8292TIP3    H246368   4.444   4.621  12.229  1.4671  0.7026 -0.6367
 8293TIP3   OH246369   6.134   3.539  12.882  0.2489 -0.1170 -0.3057
 8293TIP3    H146370   6.181   3.582  12.810  0.3816  0.4750  0.1346
 8293TIP3    H246371   6.093   3.610  12.930  0.0569 -0.5228  0.1397
 8294TIP3   OH246372   6.186   2.704   1.760 -0.1266  0.0405 -0.1412
 8294TIP3    H146373   6.211   2.612   1.762  2.1541  0.6398  2.6478
 8294TIP3    H246374   6.264   2.750   1.730 -0.6154  1.2353  0.3831
 8295TIP3   OH246375   0.392   4.377   4.308  0.6687  0.2200 -0.0106
 8295TIP3    H146376   0.309   4.390   4.355  0.4907 -1.4842  0.1893
 8295TIP3    H246377   0.443   4.455   4.328  0.4945 -0.3213  2.8628
 8296TIP3   OH246378   3.457   4.341   1.078 -0.1621  0.5347 -0.1402
 8296TIP3    H146379   3.421   4.274   1.020  0.5361 -0.1733  0.2359
 8296TIP3    H246380   3.501   4.291   1.147  0.5564  1.3889  0.0197
 8297TIP3   OH246381   4.229   4.353   3.699 -0.2599  0.4183 -0.3376
 8297TIP3    H146382   4.260   4.290   3.765  0.9267  0.0090 -1.2599
 8297TIP3    H246383   4.211   4.433   3.749  2.0041  0.5678  0.2873
 8298TIP3   OH246384   4.589   4.179  14.653  0.0959  0.1893  0.8367
 8298TIP3    H146385   4.616   4.209  14.740  0.0010  0.2516  0.8447
 8298TIP3    H246386   4.663   4.126  14.622 -0.2530 -0.6039  1.3426
 8299TIP3   OH246387   3.346   0.619   2.013 -0.4182 -0.1481  0.3708
 8299TIP3    H146388   3.365   0.635   2.106 -2.1058  0.0682  0.6961
 8299TIP3    H246389   3.266   0.669   1.996  0.0250  0.0293 -1.2799
 8300TIP3   OH246390   3.232   5.028   1.920 -0.3095  0.3002  0.0434
 8300TIP3    H146391   3.137   5.031   1.909 -0.2934  0.1079 -0.1480
 8300TIP3    H246392   3.263   5.113   1.889 -0.5451  0.8743  1.3378
 8301TIP3   OH246393   0.895   5.766   0.218  0.3011  0.1071 -0.0087
 8301TIP3    H146394   0.849   5.750   0.300 -0.1160  0.8554 -0.0953
 8301TIP3    H246395   0.860   5.699   0.158 -1.4404  1.2805 -0.3626
 8302TIP3   OH246396   2.308   3.832   0.910 -0.2997  0.7549 -0.2568
 8302TIP3    H146397   2.271   3.818   0.997  0.1787 -0.7557 -0.2718
 8302TIP3    H246398   2.399   3.856   0.927 -0.4935  1.5013 -0.3010
 8303TIP3   OH246399   5.892   4.288  14.308  0.2055  0.0531  0.0103
 8303TIP3    H146400   5.854   4.220  14.252 -1.0464  1.1548 -0.5399
 8303TIP3    H246401   5.858   4.269  14.395  2.5566 -1.9600  0.5394
 8304TIP3   OH246402   6.172   2.593  14.799  0.3804  0.2991  0.6422
 8304TIP3    H146403   6.153   2.504  14.770  0.9235  0.7304 -1.1308
 8304TIP3    H246404   6.257   2.586  14.844 -0.3328 -0.3281  1.9227
 8305TIP3   OH246405   3.316   0.304  13.125  0.2430 -0.0167 -0.1518
 8305TIP3    H146406   3.304   0.239  13.195  0.4786 -1.0970 -1.1137
 8305TIP3    H246407   3.329   0.387  13.172 -3.8985  0.0690  1.0824
 8306TIP3   OH246408   3.606   1.407  15.577  0.4062  0.0742 -0.0589
 8306TIP3    H146409   3.636   1.356  15.502 -1.6984 -0.2634 -0.6920
 8306TIP3    H246410   3.605   1.345  15.650  1.6120  0.1931  0.0722
 8307TIP3   OH246411   2.373   5.239  15.362  0.1458  0.0701  0.1079
 8307TIP3    H146412   2.288   5.199  15.342  0.8592 -0.7707 -1.3182
 8307TIP3    H246413   2.377   5.239  15.458 -1.0611 -0.7536  0.1738
 8308TIP3   OH246414   2.807   3.958   0.088 -0.1700 -0.0134  0.1756
 8308TIP3    H146415   2.784   3.991   0.175  0.9672  2.4168 -0.4140
 8308TIP3    H246416   2.900   3.937   0.094 -0.3313 -0.8580 -0.1694
 8309TIP3   OH246417   5.997   2.331   6.585 -0.1358 -0.6564 -0.7068
 8309TIP3    H146418   5.966   2.264   6.524 -0.8829 -0.8548 -0.1241
 8309TIP3    H246419   5.988   2.290   6.671  1.3424 -0.5556 -0.4876
 8310TIP3   OH246420   3.685   5.437  13.083  0.2627  0.2510  0.5799
 8310TIP3    H146421   3.759   5.468  13.031 -0.4940  2.3024  0.6545
 8310TIP3    H246422   3.671   5.347  13.055  1.8803  0.3033 -0.4572
 8311TIP3   OH246423   2.116   0.991  14.221  0.4819 -0.1718 -0.0962
 8311TIP3    H146424   2.036   1.040  14.204  1.5435  1.0640 -1.7856
 8311TIP3    H246425   2.174   1.055  14.262  0.6196 -1.0382  1.0648
 8312TIP3   OH246426   1.054   1.090  15.676 -0.0287 -0.0813 -0.0719
 8312TIP3    H146427   1.095   1.176  15.676 -0.4464  0.1161 -0.6491
 8312TIP3    H246428   1.026   1.076  15.586  1.9067 -1.7029 -0.4624
 8313TIP3   OH246429   5.438   3.050  11.071 -0.2478  0.5782  0.2987
 8313TIP3    H146430   5.533   3.033  11.071 -0.6051 -1.6959  1.6432
 8313TIP3    H246431   5.428   3.130  11.020  2.4631  1.1966  0.6459
 8314TIP3   OH246432   6.390   6.567  17.268 -0.3653  0.3906  0.2780
 8314TIP3    H146433   6.483   6.550  17.280 -0.4744 -1.3714 -1.1213
 8314TIP3    H246434   6.352   6.559  17.355  0.3117 -2.1216  0.3695
 8315TIP3   OH246435   2.425   4.426   4.098  0.2055  0.3094 -0.0839
 8315TIP3    H146436   2.363   4.499   4.108  1.4486  1.2561  0.9592
 8315TIP3    H246437   2.484   4.454   4.027 -0.0903 -0.2412 -0.5470
 8316TIP3   OH246438   0.389   2.068   4.232 -0.4390  0.2407 -0.1375
 8316TIP3    H146439   0.448   2.047   4.160 -0.4902  1.5787 -0.5831
 8316TIP3    H246440   0.360   1.983   4.265 -0.3362 -0.3942 -1.6333
 8317TIP3   OH246441   1.233   2.253   4.310  1.2313 -0.2092 -0.1262
 8317TIP3    H146442   1.276   2.175   4.274 -0.8129 -0.2165 -2.7851
 8317TIP3    H246443   1.175   2.219   4.378  0.3960 -1.0347 -1.2277
 8318TIP3   OH246444   4.823   6.386   4.234  0.2699  0.2866  0.3994
 8318TIP3    H146445   4.889   6.437   4.187  0.6093 -0.7763 -0.2893
 8318TIP3    H246446   4.871   6.309   4.266 -1.0553 -1.5213 -1.8348
 8319TIP3   OH246447   1.581   3.190   3.280 -0.3818  0.6565  0.7449
 8319TIP3    H146448   1.630   3.137   3.343 -2.3849 -0.7292  1.1800
 8319TIP3    H246449   1.559   3.270   3.328 -2.4142 -0.6412  2.0757
 8320TIP3   OH246450   0.428   0.769  10.903 -0.4419  0.1603  0.1636
 8320TIP3    H146451   0.349   0.728  10.940 -0.4627 -0.0222 -0.0778
 8320TIP3    H246452   0.495   0.701  10.908  0.2719  1.0027  2.3091
 8321TIP3   OH246453   0.783   2.038   5.713 -0.0054 -0.1937 -0.0332
 8321TIP3    H146454   0.693   2.014   5.691  0.2890  0.0720 -1.5818
 8321TIP3    H246455   0.832   2.024   5.632  0.9670  1.6109  0.2121
 8322TIP3   OH246456   4.863   3.134   0.483 -0.6261 -0.8172  0.3504
 8322TIP3    H146457   4.894   3.088   0.561 -1.1628 -1.1955  0.3394
 8322TIP3    H246458   4.792   3.189   0.515  0.8242  0.9644  0.6003
 8323TIP3   OH246459   3.503   0.241  12.585  0.0607 -0.1466  0.5127
 8323TIP3    H146460   3.513   0.220  12.492  0.2850  2.4291 -0.0614
 8323TIP3    H246461   3.593   0.244  12.618 -0.0588 -2.0976  1.0780
 8324TIP3   OH246462   3.407   0.261   3.944  0.4025 -0.1646 -0.2663
 8324TIP3    H146463   3.430   0.262   4.037  0.3647 -0.2104 -0.2563
 8324TIP3    H246464   3.421   0.351   3.915  0.2246 -0.1037 -0.1679
 8325TIP3   OH246465   4.526   6.060  11.284 -0.1802  0.0788  0.2612
 8325TIP3    H146466   4.563   6.090  11.367  1.1718 -2.1812  0.5135
 8325TIP3    H246467   4.582   6.099  11.217  0.9464 -1.0087  0.5516
 8326TIP3   OH246468   4.135   3.653  15.631  0.0201 -0.0381 -0.0525
 8326TIP3    H146469   4.227   3.630  15.638 -0.0151  0.0519  0.7953
 8326TIP3    H246470   4.124   3.684  15.541  0.7081 -0.5059 -0.2988
 8327TIP3   OH246471   6.484   5.076  14.858 -0.3489 -0.2817 -0.2710
 8327TIP3    H146472   6.502   4.992  14.818 -0.3264 -1.6208  2.4428
 8327TIP3    H246473   6.388   5.079  14.865 -0.2523 -1.5357  2.4632
 8328TIP3   OH246474   0.852   0.595  11.771  0.2240 -0.2007  0.1569
 8328TIP3    H146475   0.912   0.544  11.717  0.9107  0.4682  0.2841
 8328TIP3    H246476   0.904   0.669  11.801 -0.3948 -0.1132  1.0348
 8329TIP3   OH246477   2.765   5.418  14.768  0.0733  0.4962  0.0624
 8329TIP3    H146478   2.759   5.488  14.703  2.0463 -0.1321 -0.8603
 8329TIP3    H246479   2.789   5.340  14.716 -1.2505 -0.6702  1.1690
 8330TIP3   OH246480   1.634   2.755   3.071 -0.2179  0.5935  0.2935
 8330TIP3    H146481   1.592   2.839   3.052  0.4045  0.8979  0.2604
 8330TIP3    H246482   1.561   2.694   3.081 -0.5926  0.6578 -1.9383
 8331TIP3   OH246483   2.141   1.756  15.652  0.4765  0.2651 -0.5996
 8331TIP3    H146484   2.104   1.793  15.571 -0.1383 -1.1711 -0.9919
 8331TIP3    H246485   2.177   1.672  15.625  1.6376  0.4577  0.3388
 8332TIP3   OH246486   6.364   0.780   5.192 -0.2112 -0.1603 -0.2948
 8332TIP3    H146487   6.350   0.688   5.217 -2.0568 -0.0457 -0.8021
 8332TIP3    H246488   6.457   0.795   5.205  0.0887 -2.0899 -0.1107
 8333TIP3   OH246489   2.308   5.601   1.990 -0.0713 -0.0885  0.2038
 8333TIP3    H146490   2.403   5.607   1.982  0.0262  0.9093  1.9675
 8333TIP3    H246491   2.288   5.509   1.970  1.1553 -0.1175 -0.9928
 8334TIP3   OH246492   3.983   1.006  13.350  0.4883 -0.2180  0.5742
 8334TIP3    H146493   3.999   1.093  13.314  2.2332 -0.0667  1.6622
 8334TIP3    H246494   4.041   0.948  13.300  1.5614 -0.2848  1.8892
 8335TIP3   OH246495   6.294   6.571  13.936  0.2471 -0.2785  0.3746
 8335TIP3    H146496   6.239   6.637  13.895 -0.7893  0.8998  3.5670
 8335TIP3    H246497   6.332   6.615  14.012  1.6838 -2.5575  1.0192
 8336TIP3   OH246498   0.703   3.493  11.594 -0.3884  0.4226  0.0042
 8336TIP3    H146499   0.721   3.572  11.543 -0.3514  1.7489  1.9998
 8336TIP3    H246500   0.616   3.507  11.630 -0.0474 -0.0602  1.0456
 8337TIP3   OH246501   0.180   2.846   0.733 -0.6303  0.1164 -0.0410
 8337TIP3    H146502   0.170   2.751   0.747  0.4699 -0.0313 -0.2602
 8337TIP3    H246503   0.273   2.863   0.746 -0.9646  1.3314  0.9041
 8338TIP3   OH246504   4.230   6.816  13.715 -0.2261  0.1180  0.1940
 8338TIP3    H146505   4.230   6.853  13.803 -0.7858 -2.1665  1.1998
 8338TIP3    H246506   4.138   6.796  13.697 -0.0501  0.0688 -0.6798
 8339TIP3   OH246507   4.668   6.551  15.228 -0.6618  0.0948  0.0796
 8339TIP3    H146508   4.646   6.502  15.307 -1.2071 -0.8087 -0.6375
 8339TIP3    H246509   4.654   6.643  15.253 -0.3761 -0.1493  1.1762
 8340TIP3   OH246510   2.501   4.572  14.190  0.9004  0.1415  0.1571
 8340TIP3    H146511   2.592   4.542  14.183  0.8717  0.5609 -2.8341
 8340TIP3    H246512   2.497   4.618  14.274  3.0659 -1.1315  1.0006
 8341TIP3   OH246513   5.490   4.643  13.067  0.5882  0.1585 -0.8652
 8341TIP3    H146514   5.416   4.696  13.097  0.9043  1.8311 -2.8428
 8341TIP3    H246515   5.545   4.632  13.145 -0.5611  0.9353  0.0805
 8342TIP3   OH246516   6.289   3.337   0.082  0.0779  0.2401 -0.3950
 8342TIP3    H146517   6.244   3.254   0.099  0.0461  0.4310  0.4877
 8342TIP3    H246518   6.262   3.394   0.154  0.9428  0.6688 -0.4045
 8343TIP3   OH246519   5.448   5.721  14.723  0.0790  0.9111 -0.1613
 8343TIP3    H146520   5.355   5.748  14.723 -0.1598  0.0965 -0.9685
 8343TIP3    H246521   5.465   5.697  14.632  0.6743 -0.3796  0.2964
 8344TIP3   OH246522   5.596   4.071  12.401  0.1707  0.0554 -0.3980
 8344TIP3    H146523   5.567   3.982  12.418 -0.5485  0.4477  0.4953
 8344TIP3    H246524   5.597   4.078  12.306  0.4157 -0.9598 -0.4742
 8345TIP3   OH246525   2.896   3.097   2.339  0.1184 -0.0643  0.4595
 8345TIP3    H146526   2.961   3.064   2.400 -0.6270 -1.4814  0.5093
 8345TIP3    H246527   2.882   3.188   2.365  1.5622  0.0437  0.8783
 8346TIP3   OH246528   2.450   3.416  12.077 -0.8801 -0.0120 -0.1616
 8346TIP3    H146529   2.436   3.481  12.008 -2.2446 -0.3690 -0.2275
 8346TIP3    H246530   2.538   3.383  12.061 -0.2004  1.7487 -0.1871
 8347TIP3   OH246531   3.334   3.843   5.594  0.6594 -0.7174  0.3367
 8347TIP3    H146532   3.408   3.840   5.533 -0.2380 -0.1045 -0.7981
 8347TIP3    H246533   3.263   3.798   5.548 -0.3949  0.8435  0.4189
 8348TIP3   OH246534   3.920   3.828  14.815 -0.0511 -0.9100 -0.1121
 8348TIP3    H146535   3.864   3.870  14.881  2.4026  1.0627  0.8213
 8348TIP3    H246536   4.008   3.862  14.833  1.5803 -4.2779 -1.2074
 8349TIP3   OH246537   4.762   4.745   4.203 -0.0700  0.1307 -0.4542
 8349TIP3    H146538   4.700   4.777   4.137 -1.0200 -2.5697 -0.9331
 8349TIP3    H246539   4.840   4.721   4.153  0.8003  1.9953 -0.0440
 8350TIP3   OH246540   0.613   6.736   2.622 -0.7289 -0.1836  0.1932
 8350TIP3    H146541   0.585   6.777   2.703  2.0210 -2.0109  2.1591
 8350TIP3    H246542   0.553   6.663   2.610  0.0726 -1.1266  1.7338
 8351TIP3   OH246543   6.227   2.369  13.258  0.1614 -0.3327  0.0050
 8351TIP3    H146544   6.269   2.293  13.297 -0.5182 -0.0457  1.3205
 8351TIP3    H246545   6.138   2.368  13.294  0.2536  1.2755  0.2955
 8352TIP3   OH246546   0.887   1.660   3.711 -0.3757 -0.5622  0.2579
 8352TIP3    H146547   0.815   1.598   3.703 -0.3007 -0.6831  0.5071
 8352TIP3    H246548   0.846   1.740   3.746 -0.4493 -0.5150  0.0633
 8353TIP3   OH246549   3.312   0.306   3.189  0.1433  0.7863 -0.2199
 8353TIP3    H146550   3.374   0.298   3.116  1.0655  1.8004  0.4350
 8353TIP3    H246551   3.276   0.394   3.181  1.3757  1.4731  1.3960
 8354TIP3   OH246552   5.719   2.284  11.005 -0.0761  0.3599 -0.5933
 8354TIP3    H146553   5.727   2.316  11.094  0.2151 -4.5993  1.3556
 8354TIP3    H246554   5.626   2.294  10.984 -0.5247 -0.1805  1.0651
 8355TIP3   OH246555   4.215   3.951  16.871 -0.4173 -0.4678 -0.1073
 8355TIP3    H146556   4.258   3.968  16.954 -1.8945  0.9890  0.3610
 8355TIP3    H246557   4.272   3.886  16.828  2.5159  1.7609  0.2656
 8356TIP3   OH246558   6.654   5.391  13.103 -0.2845  0.2821 -0.1371
 8356TIP3    H146559   6.608   5.376  13.021  0.3485 -0.0233 -0.4386
 8356TIP3    H246560   6.584   5.407  13.167 -0.8574 -1.1232 -0.3872
 8357TIP3   OH246561   4.452   0.444  15.447 -0.1920  0.3679  0.5487
 8357TIP3    H146562   4.545   0.449  15.428 -0.5496 -0.1264 -1.4740
 8357TIP3    H246563   4.423   0.535  15.451  0.0788  0.5045 -0.4508
 8358TIP3   OH246564   0.769   2.579  14.315 -0.3707  0.5136  0.7327
 8358TIP3    H146565   0.790   2.671  14.297 -0.1510  0.5968  1.4142
 8358TIP3    H246566   0.685   2.565  14.270 -1.2240  1.5005  1.9880
 8359TIP3   OH246567   4.289   1.270  17.256 -0.3145  0.1739 -0.5655
 8359TIP3    H146568   4.330   1.199  17.206 -0.9479 -0.2869 -0.4404
 8359TIP3    H246569   4.351   1.343  17.250  1.0727 -0.8757  0.6134
 8360TIP3   OH246570   2.041   4.742  17.018  0.0575 -0.1191 -0.4457
 8360TIP3    H146571   2.009   4.830  16.998 -0.4120 -0.6310 -1.9800
 8360TIP3    H246572   2.136   4.750  17.013  0.0343  0.3883 -0.1838
 8361TIP3   OH246573   5.432   6.772  14.745 -0.1371 -0.2386 -0.7056
 8361TIP3    H146574   5.454   6.857  14.708  0.0768  0.1391  0.2837
 8361TIP3    H246575   5.506   6.716  14.723  2.5092  1.3169  3.6295
 8362TIP3   OH246576   6.039   5.080  11.102  0.3131 -0.0164 -0.0650
 8362TIP3    H146577   6.104   5.079  11.172 -2.7200  1.1839  2.9344
 8362TIP3    H246578   6.013   4.988  11.092 -0.7680  0.0313  1.9755
 8363TIP3   OH246579   4.129   3.520  11.669 -0.0805  0.0433  0.8091
 8363TIP3    H146580   4.181   3.581  11.721  0.1731 -1.5048  2.3872
 8363TIP3    H246581   4.039   3.534  11.698 -0.0349 -0.2778  1.0999
 8364TIP3   OH246582   4.479   5.167  15.267  0.0065 -0.3741 -0.0925
 8364TIP3    H146583   4.452   5.124  15.348 -2.8081 -0.6542 -1.1332
 8364TIP3    H246584   4.401   5.164  15.211  1.8319 -0.0042 -2.7338
 8365TIP3   OH246585   0.481   2.553   0.607 -0.7330 -0.1891 -0.2130
 8365TIP3    H146586   0.397   2.555   0.652 -0.6380  0.9096 -0.0644
 8365TIP3    H246587   0.469   2.491   0.536 -0.4560 -3.0515  2.1247
 8366TIP3   OH246588   4.142   4.535   4.630 -1.0206 -0.4042 -0.4091
 8366TIP3    H146589   4.064   4.514   4.578 -0.6503  1.6044 -1.8122
 8366TIP3    H246590   4.176   4.450   4.656 -2.3786 -1.3834 -1.7258
 8367TIP3   OH246591   3.963   2.051   3.473  0.2116  0.0779 -0.1370
 8367TIP3    H146592   3.996   1.975   3.520  0.2817  1.1033  1.5048
 8367TIP3    H246593   3.947   2.019   3.384  5.9563 -0.4023 -1.2034
 8368TIP3   OH246594   0.443   2.166  11.398  0.2746 -0.0049  0.2058
 8368TIP3    H146595   0.473   2.220  11.326  0.0839  1.9080  1.5097
 8368TIP3    H246596   0.441   2.225  11.473  0.5570 -1.9490  1.8120
 8369TIP3   OH246597   2.558   3.974   1.723 -0.2707 -0.7191 -0.4682
 8369TIP3    H146598   2.473   3.979   1.767  1.3453  2.9052  2.5770
 8369TIP3    H246599   2.543   4.013   1.637 -1.3462  1.5575  0.7058
 8370TIP3   OH246600   6.719   1.002  14.433 -0.0487  0.1517  0.3483
 8370TIP3    H146601   6.718   1.098  14.439 -0.5079  0.1545  0.2142
 8370TIP3    H246602   6.800   0.976  14.478 -0.4863  0.5338  1.3633
 8371TIP3   OH246603   2.553   0.060   6.080  0.1859 -0.4182  0.5222
 8371TIP3    H146604   2.592   0.039   6.165  3.6118 -1.2702 -1.1844
 8371TIP3    H246605   2.525   0.151   6.089 -1.0034 -0.9920  3.0595
 8372TIP3   OH246606   1.700   2.561  15.494  0.2410  1.0337 -0.1569
 8372TIP3    H146607   1.648   2.529  15.568 -0.3860 -0.7925 -1.3333
 8372TIP3    H246608   1.644   2.626  15.452 -0.8687 -0.4249 -1.0169
 8373TIP3   OH246609   1.593   3.017  10.100  0.7613  0.1814 -0.5906
 8373TIP3    H146610   1.660   2.954  10.074  2.6589  1.1283  1.7878
 8373TIP3    H246611   1.590   3.079  10.027  3.0381  0.5170 -0.4539
 8374TIP3   OH246612   1.198   0.180  12.370  0.5839 -0.6809 -0.1936
 8374TIP3    H146613   1.161   0.163  12.456 -1.0780 -0.0300 -0.7607
 8374TIP3    H246614   1.162   0.111  12.314  0.8743 -0.5244 -0.5787
 8375TIP3   OH246615   3.635   2.690  14.436  0.1908  0.2669  0.3234
 8375TIP3    H146616   3.588   2.766  14.472  1.6809  1.3467  0.0447
 8375TIP3    H246617   3.591   2.615  14.475 -0.3302  1.3168  1.8493
 8376TIP3   OH246618   1.909   5.119   6.596 -0.5922  0.7445  0.4272
 8376TIP3    H146619   1.914   5.209   6.565  0.4377  0.2307 -0.9499
 8376TIP3    H246620   1.985   5.075   6.556  0.0864 -0.2412  2.7231
 8377TIP3   OH246621   1.155   1.285   0.870  0.2232  0.2901  0.1653
 8377TIP3    H146622   1.131   1.326   0.953 -0.9901 -1.7294  0.8436
 8377TIP3    H246623   1.242   1.249   0.887  1.3242  2.5475 -0.4535
 8378TIP3   OH246624   6.017   5.198   2.000 -0.4251  0.4020  0.1485
 8378TIP3    H146625   6.032   5.122   2.056 -0.6982  0.2963  0.0818
 8378TIP3    H246626   5.928   5.186   1.967 -0.5372  0.8397  0.2798
 8379TIP3   OH246627   1.742   3.651  15.140  0.1967  0.6482 -0.1937
 8379TIP3    H146628   1.718   3.577  15.195  0.1973 -0.1004 -1.1739
 8379TIP3    H246629   1.670   3.657  15.076  0.2027  1.4888 -0.1303
 8380TIP3   OH246630   2.039   4.000  16.660  0.3208 -0.3801  0.6317
 8380TIP3    H146631   2.089   3.923  16.687 -0.6885 -0.8996  1.0690
 8380TIP3    H246632   2.040   3.997  16.564  1.0513 -0.4327  0.6435
 8381TIP3   OH246633   1.172   4.605   1.780  0.0165  0.1727  0.0788
 8381TIP3    H146634   1.256   4.646   1.756  1.7459 -2.1608  1.9684
 8381TIP3    H246635   1.147   4.648   1.862 -0.0962  0.0982  0.0826
 8382TIP3   OH246636   1.795   4.492   3.712  0.3039  0.2546  0.3622
 8382TIP3    H146637   1.710   4.527   3.739  0.2781  1.8744 -1.6737
 8382TIP3    H246638   1.838   4.566   3.668  1.7840 -1.2176 -0.7170
 8383TIP3   OH246639   1.407   0.408  16.953 -0.0191  0.2688 -0.1486
 8383TIP3    H146640   1.354   0.459  17.015 -0.2365  0.0886 -0.1829
 8383TIP3    H246641   1.439   0.334  17.004  0.8292  0.7837  0.0670
 8384TIP3   OH246642   3.151   0.223  14.713  0.1164  0.0612  0.3342
 8384TIP3    H146643   3.226   0.176  14.749 -0.7602 -1.0027  0.7904
 8384TIP3    H246644   3.085   0.155  14.697 -0.6397  0.9358 -0.3648
 8385TIP3   OH246645   4.423   4.525  15.575  0.7363 -0.1042  0.1693
 8385TIP3    H146646   4.414   4.476  15.493  0.5702  1.4627 -0.7758
 8385TIP3    H246647   4.348   4.499  15.628  0.8187 -1.0888 -0.1974
 8386TIP3   OH246648   5.859   2.132   2.372  0.1545  0.2801 -0.1140
 8386TIP3    H146649   5.816   2.067   2.317 -0.0369 -1.2232  1.7853
 8386TIP3    H246650   5.904   2.190   2.309  1.9216 -2.7490 -1.7700
 8387TIP3   OH246651   0.233   1.264  17.044 -0.5884 -0.0354  0.5986
 8387TIP3    H146652   0.329   1.255  17.044 -0.6492 -1.2350  2.9028
 8387TIP3    H246653   0.201   1.175  17.032 -1.4188  0.3862 -0.3084
 8388TIP3   OH246654   5.847   6.340   4.388  0.1952 -0.7486 -0.5202
 8388TIP3    H146655   5.863   6.427   4.354  2.0851 -0.9091 -0.0813
 8388TIP3    H246656   5.791   6.298   4.323 -0.2988  0.6057 -0.9783
 8389TIP3   OH246657   4.804   3.572   1.659  0.2683  0.2318  0.1153
 8389TIP3    H146658   4.793   3.535   1.571  0.3803 -0.8389  0.5465
 8389TIP3    H246659   4.848   3.656   1.644  1.3216 -0.4657 -0.7777
 8390TIP3   OH246660   6.739   0.118   0.734  0.4764 -0.2779 -0.1684
 8390TIP3    H146661   6.728   0.126   0.828 -0.8305  1.1372 -0.4251
 8390TIP3    H246662   6.821   0.165   0.715  0.1522  0.4138  0.1239
 8391TIP3   OH246663   4.200   5.602  12.101 -0.0844  0.1184 -0.1506
 8391TIP3    H146664   4.251   5.536  12.147 -1.1112  0.0529  0.9122
 8391TIP3    H246665   4.120   5.557  12.074 -1.6277  1.3316  2.1842
 8392TIP3   OH246666   0.563   5.246   2.718 -0.7861  0.1526  0.0014
 8392TIP3    H146667   0.633   5.278   2.775 -0.2502 -0.3534 -0.3586
 8392TIP3    H246668   0.608   5.226   2.635 -1.1564 -1.2611  0.1332
 8393TIP3   OH246669   1.306   1.719   2.308  0.5189 -0.2042  0.2592
 8393TIP3    H146670   1.265   1.801   2.282 -2.0432 -1.3196  0.6683
 8393TIP3    H246671   1.316   1.727   2.403 -3.1826 -1.8064  0.8579
 8394TIP3   OH246672   6.199   4.548   4.418  0.1924  0.2449 -0.0361
 8394TIP3    H146673   6.232   4.638   4.427 -0.7686  0.5646  0.4376
 8394TIP3    H246674   6.228   4.504   4.498 -0.1483  0.4038  0.1766
 8395TIP3   OH246675   3.614   0.623  13.335 -0.4900  0.0759  0.6722
 8395TIP3    H146676   3.520   0.615  13.348 -0.7057 -0.0086 -0.8598
 8395TIP3    H246677   3.644   0.679  13.407 -1.6471 -0.2186  1.3752
 8396TIP3   OH246678   3.364   5.058  11.827  0.1818 -0.1506  0.5805
 8396TIP3    H146679   3.333   5.137  11.872 -1.1349 -1.2253  1.6142
 8396TIP3    H246680   3.299   5.044  11.758  1.7796  1.0615 -1.2370
 8397TIP3   OH246681   4.332   0.444   1.861  0.0292 -0.1204  0.1440
 8397TIP3    H146682   4.345   0.539   1.863 -0.1850 -0.0586 -1.1203
 8397TIP3    H246683   4.238   0.433   1.870 -0.1509 -0.1241 -1.5490
 8398TIP3   OH246684   6.638   4.526  16.588 -0.0332  0.5808  0.3390
 8398TIP3    H146685   6.686   4.535  16.506 -1.0621  0.8441 -0.2348
 8398TIP3    H246686   6.706   4.532  16.656  0.6792  1.4817 -0.4442
 8399TIP3   OH246687   5.026   3.180   1.289 -0.0053  0.3792 -0.2499
 8399TIP3    H146688   5.037   3.191   1.383 -2.0406 -0.0192  0.0678
 8399TIP3    H246689   4.963   3.108   1.280 -0.2204  0.7385 -1.8941
 8400TIP3   OH246690   5.334   0.134  10.749 -0.1019  0.1475  0.4483
 8400TIP3    H146691   5.242   0.160  10.747 -0.2979 -0.6517 -1.9560
 8400TIP3    H246692   5.369   0.161  10.664  2.1982  1.4925  1.7762
 8401TIP3   OH246693   3.107   6.040  12.386 -0.3202 -0.2684 -0.0626
 8401TIP3    H146694   3.053   6.086  12.322 -1.6157  1.3610  2.1321
 8401TIP3    H246695   3.045   5.992  12.441  0.4427  1.1760  2.1460
 8402TIP3   OH246696   3.462   6.397  13.684  0.4963  0.3638 -0.3217
 8402TIP3    H146697   3.442   6.387  13.591 -0.8839  2.2272 -0.2436
 8402TIP3    H246698   3.469   6.307  13.716 -0.8675 -0.3199 -1.8338
 8403TIP3   OH246699   2.475   6.667   0.154 -0.8986  0.7074  0.0570
 8403TIP3    H146700   2.486   6.577   0.122  0.6563  0.2417  1.8480
 8403TIP3    H246701   2.381   6.674   0.171 -1.4564  0.2896 -2.5406
 8404TIP3   OH246702   5.974   3.526   1.215 -0.5536  0.3100 -0.2399
 8404TIP3    H146703   6.043   3.582   1.251  0.2573 -0.6365 -0.3010
 8404TIP3    H246704   6.021   3.454   1.172 -1.5148  1.0882 -2.6731
 8405TIP3   OH246705   6.478   6.472  14.799  0.1329  0.4259 -0.3787
 8405TIP3    H146706   6.563   6.515  14.793 -0.0202  0.5232 -2.0664
 8405TIP3    H246707   6.450   6.488  14.889  2.2016 -0.2247  0.4093
 8406TIP3   OH246708   6.141   1.360   5.380 -0.0452  0.2594  0.1088
 8406TIP3    H146709   6.207   1.410   5.429  0.0036  0.0287  0.2782
 8406TIP3    H246710   6.069   1.348   5.441  0.3721 -0.7795  0.4175
 8407TIP3   OH246711   2.960   5.557   0.030 -0.5441 -0.2673  0.2468
 8407TIP3    H146712   2.990   5.572  -0.060  0.2585 -0.0917  0.5427
 8407TIP3    H246713   3.008   5.480   0.059 -2.0675 -1.3549 -0.0498
 8408TIP3   OH246714   5.976   4.008  15.421  0.1258 -0.7676 -0.0624
 8408TIP3    H146715   6.021   4.066  15.360  0.0530 -1.1239 -0.4617
 8408TIP3    H246716   6.030   3.929  15.423 -1.7281 -2.1523 -2.4115
 8409TIP3   OH246717   0.816   6.713   6.101  0.2572  0.3955  0.3492
 8409TIP3    H146718   0.862   6.633   6.078 -0.1459  0.5239 -0.9239
 8409TIP3    H246719   0.864   6.747   6.177  0.5044 -0.9710  0.8225
 8410TIP3   OH246720   3.215   6.570   3.860  0.0216  0.1301 -0.3169
 8410TIP3    H146721   3.263   6.598   3.938  1.4597  0.8695 -1.4456
 8410TIP3    H246722   3.279   6.525   3.807 -0.1775  2.2140 -2.4228
 8411TIP3   OH246723   2.131   5.982   1.595  0.0547  0.0267 -0.5795
 8411TIP3    H146724   2.136   6.077   1.587  1.9594 -0.1450 -1.6576
 8411TIP3    H246725   2.201   5.949   1.539 -0.5919 -2.0220 -0.2346
 8412TIP3   OH246726   0.190   0.410   3.906 -0.7420  0.6030  0.5440
 8412TIP3    H146727   0.256   0.341   3.905 -0.6274  0.7314 -1.4106
 8412TIP3    H246728   0.166   0.418   3.999 -0.3841 -1.6832  0.8733
 8413TIP3   OH246729   6.428   3.846  15.798 -0.0958  0.5208  0.0134
 8413TIP3    H146730   6.486   3.777  15.766 -0.2878  1.2436 -1.9913
 8413TIP3    H246731   6.340   3.814  15.780 -0.2765  0.2447  1.3297
 8414TIP3   OH246732   6.167   3.431  13.449  0.0866  0.3409  0.2406
 8414TIP3    H146733   6.235   3.470  13.394  1.2031  0.0512  1.3845
 8414TIP3    H246734   6.148   3.347  13.408  0.5054  0.3672 -0.0114
 8415TIP3   OH246735   5.710   1.484   0.077 -0.0395 -0.3008  0.4424
 8415TIP3    H146736   5.656   1.551   0.035 -0.9492 -0.2400  1.6934
 8415TIP3    H246737   5.724   1.419   0.008  1.6330  1.5838 -1.0622
 8416TIP3   OH246738   1.470   2.580  15.647 -0.0389 -0.0014 -0.1017
 8416TIP3    H146739   1.418   2.524  15.588  0.8050 -0.8633 -0.0372
 8416TIP3    H246740   1.451   2.547  15.734  1.6263 -1.2036 -0.1616
 8417TIP3   OH246741   2.471   3.996   4.822  0.1000 -0.0110  0.0294
 8417TIP3    H146742   2.477   4.081   4.867  2.6036  0.0158 -0.2813
 8417TIP3    H246743   2.487   3.931   4.890  1.3121 -0.0799 -0.3067
 8418TIP3   OH246744   2.644   4.325  16.764 -0.4497 -0.2903 -0.6806
 8418TIP3    H146745   2.585   4.267  16.811 -0.0250 -1.1071 -1.1459
 8418TIP3    H246746   2.712   4.268  16.730 -0.6887  0.2973 -2.1937
 8419TIP3   OH246747   2.482   4.183  15.030  0.6093 -0.0294 -0.7713
 8419TIP3    H146748   2.551   4.246  15.049  0.3595 -0.3886  1.4776
 8419TIP3    H246749   2.525   4.098  15.035  0.2910 -0.1887 -0.6946
 8420TIP3   OH246750   5.629   5.386   4.873  0.1998  0.2157  0.3686
 8420TIP3    H146751   5.636   5.366   4.966 -2.1281 -0.7868  0.3580
 8420TIP3    H246752   5.717   5.370   4.838  1.0160  0.3246  2.3200
 8421TIP3   OH246753   0.220   5.300   3.933  0.5144  0.0808  0.4660
 8421TIP3    H146754   0.271   5.355   3.873  0.2292 -0.5520 -0.3650
 8421TIP3    H246755   0.143   5.274   3.883 -0.0410  0.0521  1.3232
 8422TIP3   OH246756   2.403   2.738   6.637 -0.5424 -0.0419 -0.4736
 8422TIP3    H146757   2.387   2.831   6.621  0.0312  0.3356  1.0500
 8422TIP3    H246758   2.497   2.727   6.623 -0.2347  0.0601  1.3379
 8423TIP3   OH246759   4.630   4.681   0.640 -0.5713 -0.2128  0.2678
 8423TIP3    H146760   4.707   4.645   0.596 -0.8752 -0.9781  0.3505
 8423TIP3    H246761   4.566   4.610   0.638 -1.3582  0.4860  0.0025
 8424TIP3   OH246762   5.244   4.306   0.034  0.7458 -0.0638  0.2885
 8424TIP3    H146763   5.225   4.273  -0.054  0.0788  0.9313  0.0501
 8424TIP3    H246764   5.166   4.283   0.085 -0.0340  1.7654 -0.0522
 8425TIP3   OH246765   2.383   4.572  15.255 -0.5993 -0.0142  0.0522
 8425TIP3    H146766   2.352   4.485  15.283  0.6441 -0.6248 -0.4236
 8425TIP3    H246767   2.312   4.606  15.201 -1.7677 -0.0718  1.5233
 8426TIP3   OH246768   4.943   4.236  13.388 -0.4004 -0.1035 -0.2385
 8426TIP3    H146769   5.015   4.174  13.396  0.3776  0.4789 -2.5385
 8426TIP3    H246770   4.963   4.304  13.452 -1.0551 -1.9619  2.0185
 8427TIP3   OH246771   0.163   5.129  15.477  0.7055 -0.0042  0.3296
 8427TIP3    H146772   0.171   5.177  15.394 -1.3577 -0.7829 -0.3538
 8427TIP3    H246773   0.240   5.073  15.480  1.2494  0.6750 -0.6389
 8428TIP3   OH246774   0.376   4.315  13.829  0.0561 -0.2035 -0.2013
 8428TIP3    H146775   0.324   4.313  13.749  1.5146  1.9056 -1.2502
 8428TIP3    H246776   0.464   4.288  13.802  0.4521  0.0724  0.7742
 8429TIP3   OH246777   0.219   6.291  13.486 -0.2336  0.3986 -0.2257
 8429TIP3    H146778   0.257   6.378  13.476  0.3728  0.1536 -0.0855
 8429TIP3    H246779   0.125   6.305  13.484 -0.1403  1.1747  0.8201
 8430TIP3   OH246780   3.443   3.918  11.741  0.2135  0.4477 -0.3367
 8430TIP3    H146781   3.424   3.972  11.817 -1.2469  0.0796 -0.4071
 8430TIP3    H246782   3.507   3.967  11.691  2.1381  0.1165  1.7514
 8431TIP3   OH246783   0.461   6.257  11.063  0.4522 -0.3398  0.0790
 8431TIP3    H146784   0.545   6.235  11.024  0.7953  0.2113  0.4865
 8431TIP3    H246785   0.484   6.315  11.136 -0.3233  0.2842 -0.1703
 8432TIP3   OH246786   5.051   3.271  10.805 -0.5521  0.5070 -0.4672
 8432TIP3    H146787   5.021   3.221  10.729 -0.1715  2.1206 -1.7172
 8432TIP3    H246788   5.146   3.277  10.793 -0.5336  1.0499 -0.0301
 8433TIP3   OH246789   0.479   5.317   6.469  0.1518 -0.1017 -0.5930
 8433TIP3    H146790   0.536   5.271   6.407  0.4485  0.4863 -0.7660
 8433TIP3    H246791   0.483   5.409   6.441 -0.8435 -0.0511 -0.5733
 8434TIP3   OH246792   4.737   1.278   3.477 -0.5924 -0.6987 -0.2584
 8434TIP3    H146793   4.764   1.191   3.504  0.9842 -0.2520 -0.3525
 8434TIP3    H246794   4.785   1.337   3.535 -0.6089  0.1401 -1.0947
 8435TIP3   OH246795   4.663   5.246   0.338 -0.1289  0.2803  0.3976
 8435TIP3    H146796   4.579   5.198   0.335  0.3980 -0.6386 -0.0004
 8435TIP3    H246797   4.687   5.257   0.246  0.8048 -0.5700  0.5368
 8436TIP3   OH246798   5.385   3.518  13.951  0.0354 -0.6569  0.0307
 8436TIP3    H146799   5.456   3.518  13.887 -1.6068 -1.2715 -1.8146
 8436TIP3    H246800   5.366   3.425  13.965  0.6751 -0.5454  1.7623
 8437TIP3   OH246801   3.797   2.262  10.656 -0.0366  1.0238 -0.4802
 8437TIP3    H146802   3.717   2.313  10.646 -0.9181  0.2451  2.2287
 8437TIP3    H246803   3.772   2.186  10.708  2.0034 -0.3900 -1.4628
 8438TIP3   OH246804   3.678   0.869   2.362  0.4006  0.3596  0.5712
 8438TIP3    H146805   3.757   0.846   2.312  0.1041 -1.1068  0.7682
 8438TIP3    H246806   3.640   0.942   2.313  1.2358  0.3040 -0.1813
 8439TIP3   OH246807   6.019   5.376   3.249 -0.0163 -0.1255  0.4226
 8439TIP3    H146808   6.052   5.325   3.175 -1.5081 -0.7749  0.1969
 8439TIP3    H246809   6.019   5.466   3.217  2.8143  0.0760  0.8920
 8440TIP3   OH246810   4.336   6.163   6.389  0.2808 -0.4196  0.3803
 8440TIP3    H146811   4.275   6.158   6.462 -0.8724 -3.4450 -0.7279
 8440TIP3    H246812   4.359   6.072   6.370  0.5074  0.2635 -3.0604
 8441TIP3   OH246813   0.479   5.466  15.531  0.1015 -0.1042 -0.0511
 8441TIP3    H146814   0.467   5.396  15.467 -0.0835  0.9394 -1.1592
 8441TIP3    H246815   0.540   5.429  15.595  0.2583 -1.1680 -0.8049
 8442TIP3   OH246816   0.719   1.128   3.398  0.0342  0.1663  0.1687
 8442TIP3    H146817   0.801   1.124   3.349  0.4205  0.8848  0.7521
 8442TIP3    H246818   0.745   1.115   3.489 -0.2155  2.6477  0.6266
 8443TIP3   OH246819   4.524   2.706  13.070  0.0111 -0.5405  0.1526
 8443TIP3    H146820   4.589   2.719  13.002  1.3195  0.2044  1.5150
 8443TIP3    H246821   4.502   2.613  13.064  1.5544 -0.9110 -0.0366
 8444TIP3   OH246822   3.325   3.704  11.637 -0.6003  0.0895  0.2192
 8444TIP3    H146823   3.243   3.732  11.597 -0.0327  2.1523  0.4361
 8444TIP3    H246824   3.360   3.783  11.678  2.2181 -0.3849 -1.1195
 8445TIP3   OH246825   0.963   2.883   0.423  0.0071 -0.1130  0.2271
 8445TIP3    H146826   1.049   2.923   0.416  0.1179 -0.3674  0.1438
 8445TIP3    H246827   0.959   2.820   0.350 -0.0457 -0.4796  0.5457
 8446TIP3   OH246828   1.678   3.294   2.770 -0.2748 -0.2123 -0.0041
 8446TIP3    H146829   1.608   3.284   2.705  0.1823  0.4830 -0.6146
 8446TIP3    H246830   1.709   3.384   2.758  0.2781 -0.3038  0.7150
 8447TIP3   OH246831   5.514   6.368  17.247 -0.2228 -0.0845 -0.2105
 8447TIP3    H146832   5.451   6.314  17.294  0.8798 -0.8163  0.4320
 8447TIP3    H246833   5.501   6.345  17.155 -2.1979  1.1589 -0.2825
 8448TIP3   OH246834   6.493   6.629   3.542 -0.0533  0.3480 -0.5461
 8448TIP3    H146835   6.434   6.665   3.609 -1.8652 -0.2913 -1.7605
 8448TIP3    H246836   6.455   6.658   3.459  0.4946 -1.3363 -1.3934
 8449TIP3   OH246837   3.699   2.373  12.230 -0.1879 -1.6940  0.5076
 8449TIP3    H146838   3.606   2.355  12.233 -0.7853  1.1604  0.6652
 8449TIP3    H246839   3.726   2.351  12.141 -1.7023  0.4390 -0.5153
 8450TIP3   OH246840   1.592   2.236   0.478 -0.3309 -0.2409  0.3449
 8450TIP3    H146841   1.618   2.173   0.545 -0.5424  0.1244  0.7656
 8450TIP3    H246842   1.566   2.181   0.404  2.5776 -0.6387 -0.4812
 8451TIP3   OH246843   1.478   5.520   4.260  0.0357 -0.1485  0.6631
 8451TIP3    H146844   1.573   5.508   4.255  0.0169 -0.1464  0.2811
 8451TIP3    H246845   1.467   5.594   4.320  0.4337  1.9418 -1.7619
 8452TIP3   OH246846   1.915   1.357  11.788 -0.0407  0.0748  0.3930
 8452TIP3    H146847   1.857   1.388  11.857 -0.0208  2.0215 -0.4396
 8452TIP3    H246848   1.879   1.395  11.708  1.3975 -0.0854 -0.3468
 8453TIP3   OH246849   3.638   4.960  12.278 -0.0741  0.3926  0.6951
 8453TIP3    H146850   3.580   4.987  12.349  0.3107  1.3325  0.6578
 8453TIP3    H246851   3.602   5.002  12.200 -0.7692 -1.0152  0.2342
 8454TIP3   OH246852   4.899   2.352  14.118 -0.3093 -0.2738 -0.0288
 8454TIP3    H146853   4.962   2.283  14.096 -0.4835 -0.3734 -0.2191
 8454TIP3    H246854   4.952   2.421  14.156 -0.1033 -0.4214 -0.0463
 8455TIP3   OH246855   1.755   2.765  14.069  0.4281 -0.0984 -0.0665
 8455TIP3    H146856   1.729   2.682  14.109 -2.0389  0.7072  0.0401
 8455TIP3    H246857   1.773   2.823  14.143  0.6218 -0.0705 -0.1359
 8456TIP3   OH246858   6.295   1.853   1.278 -0.2686  0.5282  0.4810
 8456TIP3    H146859   6.254   1.769   1.260 -0.9169  1.1409 -1.0202
 8456TIP3    H246860   6.306   1.855   1.373 -2.0739 -0.4114  0.7268
 8457TIP3   OH246861   5.749   4.571  12.452 -0.3520  0.0543 -0.3982
 8457TIP3    H146862   5.666   4.565  12.404 -0.2008 -0.7058 -0.5620
 8457TIP3    H246863   5.760   4.485  12.492 -0.6603  0.8137  1.3243
 8458TIP3   OH246864   2.942   3.740   6.193  0.0973 -0.1514  0.1260
 8458TIP3    H146865   3.012   3.766   6.132  0.4251 -1.2648  0.0118
 8458TIP3    H246866   2.880   3.812   6.191 -0.1803 -0.4174 -1.9707
 8459TIP3   OH246867   4.453   3.533   1.379  0.2609 -0.3850  0.0034
 8459TIP3    H146868   4.544   3.507   1.368  0.1872 -1.0386  0.9177
 8459TIP3    H246869   4.457   3.622   1.412  0.5530 -0.1093 -0.7671
 8460TIP3   OH246870   4.849   1.980  12.429 -0.0927 -0.0468 -0.3256
 8460TIP3    H146871   4.857   1.933  12.512 -1.4195  0.4276  0.0785
 8460TIP3    H246872   4.926   2.038  12.428  0.5399 -0.8712  0.0366
 8461TIP3   OH246873   3.560   6.784   2.088 -0.4851  0.5032 -0.3427
 8461TIP3    H146874   3.641   6.736   2.071 -0.2507  0.5502  0.6482
 8461TIP3    H246875   3.533   6.757   2.175 -1.8936 -0.0067 -0.9189
 8462TIP3   OH246876   1.556   4.422  15.190  0.0962 -0.6396  0.2652
 8462TIP3    H146877   1.508   4.408  15.272  1.6373 -0.5751  1.2016
 8462TIP3    H246878   1.622   4.354  15.189  2.4458  1.5544  0.9004
 8463TIP3   OH246879   5.904   6.493  11.894 -0.2844 -0.0394 -0.1930
 8463TIP3    H146880   5.830   6.435  11.914  1.0858 -1.8718 -0.2634
 8463TIP3    H246881   5.907   6.496  11.798 -0.3884  0.1740 -0.1897
 8464TIP3   OH246882   4.174   2.297  14.245  0.1183 -0.3868  0.1084
 8464TIP3    H146883   4.208   2.272  14.330  0.4963 -1.6551 -0.4121
 8464TIP3    H246884   4.249   2.291  14.186  0.6004  3.4020  0.2074
 8465TIP3   OH246885   0.723   1.346  16.501 -0.2684  0.4691  0.7478
 8465TIP3    H146886   0.680   1.336  16.586 -0.6166  0.6537  0.5986
 8465TIP3    H246887   0.790   1.413  16.515  0.4243 -0.3025  1.1531
 8466TIP3   OH246888   4.255   4.365   2.129 -0.4737 -0.2406  0.0189
 8466TIP3    H146889   4.350   4.358   2.129 -0.6169 -2.6655  0.2676
 8466TIP3    H246890   4.237   4.445   2.080  1.7217  1.0698  1.2624
 8467TIP3   OH246891   0.838   2.731   1.733 -0.0237 -0.3296 -0.0457
 8467TIP3    H146892   0.889   2.739   1.652  0.7099 -1.0783  0.3394
 8467TIP3    H246893   0.872   2.799   1.791 -0.1436 -0.1850 -0.1427
 8468TIP3   OH246894   2.587   2.381   5.062 -0.2085  0.4881 -0.0120
 8468TIP3    H146895   2.631   2.456   5.101 -1.0572  1.4612 -0.9105
 8468TIP3    H246896   2.649   2.346   4.998  1.3923 -1.4038  2.4505
 8469TIP3   OH246897   6.227   3.587  16.009 -0.1859  0.7073  0.2662
 8469TIP3    H146898   6.239   3.527  16.082  0.1567  1.5083  0.8730
 8469TIP3    H246899   6.309   3.636  16.003 -0.4627  1.1250 -0.2100
 8470TIP3   OH246900   5.769   1.995   5.841 -0.5393 -0.7781 -0.2962
 8470TIP3    H146901   5.859   2.005   5.870 -0.5119  0.6548 -0.8294
 8470TIP3    H246902   5.723   2.071   5.877 -1.9955 -2.5387  1.6737
 8471TIP3   OH246903   3.509   4.069  15.749  0.0240  0.4668  0.8774
 8471TIP3    H146904   3.529   4.153  15.790  1.0874 -1.4727  4.5202
 8471TIP3    H246905   3.594   4.038  15.716  0.0126 -0.1248  1.4018
 8472TIP3   OH246906   6.079   3.839  16.586 -0.3936  0.1038 -0.1830
 8472TIP3    H146907   6.132   3.829  16.507  1.6678  1.5691  0.9813
 8472TIP3    H246908   6.142   3.830  16.658 -2.3249 -1.7672  1.3442
 8473TIP3   OH246909   5.448   2.331   5.674  0.4566 -0.3848  0.0468
 8473TIP3    H146910   5.428   2.288   5.757  0.7248  0.4817  0.5729
 8473TIP3    H246911   5.408   2.418   5.683 -0.1647 -0.5516 -1.0298
 8474TIP3   OH246912   3.162   2.378  12.731  0.2280  0.1239  0.1100
 8474TIP3    H146913   3.106   2.455  12.737  0.7960  0.6202 -0.7759
 8474TIP3    H246914   3.240   2.402  12.781  0.5281  0.2550 -0.4060
 8475TIP3   OH246915   4.236   0.242  14.526 -0.2995  0.1942 -0.2125
 8475TIP3    H146916   4.209   0.190  14.601 -0.2062  1.2266  0.5538
 8475TIP3    H246917   4.312   0.196  14.491  0.3486  0.3011  1.0097
 8476TIP3   OH246918   1.694   6.668  17.023  0.4858  0.2953 -0.3660
 8476TIP3    H146919   1.700   6.586  17.072 -0.9537 -0.8893 -2.1172
 8476TIP3    H246920   1.600   6.687  17.020  0.7274  1.4637 -0.8790
 8477TIP3   OH246921   2.070   2.593  17.255  0.3264  0.3155 -0.2708
 8477TIP3    H146922   2.122   2.528  17.304 -1.2865 -0.1187  0.9211
 8477TIP3    H246923   1.997   2.613  17.313  0.0375  2.1464 -1.2394
 8478TIP3   OH246924   1.126   6.453   2.822  0.5074  0.1665 -0.0190
 8478TIP3    H146925   1.209   6.458   2.774  0.2975  1.5228 -0.2677
 8478TIP3    H246926   1.087   6.370   2.795  1.4857 -0.1652 -0.4017
 8479TIP3   OH246927   0.650   2.508   1.458 -0.6459  0.0835 -0.1383
 8479TIP3    H146928   0.587   2.471   1.520 -1.2340  0.2725 -0.6185
 8479TIP3    H246929   0.599   2.571   1.407 -0.6143 -1.4210 -2.0754
 8480TIP3   OH246930   0.064   6.488  16.212  0.0931  0.3212 -0.8215
 8480TIP3    H146931   0.077   6.476  16.306 -0.2554  0.3515 -0.7689
 8480TIP3    H246932   0.134   6.549  16.187 -0.5990  1.3395 -0.3352
 8481TIP3   OH246933   1.280   5.914  10.524  0.0547 -0.2213  0.1730
 8481TIP3    H146934   1.336   5.990  10.512  0.4502 -0.3299  1.2910
 8481TIP3    H246935   1.191   5.950  10.531  0.1143  0.0431 -0.4645
 8482TIP3   OH246936   6.162   5.526   3.467  0.1430 -0.1743 -0.0032
 8482TIP3    H146937   6.255   5.505   3.459  0.8169  2.0746  1.7611
 8482TIP3    H246938   6.118   5.449   3.430  2.6724 -1.1797 -1.0666
 8483TIP3   OH246939   2.671   6.688  17.194 -0.4709  0.5636  0.4381
 8483TIP3    H146940   2.746   6.720  17.145 -0.8536  1.0396  0.1656
 8483TIP3    H246941   2.620   6.766  17.214 -2.0259  0.0118 -1.2665
 8484TIP3   OH246942   4.716   1.746   1.262 -0.7937 -0.4346  0.5000
 8484TIP3    H146943   4.807   1.720   1.277 -0.1843  0.5038 -1.4195
 8484TIP3    H246944   4.665   1.667   1.284  0.7262 -2.0653 -1.6061
 8485TIP3   OH246945   1.169   3.601  12.901  0.1749 -0.1076  1.2983
 8485TIP3    H146946   1.125   3.575  12.982  0.4835  0.5440  1.6780
 8485TIP3    H246947   1.262   3.589  12.919  0.2265 -0.2376  0.9424
 8486TIP3   OH246948   6.122   2.050  16.773  0.6111 -0.5135  0.4214
 8486TIP3    H146949   6.190   2.089  16.719  0.5300 -0.7134  0.1728
 8486TIP3    H246950   6.076   2.124  16.813  0.5182 -0.3597  0.0296
 8487TIP3   OH246951   2.941   3.563   3.195 -0.7426 -0.0575  0.5089
 8487TIP3    H146952   2.966   3.512   3.118  0.0983 -0.7162  1.2033
 8487TIP3    H246953   2.848   3.582   3.182 -0.6611 -0.3600 -0.5537
 8488TIP3   OH246954   1.850   1.683  15.122 -0.1084  0.0447 -0.8959
 8488TIP3    H146955   1.937   1.659  15.089  0.9121 -0.5222  1.9789
 8488TIP3    H246956   1.789   1.653  15.055  1.8120 -1.5559 -1.9858
 8489TIP3   OH246957   3.339   5.922  16.698 -0.0259  0.7006  0.2417
 8489TIP3    H146958   3.288   5.847  16.666 -0.7315  0.1824  2.5241
 8489TIP3    H246959   3.310   5.995  16.643 -0.2336 -0.4194 -1.1843
 8490TIP3   OH246960   3.067   4.255  11.109  0.1831 -0.3826  0.3510
 8490TIP3    H146961   3.114   4.283  11.030 -0.2741  0.6317  0.4354
 8490TIP3    H246962   2.990   4.210  11.075 -0.8957  1.5407  0.2066
 8491TIP3   OH246963   3.631   4.522  11.623 -0.1445  0.0510 -0.0925
 8491TIP3    H146964   3.679   4.537  11.704  1.0661  2.7142 -1.2242
 8491TIP3    H246965   3.551   4.477  11.650  1.4173 -1.4624  2.2282
 8492TIP3   OH246966   5.191   5.930   6.239  0.8430  0.0313 -0.6217
 8492TIP3    H146967   5.101   5.956   6.221  0.5861 -0.5667 -0.2091
 8492TIP3    H246968   5.222   5.992   6.305  0.6187 -0.0019 -0.4902
 8493TIP3   OH246969   3.922   5.912  12.562 -0.1422  0.3836 -0.0360
 8493TIP3    H146970   3.845   5.887  12.613  0.7389 -3.7873 -0.6002
 8493TIP3    H246971   3.996   5.890  12.618  0.7323 -0.7493 -1.6082
 8494TIP3   OH246972   3.469   6.380  11.182 -0.7760 -0.3066 -0.2307
 8494TIP3    H146973   3.484   6.409  11.092 -1.5306 -1.6823 -0.8252
 8494TIP3    H246974   3.507   6.449  11.236 -1.9133  1.4169 -1.5694
 8495TIP3   OH246975   4.608   4.206   6.368 -0.3743 -0.0185 -0.0488
 8495TIP3    H146976   4.692   4.218   6.324  0.4278 -0.9175  1.1909
 8495TIP3    H246977   4.628   4.218   6.461 -2.0046  1.6986  0.1027
 8496TIP3   OH246978   2.346   4.820   5.320  0.3190  0.4133  0.1086
 8496TIP3    H146979   2.272   4.857   5.273  0.0521  0.1625  0.3301
 8496TIP3    H246980   2.379   4.892   5.374  0.5821  0.6804 -0.4073
 8497TIP3   OH246981   1.739   2.285   2.425 -0.2319 -0.2258  0.2373
 8497TIP3    H146982   1.686   2.323   2.494 -0.0529 -1.5331  1.1206
 8497TIP3    H246983   1.753   2.194   2.452  0.0231 -0.7036 -1.4057
 8498TIP3   OH246984   3.948   4.625  13.424  0.3971  1.1297 -0.2316
 8498TIP3    H146985   4.032   4.617  13.468  0.0942  1.0133  0.3238
 8498TIP3    H246986   3.920   4.535  13.407  0.3712  1.1670 -0.3959
 8499TIP3   OH246987   2.089   6.253  10.898  0.1363  0.3410 -0.1778
 8499TIP3    H146988   2.076   6.325  10.959  0.2017 -0.3010  0.6019
 8499TIP3    H246989   2.101   6.295  10.813  0.4140  1.2564  0.3102
 8500TIP3   OH246990   4.932   2.885   0.259  0.0996  0.1551 -0.3195
 8500TIP3    H146991   4.994   2.882   0.186  1.7542 -2.3636  1.1069
 8500TIP3    H246992   4.979   2.928   0.330 -0.8917  1.0044 -0.1557
 8501TIP3   OH246993   2.782   5.763   0.580 -0.0410 -0.6257 -0.1042
 8501TIP3    H146994   2.727   5.822   0.529  0.0122  0.7577  1.4170
 8501TIP3    H246995   2.861   5.751   0.526  0.8634  2.3578  0.4911
 8502TIP3   OH246996   6.548   3.732   2.990 -0.1967  0.6391  0.5465
 8502TIP3    H146997   6.518   3.809   3.039  0.2524  1.8346 -1.0180
 8502TIP3    H246998   6.638   3.719   3.019  0.1316  1.4573 -0.0855
 8503TIP3   OH246999   2.215   2.148   2.033 -0.0721  0.1793  0.6337
 8503TIP3    H147000   2.288   2.193   2.075 -0.0771 -0.5141  1.3950
 8503TIP3    H247001   2.155   2.126   2.105 -0.6089 -0.0294  0.1271
 8504TIP3   OH247002   2.845   6.133  16.432  0.3495 -0.1218 -1.5821
 8504TIP3    H147003   2.754   6.104  16.432  1.1924 -2.8998 -2.2584
 8504TIP3    H247004   2.880   6.104  16.348  2.6067 -1.6675 -0.1789
 8505TIP3   OH247005   2.994   5.836  11.625  0.0534  0.0500 -0.3028
 8505TIP3    H147006   3.047   5.882  11.559  0.5287 -0.1640 -0.0696
 8505TIP3    H247007   2.911   5.820  11.581 -0.2982  1.5598 -0.2318
 8506TIP3   OH247008   4.305   3.325  16.971  0.2926  0.1545 -0.4931
 8506TIP3    H147009   4.342   3.241  16.998  0.1456  0.2970  0.1577
 8506TIP3    H247010   4.241   3.302  16.904 -1.5094 -0.4995  1.3948
 8507TIP3   OH247011   6.746   1.899  14.722 -0.6711  0.1022  0.1477
 8507TIP3    H147012   6.757   1.905  14.627 -0.2801  0.4345  0.2147
 8507TIP3    H247013   6.831   1.870  14.755 -1.0034 -0.6703  0.3364
 8508TIP3   OH247014   6.620   5.437  12.262  0.1935 -0.5503 -0.1162
 8508TIP3    H147015   6.688   5.504  12.256  0.1475 -0.5140 -0.2241
 8508TIP3    H247016   6.638   5.392  12.345 -1.5354  1.5499  1.4711
 8509TIP3   OH247017   1.259   2.438   3.775 -0.1967 -0.0250 -0.0898
 8509TIP3    H147018   1.295   2.410   3.859  0.6275 -2.0920 -1.0738
 8509TIP3    H247019   1.200   2.367   3.750  0.5403 -0.0425 -1.8403
 8510TIP3   OH247020   4.473   3.382   3.741 -0.2497  0.0769 -0.2576
 8510TIP3    H147021   4.549   3.430   3.774  0.0496 -0.3283 -0.3345
 8510TIP3    H247022   4.402   3.446   3.739 -0.1816  0.1917  0.8136
 8511TIP3   OH247023   0.427   1.124   7.008  0.4591 -0.1259  0.4241
 8511TIP3    H147024   0.392   1.202   7.052 -0.4524 -0.9131  1.1349
 8511TIP3    H247025   0.473   1.076   7.077  0.7435 -0.3714  0.0629
 8512TIP3   OH247026   6.128   5.497  16.360 -0.8654 -0.3052 -0.5837
 8512TIP3    H147027   6.215   5.533  16.342 -1.2429  0.4235 -0.9860
 8512TIP3    H247028   6.140   5.444  16.438  0.0863 -0.7560 -1.0227
 8513TIP3   OH247029   1.565   1.777  16.442 -0.2030 -0.4254 -0.2686
 8513TIP3    H147030   1.533   1.709  16.383 -0.3809  0.9659 -1.7979
 8513TIP3    H247031   1.653   1.798  16.410  0.3909 -0.8788  1.0241
 8514TIP3   OH247032   6.679   1.482  16.407 -0.2098  0.0922  0.5721
 8514TIP3    H147033   6.722   1.402  16.438  0.8444  0.7640  0.8800
 8514TIP3    H247034   6.638   1.457  16.325 -0.5507 -0.9710  1.0545
 8515TIP3   OH247035   0.184   4.180  14.457  0.3667 -0.3417  0.3669
 8515TIP3    H147036   0.212   4.227  14.379  0.4639 -2.8642 -1.1644
 8515TIP3    H247037   0.088   4.188  14.458  0.2705 -1.3017 -0.6817
 8516TIP3   OH247038   5.566   1.326  13.333  0.5557  0.5270 -0.0715
 8516TIP3    H147039   5.612   1.404  13.299 -0.3451  0.7885 -0.7164
 8516TIP3    H247040   5.622   1.294  13.403  1.1606  1.5122 -0.0891
 8517TIP3   OH247041   3.459   0.588   3.013 -0.4356 -0.0218  0.3468
 8517TIP3    H147042   3.405   0.664   2.992  0.4280  0.7368  0.8395
 8517TIP3    H247043   3.541   0.601   2.965  0.7352  0.6877  2.4521
 8518TIP3   OH247044   4.602   4.921   0.480  0.2812  0.4776  0.6810
 8518TIP3    H147045   4.622   4.843   0.532  2.0498  0.1512 -0.4581
 8518TIP3    H247046   4.526   4.960   0.524  1.4723 -0.0215  3.2657
 8519TIP3   OH247047   4.482   2.267  16.335 -0.2982  0.1985 -0.3012
 8519TIP3    H147048   4.462   2.257  16.241 -0.7884 -1.2690 -0.0519
 8519TIP3    H247049   4.438   2.193  16.377  1.2904 -0.1012  0.8923
 8520TIP3   OH247050   5.340   1.626   1.500 -0.2409 -0.8067 -0.6247
 8520TIP3    H147051   5.317   1.690   1.433 -1.2687 -1.4436 -0.8830
 8520TIP3    H247052   5.282   1.552   1.485 -1.9777 -0.1327  2.2307
 8521TIP3   OH247053   4.085   2.484   2.763  0.5080 -0.1183  0.3052
 8521TIP3    H147054   4.029   2.551   2.804 -0.6575 -1.0941  0.3549
 8521TIP3    H247055   4.138   2.450   2.835 -0.8658 -1.1697  0.8350
 8522TIP3   OH247056   0.652   3.825  10.797 -0.6289 -0.3648 -0.4482
 8522TIP3    H147057   0.690   3.905  10.759 -0.6944 -0.4854 -0.7667
 8522TIP3    H247058   0.590   3.794  10.731  0.7442 -1.7017 -1.1502
 8523TIP3   OH247059   3.120   2.181   4.440  0.1640 -0.0055  0.7115
 8523TIP3    H147060   3.073   2.223   4.368  0.5414 -1.2322 -0.2712
 8523TIP3    H247061   3.195   2.239   4.455  0.5324 -0.1584 -0.4402
 8524TIP3   OH247062   4.557   6.504  11.821 -0.3798  0.2585 -0.8626
 8524TIP3    H147063   4.473   6.470  11.852 -0.1790 -0.7128 -1.3651
 8524TIP3    H247064   4.613   6.426  11.814  1.4391  1.1784  2.1244
 8525TIP3   OH247065   6.740   5.516   1.771 -0.4472  0.2459 -0.1272
 8525TIP3    H147066   6.673   5.467   1.818 -1.0836  2.0025  0.8231
 8525TIP3    H247067   6.823   5.485   1.808 -0.7888 -0.8013 -0.2234
 8526TIP3   OH247068   0.771   0.534   5.328  0.1692  0.3522  0.7061
 8526TIP3    H147069   0.816   0.500   5.406  0.6798 -0.5374  0.0317
 8526TIP3    H247070   0.825   0.505   5.255  0.4155  2.3337  0.0872
 8527TIP3   OH247071   5.717   3.761  17.203  0.0696 -0.1974 -0.1297
 8527TIP3    H147072   5.641   3.712  17.172 -0.6811 -0.1415  1.6176
 8527TIP3    H247073   5.777   3.693  17.236  0.2006 -0.1315 -0.2307
 8528TIP3   OH247074   0.813   5.639  15.569  0.1853 -0.2817 -0.3308
 8528TIP3    H147075   0.734   5.689  15.585  0.0373 -0.7380  0.3538
 8528TIP3    H247076   0.790   5.549  15.592  1.2232 -0.2383  0.9252
 8529TIP3   OH247077   3.618   5.513   1.521  0.2420  0.1969 -0.7116
 8529TIP3    H147078   3.611   5.544   1.611 -1.1336 -1.6160 -0.1670
 8529TIP3    H247079   3.692   5.452   1.522 -0.6319 -0.8561 -0.5085
 8530TIP3   OH247080   5.783   3.837  14.692  0.6330  0.3738  0.5304
 8530TIP3    H147081   5.786   3.841  14.788 -1.5915 -0.8430  0.6699
 8530TIP3    H247082   5.690   3.840  14.671  1.1438  1.6168 -1.6680
 8531TIP3   OH247083   2.179   0.361   1.253  0.3667 -0.4189  0.7530
 8531TIP3    H147084   2.154   0.280   1.207 -0.3526  0.8376 -1.1475
 8531TIP3    H247085   2.270   0.376   1.227 -0.2631  0.6716 -0.8505
 8532TIP3   OH247086   3.897   0.936  13.708  0.0319 -0.3109  0.2471
 8532TIP3    H147087   3.857   1.012  13.750 -0.4405 -0.4483  0.0581
 8532TIP3    H247088   3.938   0.888  13.779 -0.8097 -0.5689  0.5663
 8533TIP3   OH247089   3.958   6.335  16.128 -0.0775  0.3657 -0.5378
 8533TIP3    H147090   3.978   6.351  16.220  3.4388 -2.8338 -0.5954
 8533TIP3    H247091   3.878   6.283  16.130  0.8236 -1.0131  0.8392
 8534TIP3   OH247092   5.978   4.374   0.163  0.0332 -0.7100 -0.2505
 8534TIP3    H147093   5.923   4.438   0.209  1.3342 -0.7425  1.3792
 8534TIP3    H247094   5.916   4.307   0.132 -0.9576 -0.2381  0.6944
 8535TIP3   OH247095   1.197   4.144  14.945 -0.4234 -0.1771  0.3294
 8535TIP3    H147096   1.120   4.199  14.932 -0.5216 -0.3341  0.2464
 8535TIP3    H247097   1.267   4.206  14.967 -0.6714 -0.0756  0.8235
 8536TIP3   OH247098   2.463   1.569   5.628  0.1232 -0.0193 -0.0309
 8536TIP3    H147099   2.416   1.509   5.569  1.7313 -0.6381 -0.7147
 8536TIP3    H247100   2.473   1.650   5.578 -1.1275  0.4822  0.5084
 8537TIP3   OH247101   1.207   1.417   5.164 -0.0566 -0.7764  0.2841
 8537TIP3    H147102   1.262   1.343   5.187  1.3084 -0.0119 -0.5028
 8537TIP3    H247103   1.267   1.485   5.134 -1.3688  0.2466 -0.1308
 8538TIP3   OH247104   5.532   4.200   5.108  0.0292  0.0728  0.1011
 8538TIP3    H147105   5.444   4.211   5.145 -1.1354 -2.3031 -1.8383
 8538TIP3    H247106   5.532   4.253   5.029 -0.0670 -0.9052 -0.5528
 8539TIP3   OH247107   4.917   6.271   2.064  0.3704 -0.0845  0.1647
 8539TIP3    H147108   4.999   6.306   2.098 -0.8105  2.4277  0.5374
 8539TIP3    H247109   4.892   6.333   1.995 -2.2826  0.3912  1.5074
 8540TIP3   OH247110   2.071   4.467  14.796  0.1712 -0.1303 -0.2028
 8540TIP3    H147111   2.147   4.427  14.838  1.2238  1.1054 -0.8889
 8540TIP3    H247112   2.002   4.464  14.862  0.9849 -0.7282  0.6277
 8541TIP3   OH247113   4.686   4.533   6.032  0.3768 -0.0322 -0.0540
 8541TIP3    H147114   4.719   4.563   5.948  0.7763 -2.2750 -0.7424
 8541TIP3    H247115   4.619   4.468   6.010 -1.6420  1.5090  1.3539
 8542TIP3   OH247116   1.403   3.802  17.182  0.3286 -0.1752  0.7646
 8542TIP3    H147117   1.483   3.840  17.147  0.2514 -1.1677 -0.5053
 8542TIP3    H247118   1.407   3.820  17.276 -0.5642  4.6463  0.0505
 8543TIP3   OH247119   1.862   1.764   0.989 -0.1887 -0.0050  0.2414
 8543TIP3    H147120   1.955   1.782   0.974 -0.2597  0.6212  0.5168
 8543TIP3    H247121   1.860   1.673   1.018  0.3615  0.0406  0.4361
 8544TIP3   OH247122   6.639   2.642   3.831 -0.2168  0.1753 -0.0553
 8544TIP3    H147123   6.575   2.658   3.761  0.3777  0.3564 -0.5599
 8544TIP3    H247124   6.720   2.621   3.785  0.0440 -0.2433  0.5852
 8545TIP3   OH247125   6.216   1.031  10.765 -0.0342 -0.0934 -0.1917
 8545TIP3    H147126   6.248   1.118  10.788 -0.7546  0.2851 -0.5984
 8545TIP3    H247127   6.288   0.991  10.716 -0.1450  0.7298 -1.0534
 8546TIP3   OH247128   2.665   5.117  16.188 -0.2296  0.3629  0.4666
 8546TIP3    H147129   2.724   5.043  16.206  1.1178  0.8705 -1.6800
 8546TIP3    H247130   2.680   5.177  16.261 -1.5114 -1.5400  2.3815
 8547TIP3   OH247131   2.400   5.037   4.192 -0.1392  0.3264 -0.3445
 8547TIP3    H147132   2.428   5.045   4.284  0.0722  0.0649 -0.3857
 8547TIP3    H247133   2.311   5.003   4.197 -0.1708  0.4218 -0.2341
 8548TIP3   OH247134   3.120   0.290   3.499  0.6211  0.2768 -0.2439
 8548TIP3    H147135   3.187   0.351   3.468  0.5047  0.8910  0.6905
 8548TIP3    H247136   3.168   0.230   3.557  1.1757 -1.9325 -2.8890
 8549TIP3   OH247137   2.225   1.949  16.357 -0.1232 -0.0886  0.2425
 8549TIP3    H147138   2.237   1.895  16.279 -0.9793  0.7472 -0.4844
 8549TIP3    H247139   2.307   1.940  16.405  0.5326 -0.3822 -0.9063
 8550TIP3   OH247140   3.962   6.757   6.197 -0.2467 -0.0014 -0.0987
 8550TIP3    H147141   3.992   6.819   6.263 -2.0399 -0.2156  0.9731
 8550TIP3    H247142   3.886   6.715   6.238 -0.8414 -0.7743 -1.9639
 8551TIP3   OH247143   0.962   6.075  14.442  0.0921  0.1127  0.0891
 8551TIP3    H147144   0.871   6.103  14.441  0.2312  0.5685 -2.6465
 8551TIP3    H247145   0.959   5.980  14.446 -0.4937  0.1567  0.6285
 8552TIP3   OH247146   4.221   4.907   5.345 -0.1062  0.2233  0.1681
 8552TIP3    H147147   4.192   4.969   5.279 -0.7504 -1.4572 -1.1695
 8552TIP3    H247148   4.145   4.852   5.362  1.1777 -1.8525 -0.6065
 8553TIP3   OH247149   5.163   5.060  12.576 -0.0890 -0.9840 -0.1553
 8553TIP3    H147150   5.129   5.012  12.652 -0.4645  2.0592  1.6913
 8553TIP3    H247151   5.240   5.105  12.610  0.9254 -1.1895 -2.1571
 8554TIP3   OH247152   2.389   2.308  11.218  0.0991  0.4114  0.1463
 8554TIP3    H147153   2.421   2.398  11.209  0.5092  0.0546 -2.2814
 8554TIP3    H247154   2.345   2.289  11.135 -0.7495 -1.3375  0.9611
 8555TIP3   OH247155   5.036   6.416   6.733  0.6195  0.4383 -0.1297
 8555TIP3    H147156   5.010   6.340   6.681 -0.9660 -0.4535  1.9141
 8555TIP3    H247157   5.114   6.450   6.689  1.0753 -2.1004 -1.3394
 8556TIP3   OH247158   4.423   3.188   2.513 -0.0104 -0.2335  0.3479
 8556TIP3    H147159   4.399   3.250   2.444  1.1299  0.0325  0.1943
 8556TIP3    H247160   4.378   3.221   2.591  0.4210  0.6612  0.2169
 8557TIP3   OH247161   3.816   6.127  11.570  0.4451  0.5881  0.4111
 8557TIP3    H147162   3.777   6.070  11.505  2.1939  0.7791 -0.8270
 8557TIP3    H247163   3.834   6.209  11.523  1.6825  0.7387  1.1414
 8558TIP3   OH247164   4.967   1.298   3.737  0.3052  0.5860 -0.3300
 8558TIP3    H147165   5.019   1.278   3.815 -1.6776  0.5202  1.0229
 8558TIP3    H247166   5.027   1.346   3.680  2.2771 -0.8112  0.5077
 8559TIP3   OH247167   3.368   6.809   2.413 -0.4683  0.2384  0.1845
 8559TIP3    H147168   3.372   6.717   2.438 -1.7799  0.4932  1.3512
 8559TIP3    H247169   3.329   6.809   2.325  0.5727 -0.3732 -0.2934
 8560TIP3   OH247170   2.116   6.399   3.989 -0.6546 -0.2775 -0.1487
 8560TIP3    H147171   2.061   6.344   4.045  0.0367 -0.6861  0.1348
 8560TIP3    H247172   2.062   6.475   3.970 -1.0966 -0.3896  0.6249
 8561TIP3   OH247173   3.303   0.006  11.630  0.1796 -0.3032  0.2573
 8561TIP3    H147174   3.356   0.071  11.676  0.8980  0.5455 -1.6728
 8561TIP3    H247175   3.344  -0.078  11.651  0.0564 -0.0068  1.7059
 8562TIP3   OH247176   6.149   0.622   3.514 -0.0848  0.5232 -0.2801
 8562TIP3    H147177   6.120   0.666   3.434  0.5735  1.9995  0.2682
 8562TIP3    H247178   6.101   0.666   3.584 -0.9447 -1.0180  0.1097
 8563TIP3   OH247179   0.776   1.728  14.236 -0.5607  0.0425 -0.0114
 8563TIP3    H147180   0.864   1.691  14.243 -0.7654 -0.7644 -1.6336
 8563TIP3    H247181   0.761   1.769  14.322  2.3306  2.2997 -0.4858
 8564TIP3   OH247182   1.516   5.119   1.061 -0.5909 -0.0121 -0.0104
 8564TIP3    H147183   1.432   5.080   1.035 -0.9016  0.7059 -0.0856
 8564TIP3    H247184   1.530   5.089   1.151 -0.7669 -0.4005 -0.1124
 8565TIP3   OH247185   1.462   3.227   2.579  0.2883 -0.5072  0.0508
 8565TIP3    H147186   1.499   3.156   2.527  2.9416  0.0075  1.1232
 8565TIP3    H247187   1.417   3.183   2.651  1.1831 -1.1283  0.2364
 8566TIP3   OH247188   6.470   5.636  14.094  0.5930 -0.5036  0.1986
 8566TIP3    H147189   6.472   5.711  14.034  0.0710 -0.5958  0.0631
 8566TIP3    H247190   6.558   5.599  14.089  1.3517  1.0645  1.5037
 8567TIP3   OH247191   1.118   4.939  10.597  0.4023  0.2688  0.7339
 8567TIP3    H147192   1.041   4.894  10.562  1.0414 -0.7601  0.6568
 8567TIP3    H247193   1.114   5.027  10.558 -1.1504  0.4842  1.3171
 8568TIP3   OH247194   3.653   3.332  13.484  0.0507 -0.4945  0.0488
 8568TIP3    H147195   3.567   3.289  13.479 -0.1990  0.0840 -0.8091
 8568TIP3    H247196   3.636   3.422  13.455  0.8353 -0.2084  0.4711
 8569TIP3   OH247197   6.232   0.651   2.071  0.0973  0.6735 -0.2652
 8569TIP3    H147198   6.147   0.693   2.082  0.1832  0.8692 -0.3272
 8569TIP3    H247199   6.275   0.702   2.002 -0.2136 -0.1806 -1.1007
 8570TIP3   OH247200   4.005   1.047   2.511 -0.5211  0.0386  0.0841
 8570TIP3    H147201   4.091   1.085   2.490 -0.1998 -0.4664  0.4840
 8570TIP3    H247202   3.956   1.053   2.429  0.1540 -0.3623 -0.3568
 8571TIP3   OH247203   2.156   5.054   3.059 -0.6921  0.2409  0.6842
 8571TIP3    H147204   2.114   5.052   2.973 -1.1215  0.9848  0.8783
 8571TIP3    H247205   2.106   4.992   3.112 -0.1007 -0.6170  0.2498
 8572TIP3   OH247206   0.037   6.667   4.656  0.3392  0.0545 -1.0062
 8572TIP3    H147207  -0.040   6.628   4.615  0.3216  0.0803 -0.9981
 8572TIP3    H247208   0.048   6.618   4.738 -0.1902  0.6270 -0.5806
 8573TIP3   OH247209   0.223   3.384  12.912  0.2361  0.5378  0.0054
 8573TIP3    H147210   0.229   3.473  12.877 -1.5274  0.5649 -0.2555
 8573TIP3    H247211   0.252   3.393  13.003  0.8603  1.2134 -0.2517
 8574TIP3   OH247212   1.766   6.409  13.160  0.4854  0.0279 -0.2249
 8574TIP3    H147213   1.719   6.363  13.090  0.4757 -1.1298  0.5242
 8574TIP3    H247214   1.716   6.389  13.239  0.3040  1.6035  0.0854
 8575TIP3   OH247215   6.315   6.116   2.865 -0.0066  0.3451 -0.4766
 8575TIP3    H147216   6.341   6.200   2.827 -2.2600  3.1560  3.8035
 8575TIP3    H247217   6.377   6.101   2.937 -0.2372 -1.1393 -0.5587
 8576TIP3   OH247218   2.604   3.864  14.250 -0.2284 -0.5672  0.3863
 8576TIP3    H147219   2.656   3.935  14.288  0.8560 -1.6413  0.9419
 8576TIP3    H247220   2.527   3.908  14.213 -0.2069  0.7601  1.8449
 8577TIP3   OH247221   4.658   4.220   6.635  0.3184 -0.4737  0.2873
 8577TIP3    H147222   4.627   4.130   6.628  2.5879 -1.1480 -2.0660
 8577TIP3    H247223   4.749   4.212   6.663  0.2437  1.1455  1.0442
 8578TIP3   OH247224   5.172   0.037   1.504 -0.0714 -0.1718 -0.4992
 8578TIP3    H147225   5.202   0.124   1.480  0.3429 -0.3398 -0.5913
 8578TIP3    H247226   5.177   0.035   1.600  1.4482 -0.6391 -0.5758
 8579TIP3   OH247227   1.051   2.737   3.910 -0.2254 -0.1063 -0.0040
 8579TIP3    H147228   1.097   2.689   3.979  0.4162  0.6363  0.0871
 8579TIP3    H247229   1.115   2.801   3.878 -1.0190  0.5854 -0.2315
 8580TIP3   OH247230   5.387   0.503  15.406 -0.0120  0.5067 -0.3952
 8580TIP3    H147231   5.305   0.460  15.382  0.3006 -0.4712  0.2566
 8580TIP3    H247232   5.369   0.596  15.397 -1.7777  0.3755  1.5791
 8581TIP3   OH247233   5.492   1.039   3.456  0.2226  0.2299  0.4824
 8581TIP3    H147234   5.453   0.976   3.517 -0.5176  0.9600  0.7698
 8581TIP3    H247235   5.502   0.990   3.374 -2.0296  0.2493  0.1746
 8582TIP3   OH247236   4.739   6.261  14.533  0.4731  0.0610 -0.2114
 8582TIP3    H147237   4.696   6.282  14.451  0.8286 -0.8014 -0.6232
 8582TIP3    H247238   4.670   6.224  14.588  0.8300 -2.1215 -1.1718
 8583TIP3   OH247239   5.533   4.598  12.288  0.5244 -0.4586 -0.4710
 8583TIP3    H147240   5.543   4.598  12.193 -0.9071 -2.3010 -0.6469
 8583TIP3    H247241   5.504   4.686  12.310  4.3290  1.1046 -1.3191
 8584TIP3   OH247242   0.715   4.633  15.099 -0.3639 -0.7362  0.2724
 8584TIP3    H147243   0.678   4.561  15.151  1.0225  0.0273  2.3405
 8584TIP3    H247244   0.645   4.698  15.095 -0.2006 -0.4530  1.8861
 8585TIP3   OH247245   6.644   6.359   0.290 -0.2529 -0.3173 -0.7376
 8585TIP3    H147246   6.616   6.274   0.256 -0.3934 -0.1859 -0.9504
 8585TIP3    H247247   6.682   6.339   0.376 -0.8481 -0.5168 -0.5192
 8586TIP3   OH247248   2.636   2.415   0.553 -0.1522 -0.5031 -0.0768
 8586TIP3    H147249   2.603   2.460   0.631  0.1126 -0.4884  0.0267
 8586TIP3    H247250   2.728   2.397   0.573  0.4047  1.0810 -1.0681
 8587TIP3   OH247251   0.651   5.960  14.198  0.1921  0.4130 -0.1400
 8587TIP3    H147252   0.631   5.895  14.131 -0.7308  0.6290 -0.0830
 8587TIP3    H247253   0.730   6.004  14.166  0.0878  0.1298 -0.7977
 8588TIP3   OH247254   5.992   0.654   0.162  0.1883  0.4525  0.7436
 8588TIP3    H147255   6.004   0.741   0.125 -1.8406  0.2475 -0.5023
 8588TIP3    H247256   5.897   0.647   0.178  0.4253 -1.2070  1.6329
 8589TIP3   OH247257   5.646   2.320  15.760 -0.7766 -0.1068  0.2062
 8589TIP3    H147258   5.670   2.335  15.851  3.0252 -0.2200 -0.7075
 8589TIP3    H247259   5.569   2.263  15.764 -1.4002  0.9017  3.3292
 8590TIP3   OH247260   0.980   0.462  11.255 -0.3614  0.2635 -0.1099
 8590TIP3    H147261   0.984   0.531  11.188 -0.1868 -1.7174 -2.1770
 8590TIP3    H247262   0.944   0.386  11.210 -0.7577 -0.9653  2.2067
 8591TIP3   OH247263   0.655   0.882   5.526  0.1400 -0.0404  0.4985
 8591TIP3    H147264   0.637   0.789   5.545  0.2113  0.1016  1.2728
 8591TIP3    H247265   0.741   0.882   5.486 -0.3142 -0.4229 -0.4809
 8592TIP3   OH247266   4.848   6.176  11.288  0.3653  0.1354  0.1336
 8592TIP3    H147267   4.940   6.151  11.294  0.1085 -0.8125  0.1972
 8592TIP3    H247268   4.819   6.142  11.203  0.3108  1.2304 -0.2942
 8593TIP3   OH247269   4.219   3.504  13.749  0.8380  0.0369 -0.4479
 8593TIP3    H147270   4.270   3.427  13.726 -0.0941 -0.4503 -0.9021
 8593TIP3    H247271   4.233   3.516  13.843  1.2387 -0.5010 -0.4414
 8594TIP3   OH247272   0.921   6.772   4.006  0.6516 -0.0036 -0.1348
 8594TIP3    H147273   0.892   6.692   3.963  0.2754 -0.6830  1.3325
 8594TIP3    H247274   0.911   6.754   4.100  3.4001  0.6410  0.3560
 8595TIP3   OH247275   5.811   0.781   5.355 -0.3012  0.7753 -0.2026
 8595TIP3    H147276   5.892   0.732   5.346 -1.0268 -0.7297  1.2601
 8595TIP3    H247277   5.800   0.793   5.449 -1.3172  1.7243 -0.4309
 8596TIP3   OH247278   4.679   1.184   5.516  0.6157 -0.3810  0.1511
 8596TIP3    H147279   4.604   1.126   5.531 -0.0573  0.5239  0.3940
 8596TIP3    H247280   4.697   1.221   5.603  2.3361 -1.7458  0.3963
 8597TIP3   OH247281   5.535   2.019   3.634  0.7169 -0.4461 -0.0285
 8597TIP3    H147282   5.470   2.089   3.633  1.8579  0.6400 -1.4041
 8597TIP3    H247283   5.614   2.061   3.668  1.2821 -1.1680 -0.4325
 8598TIP3   OH247284   6.652   3.384   5.233 -0.6523  0.7426 -0.5287
 8598TIP3    H147285   6.676   3.471   5.263  4.8316 -0.0151 -2.0338
 8598TIP3    H247286   6.621   3.396   5.144  1.4938  1.0800 -1.2551
 8599TIP3   OH247287   6.407   0.819   1.895  0.4300  0.5165 -1.3282
 8599TIP3    H147288   6.424   0.736   1.850  0.5103 -0.6706  0.8278
 8599TIP3    H247289   6.494   0.854   1.914  0.4784 -0.7098  0.9361
 8600TIP3   OH247290   1.139   3.406   1.571 -0.0995  0.4442 -0.5275
 8600TIP3    H147291   1.048   3.405   1.541 -0.2123  0.4559 -0.1779
 8600TIP3    H247292   1.145   3.485   1.624 -0.4047 -0.6339  1.1306
 8601TIP3   OH247293   6.291   0.454  13.587  0.1303  0.5235  0.0706
 8601TIP3    H147294   6.275   0.404  13.507 -0.6918  0.8957  0.0038
 8601TIP3    H247295   6.339   0.393  13.643  1.1476  0.4226 -0.8879
 8602TIP3   OH247296   6.345   6.692  15.704  0.4876 -0.6235 -0.2396
 8602TIP3    H147297   6.329   6.754  15.632  2.0912 -0.9409 -0.8809
 8602TIP3    H247298   6.382   6.615  15.661  0.6768 -1.1411  0.8448
 8603TIP3   OH247299   2.983   4.501   1.947 -0.0542 -0.0770 -0.1632
 8603TIP3    H147300   2.921   4.518   2.017  0.7068  2.9257 -0.1536
 8603TIP3    H247301   3.060   4.554   1.969  1.4775 -1.6292 -1.5665
 8604TIP3   OH247302   5.292   5.583  12.905 -0.3434 -0.7668 -0.9023
 8604TIP3    H147303   5.215   5.640  12.909 -1.6876 -2.5608 -0.7124
 8604TIP3    H247304   5.333   5.594  12.991 -0.6396 -0.1691 -0.8265
 8605TIP3   OH247305   0.415   3.947  15.927  0.8188 -0.6780 -0.6655
 8605TIP3    H147306   0.352   4.015  15.949  1.3848  0.0187 -1.2068
 8605TIP3    H247307   0.423   3.895  16.008  0.1875 -0.2713 -0.3392
 8606TIP3   OH247308   1.285   3.944   4.171  0.7581 -0.3180  0.1135
 8606TIP3    H147309   1.270   3.863   4.220  2.0546 -1.0897 -0.7379
 8606TIP3    H247310   1.197   3.977   4.151  0.2248 -0.9669  1.3509
 8607TIP3   OH247311   2.013   1.202   4.996  0.0843 -0.3273 -0.1429
 8607TIP3    H147312   2.011   1.234   4.905 -0.2337  0.8894  0.2787
 8607TIP3    H247313   1.952   1.128   4.996  1.9731 -1.9244 -1.4839
 8608TIP3   OH247314   1.830   5.568   0.624  0.0514  1.0501 -0.2059
 8608TIP3    H147315   1.757   5.626   0.646  1.2484  1.6777  2.2397
 8608TIP3    H247316   1.901   5.627   0.600  0.1875  0.4775 -1.2300
 8609TIP3   OH247317   0.328   3.929  14.476  0.8021  0.3939  0.0859
 8609TIP3    H147318   0.317   4.020  14.451  0.3573  0.4834  0.6121
 8609TIP3    H247319   0.243   3.889  14.458  0.2026  0.6545  2.3019
 8610TIP3   OH247320   2.560   3.200  15.535  0.0361  0.0344  0.3717
 8610TIP3    H147321   2.607   3.283  15.536  0.8571 -0.4247  1.1397
 8610TIP3    H247322   2.620   3.138  15.576 -0.5702 -0.9385 -0.1743
 8611TIP3   OH247323   1.109   3.536   1.122 -0.3935 -0.1671 -0.2823
 8611TIP3    H147324   1.155   3.610   1.081  0.8493  0.0655  1.4856
 8611TIP3    H247325   1.147   3.530   1.210 -0.5711 -2.8279 -0.3418
 8612TIP3   OH247326   0.575   3.067   4.942 -0.4133 -0.3203  0.8063
 8612TIP3    H147327   0.499   3.009   4.950 -0.5241 -0.5867 -1.6926
 8612TIP3    H247328   0.538   3.150   4.913 -0.1530  0.8068  3.5000
 8613TIP3   OH247329   4.427   2.092   4.308 -0.0988 -0.2306 -0.1238
 8613TIP3    H147330   4.510   2.098   4.261 -0.4280  0.8060 -0.6078
 8613TIP3    H247331   4.414   1.998   4.323  0.3283 -0.5421 -1.5704
 8614TIP3   OH247332   4.441   4.540  16.639  0.1708  0.9126 -0.2699
 8614TIP3    H147333   4.429   4.494  16.556 -0.8057 -0.7120  0.7519
 8614TIP3    H247334   4.372   4.506  16.696 -1.0459  4.1825  0.3194
 8615TIP3   OH247335   2.362   0.605  11.981 -0.2937 -0.3191 -0.3949
 8615TIP3    H147336   2.282   0.553  11.974  0.6097 -1.5176 -2.2295
 8615TIP3    H247337   2.428   0.543  12.013  0.5595 -0.0881 -1.6686
 8616TIP3   OH247338   1.747   6.173  17.007 -1.1085  0.3714  0.4980
 8616TIP3    H147339   1.750   6.266  17.031 -1.2905  0.2949  0.8115
 8616TIP3    H247340   1.784   6.170  16.918 -0.9657  0.7236  0.5458
 8617TIP3   OH247341   0.807   2.169  13.771  0.3911 -0.1407  0.2105
 8617TIP3    H147342   0.770   2.236  13.714  0.3540  0.6725  1.1830
 8617TIP3    H247343   0.847   2.106  13.711  0.4315  0.7465 -0.7081
 8618TIP3   OH247344   1.076   4.899   1.979 -0.0489  0.0382 -0.4026
 8618TIP3    H147345   1.064   4.959   2.053  2.5314 -1.7586  1.5872
 8618TIP3    H247346   1.171   4.900   1.964 -0.1142 -2.5573 -1.1387
 8619TIP3   OH247347   6.787   3.536   2.603 -0.3234 -0.1871  0.2332
 8619TIP3    H147348   6.720   3.605   2.605 -1.4689 -1.3057  0.7348
 8619TIP3    H247349   6.821   3.539   2.513  0.4200  1.7639  0.5540
 8620TIP3   OH247350   6.799   6.472  12.867  0.2424  0.4104  0.3657
 8620TIP3    H147351   6.786   6.489  12.961  0.8049  0.8265  0.3687
 8620TIP3    H247352   6.711   6.451  12.835  0.4243 -2.3092  1.4913
 8621TIP3   OH247353   3.495   2.946  11.206  0.3653 -0.5021 -0.9127
 8621TIP3    H147354   3.507   3.041  11.208  0.6996 -0.5618 -0.0037
 8621TIP3    H247355   3.528   2.915  11.290 -1.7504 -1.1912 -0.3074
 8622TIP3   OH247356   0.590   4.879   5.691 -0.0085  0.0377 -0.1072
 8622TIP3    H147357   0.647   4.950   5.664  0.8106 -0.1989  0.9744
 8622TIP3    H247358   0.638   4.799   5.669  0.0547 -0.1626  0.7369
 8623TIP3   OH247359   1.591   3.750   5.899  0.0443  0.5289 -0.2435
 8623TIP3    H147360   1.552   3.728   5.983 -0.5452  1.0255 -0.3792
 8623TIP3    H247361   1.664   3.807   5.921  0.0862  0.3985 -0.0463
 8624TIP3   OH247362   6.749   2.910  13.937 -0.6267 -0.6535  0.0133
 8624TIP3    H147363   6.782   2.909  13.847  2.0949  0.5759  0.9692
 8624TIP3    H247364   6.800   2.842  13.982 -0.7063 -0.0418  1.0468
 8625TIP3   OH247365   0.416   4.386  16.114  0.5232  0.1722  0.2836
 8625TIP3    H147366   0.448   4.364  16.201 -0.8068 -1.3865  0.4099
 8625TIP3    H247367   0.495   4.397  16.061  1.3040 -1.3273  1.1055
 8626TIP3   OH247368   2.068   5.566   4.639  0.3299  0.2200 -0.1811
 8626TIP3    H147369   2.072   5.661   4.643 -1.3246  0.3532 -1.2711
 8626TIP3    H247370   1.985   5.547   4.595  0.0479 -1.7505  1.1323
 8627TIP3   OH247371   2.649   1.368   0.152  0.1679  0.6023 -0.2047
 8627TIP3    H147372   2.643   1.378   0.057  1.7188  1.6106 -0.1983
 8627TIP3    H247373   2.654   1.458   0.185 -0.2484  0.2472  0.8356
 8628TIP3   OH247374   5.000   0.998   4.365 -0.3564 -0.2417  0.6562
 8628TIP3    H147375   4.979   1.087   4.394  0.1316 -0.1362  0.6969
 8628TIP3    H247376   5.071   1.010   4.301  0.2226 -0.6565  1.2185
 8629TIP3   OH247377   4.228   1.400  14.571  0.3494 -0.1894 -0.5995
 8629TIP3    H147378   4.316   1.381  14.603  1.0601  1.3041 -1.5759
 8629TIP3    H247379   4.242   1.457  14.496 -1.5301  1.6038  0.3627
 8630TIP3   OH247380   2.463   2.192  16.553 -0.1558 -0.4080 -0.4849
 8630TIP3    H147381   2.457   2.249  16.631 -1.7629 -0.1020 -0.7966
 8630TIP3    H247382   2.546   2.147  16.562 -0.5197 -0.7103  1.6743
 8631TIP3   OH247383   5.547   1.774   1.060 -0.1416  0.5142  0.5992
 8631TIP3    H147384   5.539   1.684   1.030 -2.7871  0.6988  0.6396
 8631TIP3    H247385   5.500   1.826   0.993  1.6355  1.8972  0.3953
 8632TIP3   OH247386   1.681   6.071  16.293 -0.4507 -0.2678  0.0595
 8632TIP3    H147387   1.618   6.096  16.226 -1.1474  0.4384  0.9669
 8632TIP3    H247388   1.676   5.975  16.296  0.6939 -0.4097 -1.9577
 8633TIP3   OH247389   4.768   4.170   2.383  0.2816 -0.4167 -0.0802
 8633TIP3    H147390   4.842   4.134   2.433  0.0539  0.0227  0.5781
 8633TIP3    H247391   4.696   4.109   2.400 -0.5091  1.0719  2.1906
 8634TIP3   OH247392   2.720   2.310   2.765  0.3664 -0.3571 -0.3936
 8634TIP3    H147393   2.666   2.231   2.762  0.1655 -0.3007  1.2751
 8634TIP3    H247394   2.671   2.370   2.821  1.8161 -0.0289  0.5198
 8635TIP3   OH247395   1.942   5.960  16.506 -0.0988 -0.3032  0.2411
 8635TIP3    H147396   1.954   6.052  16.482  4.1458 -0.8157  0.0089
 8635TIP3    H247397   1.944   5.914  16.422 -1.1120 -0.7321  0.4480
 8636TIP3   OH247398   1.178   1.253  11.387  0.3451  0.1912  0.5781
 8636TIP3    H147399   1.273   1.255  11.375  0.2007  1.8903 -0.4126
 8636TIP3    H247400   1.151   1.345  11.385 -1.5077 -0.3453 -0.7518
 8637TIP3   OH247401   5.473   5.004   2.903 -0.6859  0.2437 -0.6094
 8637TIP3    H147402   5.386   5.043   2.898 -0.6279  0.1920 -2.3489
 8637TIP3    H247403   5.530   5.068   2.861  0.0397  0.0217  0.0185
 8638TIP3   OH247404   4.645   3.214  15.385 -0.2483  0.1924  0.0565
 8638TIP3    H147405   4.614   3.304  15.378 -0.1959  0.1350 -1.0268
 8638TIP3    H247406   4.675   3.206  15.475 -0.9084  1.0481  0.3600
 8639TIP3   OH247407   1.034   0.523   4.299 -0.2604 -0.8827 -0.1701
 8639TIP3    H147408   0.993   0.474   4.371  0.7646  0.3100  1.2577
 8639TIP3    H247409   1.101   0.464   4.265 -2.5187 -2.4973 -1.9321
 8640TIP3   OH247410   2.829   6.808  16.541 -0.6703  0.0460  0.2681
 8640TIP3    H147411   2.856   6.736  16.484 -0.2145  0.4023  0.0367
 8640TIP3    H247412   2.745   6.836  16.504  1.1734  2.4807 -2.3035
 8641TIP3   OH247413   5.431   5.506  11.915 -0.7941  0.1196  0.5476
 8641TIP3    H147414   5.444   5.598  11.937  1.3885 -0.3413  1.3092
 8641TIP3    H247415   5.467   5.458  11.989  0.6592 -1.3686 -1.0722
 8642TIP3   OH247416   5.257   5.035   4.338 -0.3299 -0.9241  0.2537
 8642TIP3    H147417   5.252   4.987   4.255 -1.3928 -0.9902  0.3497
 8642TIP3    H247418   5.326   5.100   4.324 -0.1494 -1.2731 -0.5102
 8643TIP3   OH247419   1.943   3.262  11.321  0.4975 -0.1205  0.0607
 8643TIP3    H147420   1.938   3.170  11.298  0.1467 -0.5411  1.7247
 8643TIP3    H247421   1.931   3.263  11.416 -2.9816  1.9142 -0.2944
 8644TIP3   OH247422   4.028   4.967  17.203 -0.5179  0.1419 -0.1643
 8644TIP3    H147423   4.095   4.900  17.201 -1.0310 -0.4026  0.6531
 8644TIP3    H247424   3.977   4.953  17.123 -1.1430 -0.9771  0.4244
 8645TIP3   OH247425   3.159   4.816  11.295  0.0468  0.0500 -0.2645
 8645TIP3    H147426   3.209   4.809  11.376 -0.5311 -1.0727  0.0071
 8645TIP3    H247427   3.197   4.891  11.249 -0.3078  1.3434  1.5194
 8646TIP3   OH247428   0.617   4.582  13.036 -0.4156  0.1155  0.5831
 8646TIP3    H147429   0.700   4.557  12.997 -0.7601  1.2482 -0.9175
 8646TIP3    H247430   0.562   4.505  13.027  0.0819 -0.2282  0.4594
 8647TIP3   OH247431   0.541   4.679   3.861  0.0484 -0.1449 -1.0199
 8647TIP3    H147432   0.525   4.586   3.850 -0.2105 -0.3104  0.5610
 8647TIP3    H247433   0.520   4.696   3.953 -0.4431  1.5733 -1.4255
 8648TIP3   OH247434   0.245   0.279  14.737  0.1520 -0.1737 -0.1442
 8648TIP3    H147435   0.340   0.272  14.737 -0.0107 -2.5464 -0.2965
 8648TIP3    H247436   0.214   0.197  14.776 -1.8568  0.1872 -0.9090
 8649TIP3   OH247437   0.947   5.878   5.114  0.5103  0.0459 -0.6704
 8649TIP3    H147438   0.946   5.908   5.023  1.2707 -0.9532 -1.0218
 8649TIP3    H247439   1.007   5.803   5.114 -0.0715 -0.4388  0.5005
 8650TIP3   OH247440   3.689   3.156   4.159  0.2269  0.1985  0.4267
 8650TIP3    H147441   3.642   3.175   4.078  0.3429  0.7456  0.4861
 8650TIP3    H247442   3.763   3.101   4.131  0.4861  0.7040  0.1007
 8651TIP3   OH247443   1.889   6.584   5.570 -0.4293  0.1619  0.1369
 8651TIP3    H147444   1.804   6.587   5.615 -0.2402  0.4423  0.4762
 8651TIP3    H247445   1.867   6.590   5.477 -0.7082  1.5702  0.2826
 8652TIP3   OH247446   4.029   2.676  16.586  0.3036 -0.1823  0.4965
 8652TIP3    H147447   4.014   2.727  16.507 -0.9135 -0.8231  0.3158
 8652TIP3    H247448   4.054   2.589  16.554  0.1036 -0.3561  0.8107
 8653TIP3   OH247449   6.058   1.839   4.240  0.0101 -0.2549  0.2736
 8653TIP3    H147450   5.995   1.836   4.313  0.3168 -0.5422  0.5287
 8653TIP3    H247451   6.134   1.791   4.273  0.2527 -0.1500 -0.1410
 8654TIP3   OH247452   5.726   1.452   0.932  0.4207 -0.1564 -0.2471
 8654TIP3    H147453   5.740   1.358   0.926  0.2063 -0.1329 -1.2807
 8654TIP3    H247454   5.637   1.461   0.965 -0.3126 -0.3356 -2.1021
 8655TIP3   OH247455   0.607   2.423   0.974  0.1920  0.1485 -0.5364
 8655TIP3    H147456   0.624   2.333   1.001 -1.9261  0.0342  0.5300
 8655TIP3    H247457   0.653   2.477   1.038  1.0402 -0.1653 -0.8797
 8656TIP3   OH247458   1.101   0.717   5.491  0.4888  0.1032  0.0458
 8656TIP3    H147459   1.015   0.750   5.466  0.8147  0.5167 -0.5539
 8656TIP3    H247460   1.111   0.741   5.583 -0.0336  0.0512  0.1165
 8657TIP3   OH247461   4.782   2.089  15.832  0.9840 -0.4021 -0.2772
 8657TIP3    H147462   4.742   2.056  15.752  0.9347 -0.4413 -0.2374
 8657TIP3    H247463   4.819   2.174  15.807  1.0598 -0.4611 -0.3662
 8658TIP3   OH247464   6.365   2.863   0.715 -0.0252 -0.3367  0.3052
 8658TIP3    H147465   6.316   2.781   0.720  1.8604 -1.4951  0.3472
 8658TIP3    H247466   6.355   2.902   0.802 -0.4402 -0.7918  0.4632
 8659TIP3   OH247467   1.034   2.476   5.710 -0.1979 -0.5788  0.6041
 8659TIP3    H147468   1.118   2.479   5.756 -0.4777  2.7364  1.0157
 8659TIP3    H247469   1.028   2.560   5.665 -2.2810 -1.6917 -1.2773
 8660TIP3   OH247470   3.452   4.299   3.206 -0.6305  0.6578  0.1824
 8660TIP3    H147471   3.411   4.260   3.129 -1.2572  2.5889 -0.4881
 8660TIP3    H247472   3.516   4.234   3.234  0.3532  0.3371 -2.5880
 8661TIP3   OH247473   4.869   5.501  13.966  0.1829  0.1555 -0.5926
 8661TIP3    H147474   4.918   5.529  14.043  1.9904 -1.8359 -0.9896
 8661TIP3    H247475   4.859   5.407  13.976  3.2569 -0.6803 -4.2986
 8662TIP3   OH247476   3.099   5.927   1.277  0.1449 -0.3885 -0.4221
 8662TIP3    H147477   3.076   5.921   1.184 -0.6980 -0.6681 -0.2082
 8662TIP3    H247478   3.062   5.847   1.315 -0.7945  0.4157  0.4000
 8663TIP3   OH247479   2.626   6.639   3.660  0.3701  0.0652  0.3691
 8663TIP3    H147480   2.577   6.719   3.677 -1.5650 -0.7629 -1.1006
 8663TIP3    H247481   2.670   6.655   3.577 -0.2457 -0.4814 -0.0700
 8664TIP3   OH247482   2.979   3.330   3.836  0.2831  0.4312  0.2271
 8664TIP3    H147483   2.982   3.350   3.930  0.1407 -2.7905  0.9621
 8664TIP3    H247484   3.071   3.318   3.812  0.1494 -1.7039  0.6732
 8665TIP3   OH247485   4.891   5.530  16.132 -0.1179 -0.0784  0.2291
 8665TIP3    H147486   4.925   5.473  16.201 -0.2646 -0.6595 -0.1727
 8665TIP3    H247487   4.945   5.510  16.055  0.2368  0.7813  0.2546
 8666TIP3   OH247488   4.233   1.806   6.456 -0.6710 -0.1459  0.3040
 8666TIP3    H147489   4.209   1.886   6.504 -0.7781  0.4107 -0.6487
 8666TIP3    H247490   4.162   1.745   6.474 -2.6406  1.3482 -2.1478
 8667TIP3   OH247491   4.303   1.908  10.184 -0.3903  0.0398 -0.0645
 8667TIP3    H147492   4.248   1.844  10.138  0.0959  0.9472 -2.0010
 8667TIP3    H247493   4.249   1.987  10.187 -0.1468  0.1918  0.2991
 8668TIP3   OH247494   6.774   2.330  14.052 -0.0218  0.4416  0.4510
 8668TIP3    H147495   6.691   2.377  14.063  0.2704  0.8988  0.7221
 8668TIP3    H247496   6.758   2.271  13.979 -0.9033 -0.1872  1.1461
 8669TIP3   OH247497   4.421   0.301   3.502  0.3430 -0.4650 -0.0763
 8669TIP3    H147498   4.468   0.220   3.520 -0.7453 -1.1420 -0.2876
 8669TIP3    H247499   4.491   0.366   3.488  1.2287 -1.5810 -0.9275
 8670TIP3   OH247500   1.799   5.630   3.842  0.4389 -0.0463 -0.2750
 8670TIP3    H147501   1.734   5.605   3.777  0.4809 -3.6013  0.9012
 8670TIP3    H247502   1.760   5.605   3.926  3.4218 -2.8512  0.4117
 8671TIP3   OH247503   5.416   3.755  14.173 -0.2765  0.1183 -0.0180
 8671TIP3    H147504   5.471   3.704  14.114  1.2595  1.8005 -0.1073
 8671TIP3    H247505   5.371   3.690  14.226  1.6820 -1.3393 -0.0721
 8672TIP3   OH247506   3.225   1.826   3.533 -0.5276 -0.1310  0.6722
 8672TIP3    H147507   3.259   1.898   3.586  2.4709 -0.4902 -0.6677
 8672TIP3    H247508   3.276   1.750   3.562  1.2675 -0.3259 -2.7041
 8673TIP3   OH247509   5.991   6.490  13.305 -0.5450  0.2814 -0.7137
 8673TIP3    H147510   5.933   6.566  13.307 -1.8555 -0.6992 -0.4002
 8673TIP3    H247511   5.978   6.452  13.218 -1.1113 -0.4699 -0.3170
 8674TIP3   OH247512   3.462   0.338  12.201 -0.1762  0.4608 -0.2809
 8674TIP3    H147513   3.440   0.295  12.118 -1.3762  0.2360  0.1405
 8674TIP3    H247514   3.395   0.307  12.262 -0.6291  2.3698  0.2102
 8675TIP3   OH247515   1.638   1.442   2.881 -0.2167 -0.3244 -0.4413
 8675TIP3    H147516   1.733   1.456   2.884 -0.2949 -0.0258  1.1927
 8675TIP3    H247517   1.602   1.514   2.933 -1.3598 -0.3297 -1.2074
 8676TIP3   OH247518   6.530   1.410   3.985  0.1014 -0.3747  0.2168
 8676TIP3    H147519   6.445   1.441   4.015  0.3749  2.2613 -1.5404
 8676TIP3    H247520   6.593   1.458   4.039  0.5087  0.7094 -1.1930
 8677TIP3   OH247521   5.737   2.446  13.433 -0.2714 -0.4519  0.2387
 8677TIP3    H147522   5.712   2.380  13.368 -0.3228 -0.3168  0.1245
 8677TIP3    H247523   5.737   2.529  13.386 -0.6500 -0.3027  0.4943
 8678TIP3   OH247524   3.196   1.558   4.619 -0.6536  0.3009  0.2531
 8678TIP3    H147525   3.173   1.495   4.549  1.6614  1.5194 -1.6681
 8678TIP3    H247526   3.200   1.642   4.574  2.2247  0.9078  1.5546
 8679TIP3   OH247527   0.509   2.139   3.509  0.0810  0.3543  0.6656
 8679TIP3    H147528   0.550   2.114   3.592  2.0293  0.3178 -0.2938
 8679TIP3    H247529   0.559   2.093   3.442  0.7296  3.1004 -0.7948
 8680TIP3   OH247530   4.830   5.111  16.437 -0.2071 -0.2142 -0.8572
 8680TIP3    H147531   4.819   5.049  16.365  1.4660 -1.9804  0.3706
 8680TIP3    H247532   4.759   5.091  16.497 -0.0695 -0.4674 -0.7822
 8681TIP3   OH247533   6.335   6.427   3.397  0.0768 -0.3027  0.1738
 8681TIP3    H147534   6.239   6.428   3.408  0.1364  0.3970  0.6337
 8681TIP3    H247535   6.354   6.501   3.339  0.3225 -0.5758 -0.0965
 8682TIP3   OH247536   3.394   1.414  13.621 -0.4947 -0.2774 -0.7261
 8682TIP3    H147537   3.486   1.428  13.644 -0.7004 -0.1536  0.0485
 8682TIP3    H247538   3.345   1.466  13.685 -1.0842  0.4147 -1.7246
 8683TIP3   OH247539   4.460   0.290  14.731  0.5153 -0.3925 -0.5274
 8683TIP3    H147540   4.530   0.227  14.750 -1.3217 -2.5946 -0.7788
 8683TIP3    H247541   4.455   0.291  14.636  1.3405  1.0689 -0.5604
 8684TIP3   OH247542   0.077   4.386  13.636  0.1932 -0.2501 -1.3186
 8684TIP3    H147543   0.024   4.457  13.600 -0.4926 -1.0903 -1.9630
 8684TIP3    H247544   0.049   4.379  13.727  0.0421  0.1004 -1.3386
 8685TIP3   OH247545   0.343   4.744  11.223 -0.5465  0.3086 -1.2059
 8685TIP3    H147546   0.261   4.747  11.174  0.8254  2.5588 -3.4772
 8685TIP3    H247547   0.391   4.670  11.186 -0.8742  0.0017 -1.0128
 8686TIP3   OH247548   4.502   6.574  14.765 -0.0396  0.3316  0.4282
 8686TIP3    H147549   4.499   6.616  14.851  0.6926  0.7770  0.2427
 8686TIP3    H247550   4.494   6.646  14.702  0.8917  0.1694  0.1103
 8687TIP3   OH247551   3.994   1.548  14.215  0.1245  0.5218  0.0059
 8687TIP3    H147552   4.003   1.463  14.259 -0.3879  1.2961  1.6427
 8687TIP3    H247553   3.932   1.531  14.144  0.1420 -0.5169  0.2327
 8688TIP3   OH247554   6.332   5.950   0.225  0.1259 -0.1978 -0.0670
 8688TIP3    H147555   6.278   5.989   0.157 -0.6672 -1.3917 -0.1434
 8688TIP3    H247556   6.292   5.979   0.307 -0.1250 -0.3852 -0.1221
 8689TIP3   OH247557   6.272   1.808  14.295  0.3102  0.1344  0.6798
 8689TIP3    H147558   6.238   1.810  14.206 -1.1402 -1.7152  1.1712
 8689TIP3    H247559   6.196   1.825  14.350  1.7324  4.5422  1.5166
 8690TIP3   OH247560   0.304   5.973  16.585 -0.2433  0.3562  0.1348
 8690TIP3    H147561   0.234   5.948  16.645 -0.8254 -0.2767 -0.7863
 8690TIP3    H247562   0.327   6.063  16.611 -0.7434  0.2289  1.0434
 8691TIP3   OH247563   5.393   4.110  11.840  0.1792 -0.0707 -0.2286
 8691TIP3    H147564   5.488   4.106  11.826  0.3318 -0.0874  0.7763
 8691TIP3    H247565   5.361   4.025  11.809  0.4871 -0.0682 -0.5581
 8692TIP3   OH247566   4.828   5.618   6.322  0.4381  0.1499  0.2697
 8692TIP3    H147567   4.914   5.600   6.285  0.0572  1.3122 -1.2481
 8692TIP3    H247568   4.767   5.570   6.266 -0.0985  1.3822 -0.2090
 8693TIP3   OH247569   3.930   5.880  16.255  0.1159 -0.1045  0.4405
 8693TIP3    H147570   3.938   5.973  16.236 -0.1657  0.0438  1.0098
 8693TIP3    H247571   4.018   5.852  16.279  0.1063  0.1282  0.7466
 8694TIP3   OH247572   2.292   2.536  13.761 -0.0766  0.0457  0.0363
 8694TIP3    H147573   2.211   2.489  13.779  0.1351  0.5114  2.3749
 8694TIP3    H247574   2.343   2.476  13.707  0.1081 -2.3493  2.7612
 8695TIP3   OH247575   0.942   5.749  12.863 -0.8265 -0.5018 -0.0285
 8695TIP3    H147576   0.984   5.693  12.797  1.1698 -0.6668  1.3355
 8695TIP3    H247577   0.859   5.774  12.823 -0.3641 -1.8829 -1.9619
 8696TIP3   OH247578   4.186   3.179   1.926  0.2484 -0.0916 -0.2459
 8696TIP3    H147579   4.092   3.182   1.945  0.2660 -1.2198  0.0840
 8696TIP3    H247580   4.211   3.088   1.943  1.2766  0.0521 -0.9379
 8697TIP3   OH247581   3.102   0.409   2.915 -0.6655 -0.1327 -0.8642
 8697TIP3    H147582   3.193   0.378   2.918 -0.8196 -0.5637 -0.6368
 8697TIP3    H247583   3.100   0.471   2.842  0.2323  1.2085  0.2364
 8698TIP3   OH247584   6.756   3.235   1.504  0.8929 -0.5236 -0.3347
 8698TIP3    H147585   6.787   3.154   1.463 -1.1132 -0.7099 -1.5370
 8698TIP3    H247586   6.744   3.296   1.431  0.8285  0.3447  0.3858
 8699TIP3   OH247587   1.456   4.643   0.537  0.3570  0.3328  0.1917
 8699TIP3    H147588   1.437   4.700   0.611 -0.2661 -0.3823  0.5882
 8699TIP3    H247589   1.465   4.555   0.575  2.2437  0.3031 -0.2858
 8700TIP3   OH247590   2.505   1.170  11.226  0.8370 -0.0396 -0.7012
 8700TIP3    H147591   2.487   1.091  11.176 -0.1711 -0.5501  0.4310
 8700TIP3    H247592   2.431   1.177  11.287  0.1632  2.5896 -1.7728
 8701TIP3   OH247593   2.508   0.647  14.008 -0.8723  0.1129  0.9888
 8701TIP3    H147594   2.501   0.742  14.023 -1.8019  0.0856  0.7440
 8701TIP3    H247595   2.597   0.625  14.036  0.0926  1.4253 -0.9676
 8702TIP3   OH247596   2.168   3.028   1.315  0.6428 -0.1982  0.7503
 8702TIP3    H147597   2.195   2.955   1.371 -1.0170 -0.5351  1.1143
 8702TIP3    H247598   2.073   3.033   1.325  0.4293  0.3579 -1.2911
 8703TIP3   OH247599   5.152   5.815  13.268  0.6048  0.0134 -0.2285
 8703TIP3    H147600   5.137   5.787  13.178  0.2641  0.4619 -0.3103
 8703TIP3    H247601   5.171   5.909  13.261 -1.6555  0.5363  0.3847
 8704TIP3   OH247602   4.398   4.864  12.747 -0.0763  0.3546 -0.3386
 8704TIP3    H147603   4.330   4.917  12.705 -0.5605  0.3378  0.4344
 8704TIP3    H247604   4.359   4.832  12.828 -0.0174 -1.7445 -1.1042
 8705TIP3   OH247605   1.528   3.122   2.331  0.3757  0.1453  0.0332
 8705TIP3    H147606   1.526   3.176   2.253  1.2800  0.9949  0.5972
 8705TIP3    H247607   1.506   3.034   2.300 -0.7549  0.7477 -0.9363
 8706TIP3   OH247608   5.689   2.111   4.333 -0.3422  0.0830  0.1951
 8706TIP3    H147609   5.615   2.071   4.380  0.1834  0.0624  1.0114
 8706TIP3    H247610   5.699   2.197   4.373 -0.2200  0.2714 -0.2390
 8707TIP3   OH247611   3.295   1.498  11.775  0.4775  0.6726 -0.6897
 8707TIP3    H147612   3.274   1.591  11.785  0.9572  0.8011 -0.8783
 8707TIP3    H247613   3.238   1.468  11.705 -2.1061  0.0324  1.5803
 8708TIP3   OH247614   6.217   0.330   6.037  0.8767  0.0696 -0.1104
 8708TIP3    H147615   6.137   0.325   5.984  1.7827 -0.8378 -1.4461
 8708TIP3    H247616   6.191   0.297   6.123 -0.2912  0.2235 -0.3978
 8709TIP3   OH247617   6.661   6.668   2.745  0.5862 -0.5686 -0.6755
 8709TIP3    H147618   6.591   6.692   2.806  0.3660 -0.0802 -1.1160
 8709TIP3    H247619   6.617   6.628   2.671  0.6976  0.3921 -1.2780
 8710TIP3   OH247620   4.764   2.398   2.605 -0.0417 -0.4501 -0.2776
 8710TIP3    H147621   4.742   2.395   2.698 -2.0342  1.2029 -0.6387
 8710TIP3    H247622   4.781   2.491   2.588  1.0315 -0.8431 -1.4168
 8711TIP3   OH247623   3.776   1.727  11.263 -0.6431  0.2393 -0.4426
 8711TIP3    H147624   3.724   1.697  11.337  0.9947 -0.2831  0.5296
 8711TIP3    H247625   3.782   1.651  11.205  2.0446 -0.8483  1.1872
 8712TIP3   OH247626   1.872   1.721   5.852 -0.0542 -0.8349  0.1482
 8712TIP3    H147627   1.911   1.801   5.888 -1.2171 -0.1630 -0.0620
 8712TIP3    H247628   1.777   1.737   5.854 -0.3101 -2.2633  0.2338
 8713TIP3   OH247629   2.243   5.522  16.919 -0.5017 -0.1990 -0.1654
 8713TIP3    H147630   2.308   5.456  16.947 -0.0503  0.2804 -0.0710
 8713TIP3    H247631   2.269   5.601  16.965 -1.1921 -0.0175 -0.0931
 8714TIP3   OH247632   5.400   5.457  13.585  0.0038  0.6287  0.9331
 8714TIP3    H147633   5.364   5.414  13.663 -0.7599  1.3141  0.9666
 8714TIP3    H247634   5.339   5.528  13.567  0.2450  0.5471 -0.2264
 8715TIP3   OH247635   3.572   4.909  14.096  0.1307 -0.3523 -0.1265
 8715TIP3    H147636   3.647   4.954  14.135  2.4762 -2.7219 -1.7592
 8715TIP3    H247637   3.583   4.817  14.121 -1.9632 -0.8336 -0.8421
 8716TIP3   OH247638   1.272   0.733   1.859  0.1265 -0.6102  0.2136
 8716TIP3    H147639   1.260   0.654   1.912 -0.3881 -1.4905 -1.1594
 8716TIP3    H247640   1.201   0.728   1.795  0.8583  0.3111 -0.6719
 8717TIP3   OH247641   0.947   3.710  11.618  0.2997  0.0333 -0.0755
 8717TIP3    H147642   0.921   3.719  11.710 -0.7885 -0.4348 -0.3301
 8717TIP3    H247643   0.933   3.798  11.582 -1.5398 -0.3617 -0.3550
 8718TIP3   OH247644   6.517   4.574  16.262 -0.8323 -0.2599 -0.6533
 8718TIP3    H147645   6.606   4.552  16.233 -0.3396  1.8380 -0.8310
 8718TIP3    H247646   6.524   4.665  16.293 -2.6815 -0.4309  0.3384
 8719TIP3   OH247647   5.170   6.000  12.607 -0.8221 -0.3329 -0.9031
 8719TIP3    H147648   5.227   6.061  12.560 -1.0625 -0.4449 -1.3406
 8719TIP3    H247649   5.146   6.047  12.688 -2.1207  0.7146 -1.8679
 8720TIP3   OH247650   5.895   6.140   1.677 -0.1073 -0.2071  0.1732
 8720TIP3    H147651   5.945   6.126   1.596  1.3816  0.0201  1.0479
 8720TIP3    H247652   5.942   6.091   1.744 -0.5687  0.7167  1.1894
 8721TIP3   OH247653   4.953   4.762   1.178  0.1464 -0.3883 -0.2630
 8721TIP3    H147654   5.006   4.729   1.106 -0.9463 -3.4391  0.2438
 8721TIP3    H247655   4.881   4.809   1.135 -0.2315 -1.7767 -1.2002
 8722TIP3   OH247656   0.342   6.411   5.267  0.3922 -0.1550 -0.3272
 8722TIP3    H147657   0.418   6.355   5.251  0.6604  0.1126 -0.0035
 8722TIP3    H247658   0.378   6.491   5.305 -0.0452  0.0046 -0.2362
 8723TIP3   OH247659   4.327   2.333  15.337 -0.3482  0.1162  0.1593
 8723TIP3    H147660   4.252   2.353  15.282 -0.7079 -1.4591  0.0510
 8723TIP3    H247661   4.308   2.247  15.374  0.3102  0.7185  2.0092
 8724TIP3   OH247662   0.712   0.302  16.428 -0.6960 -0.5304 -0.1188
 8724TIP3    H147663   0.746   0.229  16.480 -0.2022 -0.9969 -1.0750
 8724TIP3    H247664   0.784   0.325  16.370 -0.3956  1.6029  1.0773
 8725TIP3   OH247665   0.271   5.930  10.746  0.0626 -0.2461  0.7018
 8725TIP3    H147666   0.194   5.913  10.800  0.0283 -0.2803  0.6416
 8725TIP3    H247667   0.236   5.964  10.664  0.1654  1.1968  1.2229
 8726TIP3   OH247668   3.402   0.398   0.849 -0.5990  0.1734 -0.8844
 8726TIP3    H147669   3.496   0.382   0.850 -1.2196 -4.0087 -0.2674
 8726TIP3    H247670   3.380   0.419   0.940 -0.4871 -0.7494 -0.6310
 8727TIP3   OH247671   1.660   5.552   3.385 -0.4993  0.0532 -0.2337
 8727TIP3    H147672   1.611   5.532   3.305  0.7151  0.1938 -1.0272
 8727TIP3    H247673   1.747   5.579   3.354 -0.7734  2.4931  0.9944
 8728TIP3   OH247674   5.594   5.467  11.681  0.0466  0.0635  0.0225
 8728TIP3    H147675   5.616   5.383  11.640  0.5638  0.5903 -0.8150
 8728TIP3    H247676   5.526   5.446  11.744  1.0076 -1.1722  0.6729
 8729TIP3   OH247677   5.446   0.207   6.330 -0.3564  0.0330  0.1533
 8729TIP3    H147678   5.490   0.180   6.410 -0.6842 -0.1788  0.2620
 8729TIP3    H247679   5.412   0.126   6.292 -1.5163  0.3080  0.5917
 8730TIP3   OH247680   5.857   5.292   2.943 -0.0042  0.5575 -0.8732
 8730TIP3    H147681   5.938   5.339   2.923 -0.2399  1.0062 -0.7626
 8730TIP3    H247682   5.824   5.333   3.022  0.8401 -1.1125  0.3856
 8731TIP3   OH247683   3.062   5.858  13.545 -0.0450 -0.4500 -0.1774
 8731TIP3    H147684   3.077   5.764  13.533  0.3916 -0.5091  0.7468
 8731TIP3    H247685   3.142   5.899  13.512 -0.1446 -0.4211 -0.3791
 8732TIP3   OH247686   3.346   1.604  10.392  0.5360 -0.2550  0.1068
 8732TIP3    H147687   3.291   1.668  10.348  0.4646  0.4610  1.2020
 8732TIP3    H247688   3.434   1.621  10.360  0.8245  1.7194  1.8556
 8733TIP3   OH247689   4.016   2.023  10.909 -0.7637 -0.2584 -0.1791
 8733TIP3    H147690   4.049   2.017  10.999  2.0660 -1.6794 -1.2437
 8733TIP3    H247691   4.056   2.103  10.874 -3.1871  1.2012  0.2980
 8734TIP3   OH247692   3.122   0.916  13.900 -0.4701  0.0591 -0.2820
 8734TIP3    H147693   3.068   0.988  13.932 -0.6743 -0.3596  0.3157
 8734TIP3    H247694   3.126   0.930  13.805  0.5569  1.5853 -0.0419
 8735TIP3   OH247695   4.560   3.275   1.595 -0.1417  0.0233 -0.4374
 8735TIP3    H147696   4.553   3.180   1.605 -1.6670  0.1663 -0.0282
 8735TIP3    H247697   4.472   3.303   1.570 -0.2159  1.5774  1.4697
 8736TIP3   OH247698   0.051   2.587   2.792 -0.0213  0.2865 -0.2135
 8736TIP3    H147699   0.140   2.562   2.766  0.1534  0.4837  0.1837
 8736TIP3    H247700  -0.004   2.558   2.719  0.2492 -0.6857 -0.0409
 8737TIP3   OH247701   3.589   2.136  15.986 -0.6801 -0.0366 -0.2698
 8737TIP3    H147702   3.563   2.200  15.921 -0.9671  0.8999  0.7604
 8737TIP3    H247703   3.607   2.057  15.935 -1.8530  0.3891 -1.3740
 8738TIP3   OH247704   3.923   3.180  15.304 -0.1032 -0.4798  0.1291
 8738TIP3    H147705   3.924   3.246  15.374 -1.4118 -1.5518  1.1906
 8738TIP3    H247706   4.012   3.179  15.270  0.0894  1.3963  0.5147
 8739TIP3   OH247707   4.974   3.629  16.316  0.4847  0.0899 -0.4055
 8739TIP3    H147708   4.922   3.606  16.393  1.1258  0.4707  0.1536
 8739TIP3    H247709   4.956   3.721  16.300  0.7191  0.1351 -0.4166
 8740TIP3   OH247710   2.745   2.513  16.281 -0.4189  0.6681 -0.3554
 8740TIP3    H147711   2.811   2.445  16.271 -0.1614  0.9618 -0.6896
 8740TIP3    H247712   2.662   2.466  16.276 -0.2304  0.2130  0.7388
 8741TIP3   OH247713   0.503   0.337  14.848  0.0507 -0.1141 -0.2598
 8741TIP3    H147714   0.588   0.301  14.822 -0.0333 -0.8588  0.4993
 8741TIP3    H247715   0.490   0.308  14.938 -1.6856 -1.2630 -0.8479
 8742TIP3   OH247716   4.762   4.952   0.785  0.6254 -0.4725 -0.4203
 8742TIP3    H147717   4.707   4.873   0.791  1.5053 -1.1485 -1.0625
 8742TIP3    H247718   4.699   5.024   0.782 -0.1945 -1.1300  0.3962
 8743TIP3   OH247719   4.468   2.691   2.287 -0.7099  1.2786 -0.3940
 8743TIP3    H147720   4.552   2.709   2.244 -0.2793 -0.1701 -0.2132
 8743TIP3    H247721   4.487   2.701   2.380 -0.2741 -0.6687 -0.2388
 8744TIP3   OH247722   5.792   2.271  11.283 -0.1796  0.6460  0.5379
 8744TIP3    H147723   5.832   2.194  11.322  0.4737  0.4153 -0.5523
 8744TIP3    H247724   5.866   2.328  11.261 -0.6473  1.5251  1.2053
 8745TIP3   OH247725   4.857   0.067  13.266 -0.3692  0.3666  0.2136
 8745TIP3    H147726   4.851   0.110  13.181 -0.3554  0.0655  0.0602
 8745TIP3    H247727   4.768   0.033  13.282  0.2129 -1.7590 -0.8287
 8746TIP3   OH247728   1.691   0.810  16.058 -0.7219  0.3303  0.2283
 8746TIP3    H147729   1.753   0.881  16.072 -1.4410  0.5683  2.5223
 8746TIP3    H247730   1.628   0.844  15.995  0.3507  0.8147 -0.5775
 8747TIP3   OH247731   1.006   4.928  15.356  0.5446 -0.4379  0.2469
 8747TIP3    H147732   1.032   4.864  15.423 -0.4858  0.4447  1.5265
 8747TIP3    H247733   0.916   4.906  15.334  0.3789  0.1989  0.2621
 8748TIP3   OH247734   4.852   1.848  15.956 -0.6776  0.3963  0.5401
 8748TIP3    H147735   4.835   1.881  16.044 -0.9893  0.3977  0.4801
 8748TIP3    H247736   4.824   1.918  15.897 -1.0520  0.1481  0.4224
 8749TIP3   OH247737   1.963   0.957  15.453  0.4590 -0.2403 -0.2426
 8749TIP3    H147738   1.985   0.893  15.385  0.4108 -0.7810  0.2468
 8749TIP3    H247739   1.868   0.947  15.464  0.2682  0.7292 -0.9812
 8750TIP3   OH247740   4.647   2.485  16.310  0.4818 -0.0105  0.7082
 8750TIP3    H147741   4.588   2.412  16.326  0.4131  0.4162  2.5477
 8750TIP3    H247742   4.719   2.472  16.372  1.1851  0.7001  0.0520
 8751TIP3   OH247743   2.461   5.278  12.640  0.4654  0.2523  0.4235
 8751TIP3    H147744   2.450   5.213  12.710  2.2593  0.2855  0.7644
 8751TIP3    H247745   2.555   5.279  12.623 -0.2799 -2.3553 -4.5243
 8752TIP3   OH247746   5.349   4.186  12.247  0.0890 -0.1479  0.2874
 8752TIP3    H147747   5.388   4.191  12.334  1.5122  2.3754 -0.4496
 8752TIP3    H247748   5.265   4.232  12.256  0.2620  0.1627  0.2830
 8753TIP3   OH247749   3.352   2.301  14.381  0.0139  0.0600 -0.1375
 8753TIP3    H147750   3.274   2.322  14.330  0.0710  1.0920  0.1796
 8753TIP3    H247751   3.419   2.361  14.348  0.6466 -0.7417 -0.3321
 8754TIP3   OH247752   6.116   2.536   4.951 -0.0910  0.0282  0.5660
 8754TIP3    H147753   6.131   2.612   4.895 -0.1364 -1.0978 -1.0211
 8754TIP3    H247754   6.204   2.505   4.972 -0.0622  0.9335  1.8094
 8755TIP3   OH247755   3.324   4.235   2.967  0.2829 -0.2710 -0.3172
 8755TIP3    H147756   3.349   4.301   2.903 -0.1790 -1.5765 -1.8686
 8755TIP3    H247757   3.379   4.160   2.948 -0.1548 -0.8250  0.5527
 8756TIP3   OH247758   3.274   5.403  14.175  0.0528 -0.6142  0.4187
 8756TIP3    H147759   3.367   5.377  14.176 -0.0677 -1.0549  0.2728
 8756TIP3    H247760   3.260   5.441  14.262  0.4400 -0.2952  0.3450
 8757TIP3   OH247761   6.666   2.469   5.374  0.1369 -0.0784  0.1427
 8757TIP3    H147762   6.748   2.431   5.343 -0.0797 -0.4402  0.0153
 8757TIP3    H247763   6.612   2.394   5.398 -0.4901  0.1329 -0.6179
 8758TIP3   OH247764   0.310   5.714  13.032 -0.0720  0.2902  0.2033
 8758TIP3    H147765   0.387   5.694  12.979 -0.3947  0.6516 -0.4169
 8758TIP3    H247766   0.253   5.638  13.022 -0.2480  0.4719 -0.1883
 8759TIP3   OH247767   3.219   5.461   2.697  0.2287  0.4488  0.2885
 8759TIP3    H147768   3.231   5.495   2.608 -0.8153  0.5180  0.1662
 8759TIP3    H247769   3.127   5.435   2.700  0.3525  0.1178  1.2380
 8760TIP3   OH247770   1.023   5.463  17.271 -0.1511 -0.4707 -0.1144
 8760TIP3    H147771   0.956   5.414  17.320  0.3459  0.1482  1.2014
 8760TIP3    H247772   0.981   5.483  17.187 -0.2018 -3.6087 -0.9263
 8761TIP3   OH247773   4.871   0.052  12.401  0.1721 -0.5543 -0.2464
 8761TIP3    H147774   4.811  -0.023  12.402 -0.0610 -0.3919 -1.4974
 8761TIP3    H247775   4.919   0.044  12.319 -0.4078  1.1060 -0.7590
 8762TIP3   OH247776   2.780   0.918  13.402 -0.3657  0.2828  0.1418
 8762TIP3    H147777   2.727   0.957  13.333  0.4173  0.7886 -0.1744
 8762TIP3    H247778   2.716   0.872  13.458 -1.2698  1.8411  0.4283
 8763TIP3   OH247779   4.302   5.499  13.616  0.2533 -0.3530 -0.6679
 8763TIP3    H147780   4.282   5.592  13.600 -1.5167 -0.6616 -0.4034
 8763TIP3    H247781   4.361   5.499  13.691 -2.3178  0.4368  1.4386
 8764TIP3   OH247782   4.575   5.463  15.339  0.0010  0.2602 -0.2641
 8764TIP3    H147783   4.550   5.374  15.314  3.4359 -1.0676  0.7469
 8764TIP3    H247784   4.605   5.455  15.430 -0.5720  2.6410  0.1693
 8765TIP3   OH247785   4.099   1.992  11.993  0.3448  0.0196  0.0936
 8765TIP3    H147786   4.052   2.072  11.969 -0.4282 -0.4285  0.0799
 8765TIP3    H247787   4.049   1.922  11.952  2.4588 -0.2899 -2.0426
 8766TIP3   OH247788   2.455   2.573  16.779  1.0606  0.0932  0.9060
 8766TIP3    H147789   2.450   2.654  16.828  0.9014 -0.2314  1.4259
 8766TIP3    H247790   2.495   2.510  16.839  0.1160 -0.5206  0.9081
 8767TIP3   OH247791   3.976   6.796  16.548  0.4225 -0.1333 -0.2888
 8767TIP3    H147792   4.043   6.728  16.562  0.5584 -0.2965 -1.6432
 8767TIP3    H247793   3.899   6.747  16.518  0.4466  0.2850 -1.0361
 8768TIP3   OH247794   5.767   2.658   2.576 -0.0813 -0.2026 -0.3133
 8768TIP3    H147795   5.760   2.696   2.663  1.6147  1.2701 -0.7680
 8768TIP3    H247796   5.816   2.577   2.588 -0.6128 -0.4380  0.2286
 8769TIP3   OH247797   1.177   5.248  16.003 -0.2769 -0.1746  0.3863
 8769TIP3    H147798   1.189   5.334  15.965 -2.7206  0.0489  0.0445
 8769TIP3    H247799   1.134   5.197  15.935  0.5807 -1.5005  0.7995
 8770TIP3   OH247800   1.273   4.953  16.819  0.6411  0.5441 -0.4878
 8770TIP3    H147801   1.349   4.998  16.782  2.7073 -1.4822  1.1477
 8770TIP3    H247802   1.270   4.982  16.911 -0.1238  0.0581 -0.3524
 8771TIP3   OH247803   2.291   1.758   0.380 -0.1577  0.1263  0.6831
 8771TIP3    H147804   2.203   1.775   0.348 -0.2505 -0.8074  0.4277
 8771TIP3    H247805   2.288   1.783   0.472 -0.4243  0.9870  0.4471
 8772TIP3   OH247806   2.387   5.053  11.996  0.3072 -0.3254 -0.5969
 8772TIP3    H147807   2.376   5.100  11.913  0.3335 -1.4434 -1.2569
 8772TIP3    H247808   2.431   5.115  12.054  0.6988  0.3185 -1.5689
 8773TIP3   OH247809   2.258   3.414  14.583 -0.4474 -0.0129 -0.5161
 8773TIP3    H147810   2.251   3.471  14.507  0.2655  1.5641  0.5704
 8773TIP3    H247811   2.344   3.374  14.576 -1.0334 -1.1363 -1.3918
 8774TIP3   OH247812   4.072   0.150   0.786 -0.0409  0.5612 -0.6006
 8774TIP3    H147813   3.993   0.203   0.797  0.8342  1.8749 -0.5653
 8774TIP3    H247814   4.128   0.174   0.859 -1.0805 -3.1256  1.5565
 8775TIP3   OH247815   2.497   6.681  15.510  0.2735 -0.0270  0.3487
 8775TIP3    H147816   2.513   6.653  15.420  0.1660 -0.1344  0.3624
 8775TIP3    H247817   2.584   6.693  15.548  0.3177  0.2177  0.1678
 8776TIP3   OH247818   1.948   2.923  11.915  0.4437  0.1488  0.0954
 8776TIP3    H147819   1.973   2.844  11.963 -1.4200 -0.5780 -0.0846
 8776TIP3    H247820   1.890   2.969  11.976 -1.2968 -0.3797 -1.1442
 8777TIP3   OH247821   4.185   3.675   4.841 -0.4825 -0.4235  0.6838
 8777TIP3    H147822   4.274   3.691   4.809  0.0643 -0.6201  2.0578
 8777TIP3    H247823   4.150   3.762   4.859  0.0594 -0.4146  1.7539
 8778TIP3   OH247824   6.555   0.808   0.339  0.4783 -0.1077 -0.1119
 8778TIP3    H147825   6.564   0.815   0.434 -0.4875  0.2950 -0.0484
 8778TIP3    H247826   6.636   0.765   0.311  0.1973 -1.4228  1.0296
 8779TIP3   OH247827   0.707   1.391  13.496  0.1249  0.3499 -0.8459
 8779TIP3    H147828   0.718   1.454  13.568 -0.5390 -0.7525  0.2226
 8779TIP3    H247829   0.698   1.446  13.418 -0.7709  1.6111  0.1217
 8780TIP3   OH247830   1.569   2.886  15.671  0.5846  0.0880 -0.0466
 8780TIP3    H147831   1.530   2.807  15.707  0.2617  0.0366 -0.5007
 8780TIP3    H247832   1.512   2.958  15.700  0.5747  0.0949 -0.0820
 8781TIP3   OH247833   1.296   3.742   4.740  0.4018  0.2575 -0.3817
 8781TIP3    H147834   1.254   3.696   4.667  0.1538  1.2773 -0.8970
 8781TIP3    H247835   1.262   3.831   4.735  1.7666  0.8120 -0.1138
 8782TIP3   OH247836   5.621   5.689   5.191  0.0421 -0.1790  0.3866
 8782TIP3    H147837   5.600   5.726   5.276 -0.3695 -1.2323  0.7494
 8782TIP3    H247838   5.536   5.677   5.148  0.1793 -0.5742  0.2200
 8783TIP3   OH247839   4.659   5.262   5.224  0.2197  0.1109  0.2809
 8783TIP3    H147840   4.593   5.227   5.164 -1.4438 -0.1120  2.2193
 8783TIP3    H247841   4.736   5.208   5.209 -0.8572 -1.3354 -0.1103
 8784TIP3   OH247842   2.347   5.469  11.719 -0.1524 -0.2425 -0.0039
 8784TIP3    H147843   2.370   5.494  11.630 -1.5134 -1.1171 -0.6078
 8784TIP3    H247844   2.339   5.553  11.766  0.5008  0.2185 -0.7003
 8785TIP3   OH247845   3.271   2.933   1.606 -0.6305 -0.1685 -0.5008
 8785TIP3    H147846   3.317   2.949   1.688  0.4432 -2.6718 -0.5779
 8785TIP3    H247847   3.338   2.947   1.538 -1.1711  0.5818 -0.8901
 8786TIP3   OH247848   5.622   1.314   3.213 -0.4326 -0.4125 -0.2938
 8786TIP3    H147849   5.557   1.367   3.260 -0.7653  0.2826 -1.4978
 8786TIP3    H247850   5.586   1.225   3.215  0.2708 -0.6643  1.9901
 8787TIP3   OH247851   0.026   2.387   1.699  0.0366 -0.9748  0.0188
 8787TIP3    H147852   0.102   2.385   1.641 -0.3106  1.3370 -0.5520
 8787TIP3    H247853  -0.002   2.296   1.704  2.5329 -1.7845 -0.1688
 8788TIP3   OH247854   0.826   2.068   2.143  0.1134 -0.1920  0.3989
 8788TIP3    H147855   0.834   2.125   2.067 -0.9328  1.4424  1.4715
 8788TIP3    H247856   0.736   2.035   2.139  0.4272 -1.0411  0.2800
 8789TIP3   OH247857   2.983   6.032   4.061  0.2467 -0.3779 -0.0748
 8789TIP3    H147858   2.910   6.087   4.032 -0.3087 -0.7313  0.6327
 8789TIP3    H247859   3.057   6.061   4.008 -0.2284  0.5123 -0.2689
 8790TIP3   OH247860   0.178   2.433   2.102 -0.1317 -0.1598  0.0249
 8790TIP3    H147861   0.210   2.481   2.178 -2.6302  1.2927  0.2073
 8790TIP3    H247862   0.165   2.500   2.035  1.1719 -1.3033 -1.4187
 8791TIP3   OH247863   4.893   5.276   6.540 -0.6874 -0.2645 -0.0747
 8791TIP3    H147864   4.801   5.298   6.534 -0.1383  2.8643  2.0299
 8791TIP3    H247865   4.911   5.269   6.634  1.6457  1.2146 -0.3684
 8792TIP3   OH247866   1.541   3.482   5.689 -0.3233 -0.0221  0.1827
 8792TIP3    H147867   1.617   3.431   5.716 -0.4429  0.1984  0.9540
 8792TIP3    H247868   1.470   3.451   5.746 -0.6307  0.3018 -0.0186
 8793TIP3   OH247869   0.264   4.560  14.990  0.1822 -0.0615  0.1824
 8793TIP3    H147870   0.267   4.588  15.081  0.2243  0.9607 -0.1332
 8793TIP3    H247871   0.243   4.466  14.995 -0.8202  0.2107  1.1961
 8794TIP3   OH247872   4.787   3.947  12.508 -0.4637  0.3053  0.2238
 8794TIP3    H147873   4.823   3.867  12.471 -1.1072  0.8621 -1.7378
 8794TIP3    H247874   4.858   4.011  12.502 -0.1700  0.0557  1.1256
 8795TIP3   OH247875   1.694   5.189   4.496  1.0545  0.0715  0.2294
 8795TIP3    H147876   1.721   5.239   4.418  2.3681  0.4880  0.9395
 8795TIP3    H247877   1.746   5.226   4.567 -1.0178  0.5228  1.5501
 8796TIP3   OH247878   6.093   0.302  14.113  0.1280 -0.8055  0.1078
 8796TIP3    H147879   6.027   0.255  14.062 -0.3123  0.8542 -0.8872
 8796TIP3    H247880   6.176   0.264  14.085 -0.0020  0.9030 -2.8179
 8797TIP3   OH247881   1.677   5.485  13.267 -0.0717 -0.2342 -0.2898
 8797TIP3    H147882   1.629   5.523  13.340  0.4098 -1.7564  0.8419
 8797TIP3    H247883   1.769   5.506  13.285  0.0870 -0.9565 -0.2481
 8798TIP3   OH247884   2.131   0.540   0.772  0.3575  0.1094  0.5315
 8798TIP3    H147885   2.096   0.453   0.753 -1.4773  1.3138 -1.8367
 8798TIP3    H247886   2.185   0.527   0.850  1.7704 -3.5459 -0.9080
 8799TIP3   OH247887   5.558   4.135   3.213  0.1119 -0.0877 -0.0587
 8799TIP3    H147888   5.629   4.097   3.161  0.5756  1.0480 -0.2601
 8799TIP3    H247889   5.479   4.118   3.163  0.3764 -0.3583 -0.3851
 8800TIP3   OH247890   0.827   0.749   4.964  0.1812 -0.1430  0.0916
 8800TIP3    H147891   0.796   0.693   4.893 -0.1012  1.1540 -0.8358
 8800TIP3    H247892   0.922   0.736   4.964  0.0428 -1.2174  0.4125
 8801TIP3   OH247893   2.687   5.005  11.643  0.4432 -0.1070 -0.0904
 8801TIP3    H147894   2.741   5.081  11.666 -0.4446  0.0367  1.5999
 8801TIP3    H247895   2.655   5.025  11.555  0.2292  1.4866  0.3242
 8802TIP3   OH247896   6.626   6.372  16.805 -0.2331  0.3431  0.2941
 8802TIP3    H147897   6.694   6.379  16.872 -0.0850 -0.0820  0.1849
 8802TIP3    H247898   6.654   6.434  16.737 -0.2064  0.5230  0.4649
 8803TIP3   OH247899   6.562   2.108  12.275 -0.0128  0.0820 -0.0559
 8803TIP3    H147900   6.507   2.143  12.205 -2.0752 -1.1479  0.9078
 8803TIP3    H247901   6.605   2.185  12.313  0.4293  0.8488 -2.0637
 8804TIP3   OH247902   5.681   3.707   2.027 -0.2082 -0.1825  0.4708
 8804TIP3    H147903   5.698   3.764   1.953  0.0365 -1.1090 -0.1982
 8804TIP3    H247904   5.718   3.753   2.102 -1.5822  1.3436  0.2282
 8805TIP3   OH247905   3.861   5.128   0.596 -0.3403  0.7806 -0.2231
 8805TIP3    H147906   3.877   5.197   0.660 -1.9513 -0.0609  1.1007
 8805TIP3    H247907   3.832   5.053   0.647 -0.1333 -0.4077 -1.7959
 8806TIP3   OH247908   4.726   5.458  17.171  0.0430  0.0261 -0.1347
 8806TIP3    H147909   4.759   5.425  17.255  1.3310  0.4919 -0.4501
 8806TIP3    H247910   4.726   5.382  17.113  1.8572  0.3042 -0.5157
 8807TIP3   OH247911   1.818   3.741   5.499 -0.2263 -0.7641  0.1731
 8807TIP3    H147912   1.905   3.699   5.501  0.4915  0.6540 -0.8156
 8807TIP3    H247913   1.771   3.695   5.430 -0.8740 -2.7012  1.8703
 8808TIP3   OH247914   3.353   0.756  15.378 -1.0334  0.0443  0.5796
 8808TIP3    H147915   3.317   0.682  15.427 -1.3534 -0.6061 -0.6466
 8808TIP3    H247916   3.337   0.735  15.286  0.5220  0.7749  0.1296
 8809TIP3   OH247917   2.650   1.177  15.324  0.9279  0.3035  1.0622
 8809TIP3    H147918   2.707   1.155  15.397  0.8760 -1.3798  0.6266
 8809TIP3    H247919   2.698   1.149  15.246 -0.3794 -0.9361  0.6770
 8810TIP3   OH247920   4.985   2.563   5.676 -0.2841 -0.1274  0.3689
 8810TIP3    H147921   4.950   2.475   5.691 -0.9431  0.3052  1.4055
 8810TIP3    H247922   4.912   2.612   5.640  0.5556 -0.4418 -1.8538
 8811TIP3   OH247923   2.945   5.630  16.164  0.3060 -0.0570  0.3915
 8811TIP3    H147924   2.895   5.712  16.156 -0.7945 -0.6161  1.2996
 8811TIP3    H247925   3.019   5.653  16.221  1.2063  0.8217 -1.1015
 8812TIP3   OH247926   4.812   6.605   4.805 -0.1982  0.3635  0.0746
 8812TIP3    H147927   4.845   6.694   4.819 -0.6837  0.4425  0.7768
 8812TIP3    H247928   4.718   6.616   4.793 -0.4853 -0.1757  1.6402
 8813TIP3   OH247929   1.007   1.616  13.057 -0.4178  0.0758  0.1883
 8813TIP3    H147930   0.995   1.700  13.013 -1.0828  0.8951  1.8771
 8813TIP3    H247931   0.923   1.571  13.046 -0.4601  0.1270  0.3009
 8814TIP3   OH247932   2.534   1.970   5.651 -0.2032  0.4055  0.1149
 8814TIP3    H147933   2.560   2.032   5.583  0.9547  0.7762  0.8785
 8814TIP3    H247934   2.472   1.911   5.608  0.8780  0.3487 -1.3897
 8815TIP3   OH247935   0.253   4.892  14.615 -0.2269  0.1878  0.0048
 8815TIP3    H147936   0.292   4.805  14.625 -0.3527  0.1454  0.1313
 8815TIP3    H247937   0.327   4.952  14.612 -0.1596  0.1227  0.3927
 8816TIP3   OH247938   3.213   1.634  17.269 -0.4140 -0.3863  0.1346
 8816TIP3    H147939   3.126   1.627  17.308 -0.5498 -2.9548 -0.5829
 8816TIP3    H247940   3.219   1.559  17.210  2.1063  0.0480 -0.1919
 8817TIP3   OH247941   1.510   0.148  11.521  0.2004  0.5671  1.3837
 8817TIP3    H147942   1.551   0.079  11.471  1.4898  1.0139  1.8181
 8817TIP3    H247943   1.471   0.103  11.597  0.2516  0.2134  1.2012
 8818TIP3   OH247944   2.920   6.023  17.242  0.1186 -0.0070 -0.1598
 8818TIP3    H147945   2.905   6.117  17.236 -0.7627 -0.0773  0.9466
 8818TIP3    H247946   2.838   5.984  17.213  0.1399 -0.4309  0.3456
 8819TIP3   OH247947   6.580   4.236  13.014  0.3038  0.2760  0.3250
 8819TIP3    H147948   6.643   4.202  13.078 -0.6113 -2.8093 -0.3165
 8819TIP3    H247949   6.498   4.243  13.062  0.0306 -0.3193 -0.0540
 8820TIP3   OH247950   5.413   5.588   2.143 -0.2168  0.3717  0.1973
 8820TIP3    H147951   5.459   5.668   2.116  3.3032 -2.0604 -1.3506
 8820TIP3    H247952   5.378   5.553   2.061  0.2235 -0.8676  0.5373
 8821TIP3   OH247953   5.547   6.335   6.085 -1.0525  0.3809  0.4326
 8821TIP3    H147954   5.519   6.406   6.142 -1.2830  1.0877 -0.5398
 8821TIP3    H247955   5.640   6.322   6.106 -1.4415 -0.2090  1.8260
 8822TIP3   OH247956   6.638   3.196   5.842  0.1965 -0.4422  0.6060
 8822TIP3    H147957   6.641   3.281   5.885  0.3813 -1.0531  1.8152
 8822TIP3    H247958   6.560   3.200   5.787 -0.4648  0.0778  1.5668
 8823TIP3   OH247959   0.972   6.435  17.216 -0.3264  0.4625 -0.0657
 8823TIP3    H147960   1.012   6.501  17.272  0.2664  0.1615 -0.1345
 8823TIP3    H247961   1.045   6.385  17.181 -0.6537  1.0145 -1.5686
 8824TIP3   OH247962   2.207   0.097   1.164 -0.5175 -0.2301 -1.0442
 8824TIP3    H147963   2.218   0.010   1.126 -0.5333 -0.4548 -0.5411
 8824TIP3    H247964   2.119   0.095   1.203  0.0575 -0.4925  0.2629
 8825TIP3   OH247965   0.341   4.384   0.465  0.4448  0.5971 -0.5392
 8825TIP3    H147966   0.364   4.402   0.556  0.7323 -1.2228 -0.2316
 8825TIP3    H247967   0.251   4.413   0.456 -0.1857 -0.8950  0.8327
 8826TIP3   OH247968   1.974   5.603  13.624  0.2516 -0.5684  0.2369
 8826TIP3    H147969   1.899   5.546  13.638  0.8593 -0.7630  2.9515
 8826TIP3    H247970   1.995   5.637  13.711  0.5061  3.0527 -1.1415
 8827TIP3   OH247971   0.279   6.282   4.443  0.3286  0.2569  0.6261
 8827TIP3    H147972   0.359   6.238   4.415 -0.2761 -0.8287  0.5781
 8827TIP3    H247973   0.228   6.213   4.487 -1.0889  0.6616 -0.3649
 8828TIP3   OH247974   3.852   0.885  16.677  0.1117  0.1670 -0.3063
 8828TIP3    H147975   3.900   0.936  16.742 -0.2399  1.3240 -0.9329
 8828TIP3    H247976   3.912   0.875  16.603 -0.2308  0.7094 -0.6654
 8829TIP3   OH247977   5.889   6.190   3.047 -0.6811 -0.1750  0.1664
 8829TIP3    H147978   5.945   6.115   3.026 -0.4076  0.5136 -1.5559
 8829TIP3    H247979   5.947   6.253   3.088 -0.4235  0.0888 -0.6076
 8830TIP3   OH247980   2.945   6.651  11.729 -0.3050  0.0710  0.1256
 8830TIP3    H147981   2.945   6.608  11.643  0.1536 -0.2727  0.2929
 8830TIP3    H247982   3.034   6.638  11.762 -0.1690  1.1284  0.1946
 8831TIP3   OH247983   0.309   0.142   5.382  0.3003 -0.3490 -0.6280
 8831TIP3    H147984   0.273   0.069   5.331 -0.8880 -0.4866  0.3887
 8831TIP3    H247985   0.351   0.198   5.317 -2.1252  0.0285 -1.9349
 8832TIP3   OH247986   5.176   5.409  14.754  0.1439  0.0731 -0.3191
 8832TIP3    H147987   5.084   5.428  14.774  0.5626  3.5658 -1.2903
 8832TIP3    H247988   5.223   5.432  14.834  0.0745 -3.0084  0.6421
 8833TIP3   OH247989   0.972   3.915   2.961 -0.4306  0.4038 -0.4303
 8833TIP3    H147990   0.937   4.003   2.974 -0.8213  0.3931 -1.3779
 8833TIP3    H247991   1.000   3.913   2.870  0.4969 -0.1412 -0.1422
 8834TIP3   OH247992   5.571   6.162   6.951 -0.0867  0.0025 -0.1510
 8834TIP3    H147993   5.492   6.109   6.936  0.8883 -1.4139 -0.4503
 8834TIP3    H247994   5.582   6.212   6.870  0.3760 -1.2404 -0.8809
 8835TIP3   OH247995   2.354   2.256  15.149  0.2082 -0.1263 -0.6372
 8835TIP3    H147996   2.382   2.177  15.197  1.0677 -0.6001 -1.8894
 8835TIP3    H247997   2.264   2.271  15.178  0.6778 -0.4540  1.0526
 8836TIP3   OH247998   2.342   6.598  16.945 -0.1392  0.5176 -0.5375
 8836TIP3    H147999   2.272   6.604  17.010  0.2006 -0.5455 -0.0609
 8836TIP3    H248000   2.377   6.687  16.938 -0.8832  0.8478 -0.0524
 8837TIP3   OH248001   1.099   0.508   3.365 -0.6477 -0.4201 -0.1470
 8837TIP3    H148002   1.025   0.484   3.308 -2.5459 -1.1839  2.4975
 8837TIP3    H248003   1.104   0.603   3.360 -0.0492 -0.5630 -2.4525
 8838TIP3   OH248004   6.108   1.546   7.007 -0.1908 -0.2429 -0.3995
 8838TIP3    H148005   6.028   1.514   7.050  0.6052 -0.6892  0.7785
 8838TIP3    H248006   6.077   1.583   6.924 -1.8217  0.9623  0.7067
 8839TIP3   OH248007   5.235   4.868  12.755 -0.7103 -0.2056  0.2641
 8839TIP3    H148008   5.327   4.848  12.742 -0.1134  0.9702  2.4432
 8839TIP3    H248009   5.198   4.788  12.793 -0.4876 -0.5231 -0.1905
 8840TIP3   OH248010   6.246   2.897  15.336  0.1165 -0.0223  0.0843
 8840TIP3    H148011   6.207   2.817  15.372 -0.7219  0.7346  0.8542
 8840TIP3    H248012   6.340   2.884  15.347  0.0789 -1.4672 -0.9771
 8841TIP3   OH248013   5.188   5.035   3.062 -0.3554  0.0960 -0.2423
 8841TIP3    H148014   5.140   5.117   3.051  0.7421  0.4403 -2.8119
 8841TIP3    H248015   5.239   5.048   3.142 -2.5111  0.6995  1.0979
 8842TIP3   OH248016   6.407   2.560   5.401 -0.4680  0.8343 -0.7349
 8842TIP3    H148017   6.500   2.542   5.388 -0.2124  1.7835 -0.2423
 8842TIP3    H248018   6.401   2.595   5.490 -1.1110  2.0595 -1.2494
 8843TIP3   OH248019   3.125   1.941  16.135  0.7285 -0.3720  0.3987
 8843TIP3    H148020   3.083   2.027  16.136  1.6359  0.0621  1.7084
 8843TIP3    H248021   3.113   1.910  16.045 -1.7835  0.0285  0.5558
 8844TIP3   OH248022   3.953   2.754  15.539 -0.7061 -0.0707 -0.6420
 8844TIP3    H148023   4.010   2.693  15.492  0.5494 -0.6927  1.6353
 8844TIP3    H248024   3.926   2.817  15.472  1.4578 -0.6177 -2.0880
 8845TIP3   OH248025   2.718   5.032  12.327  0.1654 -0.0938  0.3437
 8845TIP3    H148026   2.714   4.963  12.261 -1.4259  0.6416 -0.3473
 8845TIP3    H248027   2.812   5.049  12.338  0.4545 -0.1196 -1.8488
 8846TIP3   OH248028   3.251   3.413  15.256 -0.1632 -0.3098  0.0671
 8846TIP3    H148029   3.291   3.329  15.235 -0.9579 -1.2832  2.2935
 8846TIP3    H248030   3.297   3.443  15.334 -1.3468  0.2632  0.5614
 8847TIP3   OH248031   4.673   4.760   2.233  0.1797  0.5090  0.3792
 8847TIP3    H148032   4.691   4.771   2.139  3.9666  1.3786  1.1335
 8847TIP3    H248033   4.608   4.828   2.252  2.1710  2.8662 -0.8861
 8848TIP3   OH248034   0.378   2.861  16.997 -0.0452 -0.4383 -0.4399
 8848TIP3    H148035   0.324   2.935  17.022  1.6557  1.2942 -1.7675
 8848TIP3    H248036   0.328   2.818  16.927  0.6622  1.6789 -2.2977
 8849TIP3   OH248037   2.197   4.976   1.673  0.1854 -0.4914 -0.4673
 8849TIP3    H148038   2.218   4.975   1.766 -1.8342 -1.0164  0.0072
 8849TIP3    H248039   2.123   5.036   1.665  0.8455  0.1602 -1.8540
 8850TIP3   OH248040   4.069   2.370  16.549 -0.4860  0.8631  0.6238
 8850TIP3    H148041   3.995   2.351  16.607 -1.3374 -1.9728 -1.3091
 8850TIP3    H248042   4.045   2.331  16.465  3.8090 -1.5039  0.3341
 8851TIP3   OH248043   3.490   5.143  11.190  0.0896 -0.3786 -0.0795
 8851TIP3    H148044   3.468   5.236  11.189  1.5118 -0.0302 -1.2666
 8851TIP3    H248045   3.578   5.139  11.150  0.1436 -2.1938  0.1821
 8852TIP3   OH248046   2.821   1.020  14.601 -0.0075 -0.0430 -0.0962
 8852TIP3    H148047   2.844   0.927  14.606 -1.2521 -0.3255  0.4371
 8852TIP3    H248048   2.754   1.031  14.668 -0.1455  1.1587 -0.4351
 8853TIP3   OH248049   2.938   1.109   6.081 -0.1575  0.1795 -0.4460
 8853TIP3    H148050   2.998   1.067   6.142  0.9795  1.0056 -0.9726
 8853TIP3    H248051   2.881   1.162   6.137 -0.2524 -0.4240  0.0391
 8854TIP3   OH248052   4.560   1.503   4.744 -0.4714  0.0100  0.1364
 8854TIP3    H148053   4.521   1.445   4.679  0.6417  0.2517 -0.7670
 8854TIP3    H248054   4.510   1.487   4.824 -1.3730 -0.8310 -0.5840
 8855TIP3   OH248055   3.896   1.116   2.272  0.6514 -0.2466 -0.2518
 8855TIP3    H148056   3.825   1.095   2.212  0.6924  1.1239 -0.7962
 8855TIP3    H248057   3.911   1.209   2.259  1.9085 -0.3324  0.5535
 8856TIP3   OH248058   1.289   3.285  16.543  1.1494  0.4371  0.2257
 8856TIP3    H148059   1.365   3.291  16.602  1.6991  0.1936 -0.4472
 8856TIP3    H248060   1.320   3.324  16.462  0.2423  1.1980  0.2454
 8857TIP3   OH248061   3.460   1.256   0.026 -0.2294 -0.4162 -1.1257
 8857TIP3    H148062   3.373   1.283   0.056 -0.8496 -1.4564 -1.9806
 8857TIP3    H248063   3.444   1.201  -0.050  1.2675  0.8960 -2.4365
 8858TIP3   OH248064   2.352   6.157   4.245  0.7462  0.3907  0.3319
 8858TIP3    H148065   2.429   6.118   4.286  1.8651  1.0911 -1.0976
 8858TIP3    H248066   2.327   6.096   4.177 -0.2968 -0.0957  1.1351
 8859TIP3   OH248067   4.341   6.093  14.345 -0.0079  0.3652 -0.8026
 8859TIP3    H148068   4.342   6.186  14.321 -0.6998  0.1740 -1.5815
 8859TIP3    H248069   4.263   6.083  14.399  0.4909  0.3904 -0.0692
 8860TIP3   OH248070   5.988   1.135  14.696 -0.1570  0.6814 -0.3972
 8860TIP3    H148071   5.974   1.050  14.737 -1.1666  1.0616  0.0826
 8860TIP3    H248072   5.903   1.156  14.655 -0.0878  1.6879 -0.0489
 8861TIP3   OH248073   5.943   5.739  13.721 -0.1883  0.1656 -0.4663
 8861TIP3    H148074   5.873   5.736  13.787  0.1550  0.6814 -0.0781
 8861TIP3    H248075   6.014   5.688  13.759 -0.0489  0.3283 -0.5136
 8862TIP3   OH248076   4.962   2.431   5.189  0.5382 -0.1053  0.4704
 8862TIP3    H148077   5.029   2.465   5.129  1.5948 -1.4543  0.8600
 8862TIP3    H248078   5.012   2.390   5.260 -0.7100  0.2727  1.5837
 8863TIP3   OH248079   1.163   2.920  13.956 -0.5648 -0.0663  0.2707
 8863TIP3    H148080   1.080   2.873  13.954 -0.8237  0.3917 -1.7969
 8863TIP3    H248081   1.225   2.858  13.993 -1.7598 -0.5186  1.5540
 8864TIP3   OH248082   4.664   3.146  14.258  0.2431  0.0496 -0.4952
 8864TIP3    H148083   4.623   3.068  14.221 -0.6267  0.2709 -0.0234
 8864TIP3    H248084   4.737   3.165  14.199 -0.1963 -0.4881 -1.2239
 8865TIP3   OH248085   3.403   2.652   3.109  0.3827 -0.2068 -0.1047
 8865TIP3    H148086   3.309   2.636   3.101 -0.0576  0.3321  3.2790
 8865TIP3    H248087   3.439   2.569   3.138  0.9939 -0.4876 -1.6734
 8866TIP3   OH248088   5.117   3.895   1.264 -0.6926  0.3068  0.2501
 8866TIP3    H148089   5.102   3.922   1.355 -1.2717  0.2597  0.1695
 8866TIP3    H248090   5.107   3.975   1.213 -2.0653  0.0194  0.0492
 8867TIP3   OH248091   5.677   0.114   0.467  0.1447 -0.0302  0.1321
 8867TIP3    H148092   5.669   0.189   0.407 -2.0823 -0.4534 -0.1392
 8867TIP3    H248093   5.771   0.102   0.477  0.5653  0.5136 -2.7127
 8868TIP3   OH248094   1.978   0.447   0.123  0.0065  0.0678  0.0599
 8868TIP3    H148095   2.031   0.424   0.047  0.5289  1.0330  0.1336
 8868TIP3    H248096   2.024   0.520   0.165 -1.3542  0.9065  0.1442
 8869TIP3   OH248097   4.135   1.930   4.279  0.1144 -0.3753  0.1078
 8869TIP3    H148098   4.174   1.888   4.203 -0.7999 -0.4326 -0.3338
 8869TIP3    H248099   4.156   1.871   4.352 -0.6532 -1.3064 -0.4101
 8870TIP3   OH248100   5.146   2.013  16.717  0.0839  0.8011  0.2464
 8870TIP3    H148101   5.157   2.079  16.648 -0.6131  0.8330  0.1568
 8870TIP3    H248102   5.092   1.945  16.676  0.5010  0.3478  0.4553
 8871TIP3   OH248103   6.338   5.278   5.021 -0.1244 -0.2075  0.2077
 8871TIP3    H148104   6.296   5.256   4.938 -1.5298  0.8974  0.6071
 8871TIP3    H248105   6.293   5.223   5.085  0.6724 -0.7518  0.3094
 8872TIP3   OH248106   6.021   0.499   5.735 -0.2438  1.0336 -0.4797
 8872TIP3    H148107   5.992   0.472   5.648  2.3390 -1.2435 -0.7024
 8872TIP3    H248108   5.987   0.431   5.794  1.6658  0.1838 -0.3144
 8873TIP3   OH248109   5.266   6.764   2.360 -0.3362 -0.3806  0.0799
 8873TIP3    H148110   5.356   6.763   2.327  0.0929  1.9418  1.0825
 8873TIP3    H248111   5.215   6.802   2.289 -0.4847 -1.3577 -0.3466
 8874TIP3   OH248112   6.326   3.170  11.763 -0.0114 -0.0066 -0.0183
 8874TIP3    H148113   6.233   3.170  11.742  0.4431 -0.3317 -2.1327
 8874TIP3    H248114   6.331   3.211  11.849 -2.0436  0.6398 -0.1769
 8875TIP3   OH248115   6.256   5.332   2.316 -0.3366  0.5839  0.0571
 8875TIP3    H148116   6.220   5.383   2.244 -1.4024 -1.4521 -0.9043
 8875TIP3    H248117   6.183   5.323   2.378 -0.3499 -0.2655 -0.0699
 8876TIP3   OH248118   0.913   3.046  15.671 -0.2552  0.0495  0.4015
 8876TIP3    H148119   0.866   3.128  15.655 -1.4977 -0.6318  0.4483
 8876TIP3    H248120   0.871   2.983  15.612  0.6203 -0.5726  0.4448
 8877TIP3   OH248121   1.558   0.204  14.929  0.0853 -0.0495  0.0081
 8877TIP3    H148122   1.549   0.258  14.851  0.2393  1.0470  0.7342
 8877TIP3    H248123   1.470   0.169  14.946 -0.2113  0.7324  0.0715
 8878TIP3   OH248124   1.169   1.195   4.854  0.1213 -0.7549  0.0541
 8878TIP3    H148125   1.234   1.259   4.882  0.1265 -0.8128  0.1713
 8878TIP3    H248126   1.135   1.231   4.772  0.8768 -1.1295 -0.4238
 8879TIP3   OH248127   6.355   5.277  12.290  0.4049  0.3516 -0.3061
 8879TIP3    H148128   6.326   5.305  12.377  1.2831 -0.0151  0.1090
 8879TIP3    H248129   6.419   5.344  12.264  0.4193  0.2582 -0.5098
 8880TIP3   OH248130   6.680   3.534   3.382  0.0444  0.1379  0.5378
 8880TIP3    H148131   6.625   3.606   3.414  0.1102  0.0618  0.8238
 8880TIP3    H248132   6.687   3.474   3.457  1.0941  0.4851  0.7243
 8881TIP3   OH248133   2.572   1.211   3.873 -0.0075 -0.2400 -0.1513
 8881TIP3    H148134   2.554   1.243   3.961 -0.9927 -1.7400  0.2165
 8881TIP3    H248135   2.604   1.287   3.825 -2.0593  1.2436  0.7693
 8882TIP3   OH248136   6.266   1.695   0.956 -0.2380 -0.1458  1.2399
 8882TIP3    H148137   6.254   1.680   1.050  2.4056  0.7947  1.7901
 8882TIP3    H248138   6.351   1.657   0.936 -1.5586 -1.9412 -1.2122
 8883TIP3   OH248139   6.641   3.748   4.070  0.3220  0.2043 -0.2052
 8883TIP3    H148140   6.586   3.692   4.015  0.7267  1.1691 -1.6360
 8883TIP3    H248141   6.724   3.702   4.076 -0.3128 -0.7834  1.1354
 8884TIP3   OH248142   1.344   2.262   2.366 -0.5380  0.2790  0.4986
 8884TIP3    H148143   1.369   2.176   2.398  0.4584  0.0064 -0.9715
 8884TIP3    H248144   1.285   2.245   2.293  3.3939  0.6491 -2.9643
 8885TIP3   OH248145   1.095   0.221   2.041 -0.6494 -0.4798  0.5942
 8885TIP3    H148146   1.055   0.294   2.089  2.1875  0.8765  1.0067
 8885TIP3    H248147   1.127   0.259   1.960  0.6876 -1.2598  0.7232
 8886TIP3   OH248148   6.248   0.945  16.949  0.7068  0.0316  0.6347
 8886TIP3    H148149   6.327   0.908  16.910  1.7521  1.1562  1.6349
 8886TIP3    H248150   6.256   0.925  17.042  0.1014  0.6668  0.8261
 8887TIP3   OH248151   5.218   2.996   6.117 -0.0534 -0.2268  0.0360
 8887TIP3    H148152   5.203   3.002   6.212  0.9475 -0.8254  0.2370
 8887TIP3    H248153   5.168   2.920   6.089 -0.6224  0.1504  0.0266
 8888TIP3   OH248154   5.652   4.060   0.334 -0.0353 -0.1142 -0.7454
 8888TIP3    H148155   5.574   4.094   0.291 -0.2709 -1.5724 -1.5059
 8888TIP3    H248156   5.654   3.967   0.311  0.9540 -0.4835  0.7224
 8889TIP3   OH248157   0.203   3.770   2.935 -0.0695  0.3263  0.2035
 8889TIP3    H148158   0.122   3.811   2.903  1.5026  2.4893 -1.0688
 8889TIP3    H248159   0.235   3.720   2.860  0.5720  0.6895  0.2368
 8890TIP3   OH248160   1.187   5.056  12.414  0.1675  0.1784  0.2681
 8890TIP3    H148161   1.130   4.984  12.440  0.1071  0.4204  0.8122
 8890TIP3    H248162   1.210   5.037  12.323 -0.3116 -0.2240  0.2291
 8891TIP3   OH248163   2.547   0.694   3.230  0.2618  1.0392 -0.4867
 8891TIP3    H148164   2.559   0.649   3.146 -3.0362 -0.7107 -0.1133
 8891TIP3    H248165   2.505   0.777   3.206 -1.7375  0.0450 -0.5301
 8892TIP3   OH248166   4.618   5.699  12.735 -0.3710  0.2216 -0.3034
 8892TIP3    H148167   4.546   5.679  12.795 -0.7375  0.9014 -0.5098
 8892TIP3    H248168   4.585   5.771  12.681 -0.7887 -1.6979 -2.6497
 8893TIP3   OH248169   4.787   6.029   4.096  0.3252 -0.1941 -0.0940
 8893TIP3    H148170   4.814   6.059   4.182  0.5906  0.9765 -0.5719
 8893TIP3    H248171   4.766   6.109   4.048  0.7360 -0.7871 -1.2910
 8894TIP3   OH248172   6.170   0.894   5.022  0.3875  0.0593  0.0803
 8894TIP3    H148173   6.196   0.840   5.097  0.8661  0.1249 -0.0388
 8894TIP3    H248174   6.075   0.882   5.016  0.6461 -1.7828 -0.7039
 8895TIP3   OH248175   6.723   1.469   5.292 -0.5152  0.2837  0.5149
 8895TIP3    H148176   6.767   1.442   5.372  1.2457 -1.0153 -0.8818
 8895TIP3    H248177   6.630   1.467   5.314 -0.0922 -1.0382  2.2236
 8896TIP3   OH248178   2.368   3.675   2.468 -0.3384  0.3901 -0.2300
 8896TIP3    H148179   2.357   3.668   2.563  0.4125 -0.8276 -0.2172
 8896TIP3    H248180   2.463   3.668   2.455 -0.4482  0.5025 -1.0784
 8897TIP3   OH248181   5.844   3.243   3.893 -0.1958  0.3383 -0.2727
 8897TIP3    H148182   5.750   3.261   3.893 -0.0359  1.4470 -2.8978
 8897TIP3    H248183   5.850   3.150   3.915 -1.8049  0.6034  1.3972
 8898TIP3   OH248184   0.528   1.174   4.053  0.2474 -0.2062  0.5812
 8898TIP3    H148185   0.574   1.119   3.990  1.7409  0.7006  0.8605
 8898TIP3    H248186   0.555   1.141   4.139  0.7149  0.6006  0.7477
 8899TIP3   OH248187   2.040   3.721   4.708  0.1605  0.1353  0.0074
 8899TIP3    H148188   1.964   3.773   4.683 -1.3925 -2.3065 -0.5239
 8899TIP3    H248189   2.038   3.719   4.803  0.7918  1.8202  0.0683
 8900TIP3   OH248190   6.400   0.198   4.726  0.0918 -0.5071 -0.1058
 8900TIP3    H148191   6.460   0.143   4.677  0.6952 -1.9630  2.1703
 8900TIP3    H248192   6.318   0.147   4.730  0.4756 -1.0499  1.5145
 8901TIP3   OH248193   2.014   5.087   4.508 -0.1885 -0.4223  0.5654
 8901TIP3    H148194   2.073   5.098   4.583 -1.2397 -1.1780  1.5301
 8901TIP3    H248195   1.926   5.090   4.547 -0.8252  1.4178 -0.9379
 8902TIP3   OH248196   6.463   2.885  15.557 -0.0049 -0.1745  0.3346
 8902TIP3    H148197   6.432   2.836  15.634 -1.4904  0.6813  0.2911
 8902TIP3    H248198   6.446   2.976  15.578  1.5005  0.2281 -0.1669
 8903TIP3   OH248199   2.797   1.079   2.018  0.1532  0.1862 -0.1279
 8903TIP3    H148200   2.852   1.004   1.995 -0.2515  0.6755 -2.9064
 8903TIP3    H248201   2.721   1.041   2.062 -0.2805 -1.0899 -1.9405
 8904TIP3   OH248202   1.899   5.626   3.088  0.0002 -0.5079 -0.4713
 8904TIP3    H148203   1.824   5.620   3.030 -0.2086 -2.3816 -0.0569
 8904TIP3    H248204   1.913   5.536   3.118  1.4808  0.0615  0.6186
 8905TIP3   OH248205   3.701   2.916   0.453 -0.4708  0.0878 -0.0131
 8905TIP3    H148206   3.707   2.821   0.463 -0.4379  0.2716  2.1070
 8905TIP3    H248207   3.607   2.935   0.461 -0.3344  0.3516  1.1407
 8906TIP3   OH248208   5.091   2.038  11.029  0.0466  0.4131 -0.3384
 8906TIP3    H148209   5.149   1.997  10.965  1.5908  0.6279  0.8757
 8906TIP3    H248210   5.003   2.011  11.003  0.8730 -1.9275 -0.8022
 8907TIP3   OH248211   4.637   3.381   3.496 -0.1044  0.8476 -0.0510
 8907TIP3    H148212   4.698   3.454   3.502  0.3778  0.4494 -0.1121
 8907TIP3    H248213   4.596   3.377   3.582  2.0492 -0.7072  0.9197
 8908TIP3   OH248214   6.609   0.510   1.590 -0.1941  0.2825 -0.4784
 8908TIP3    H148215   6.553   0.504   1.668  0.4536  0.1142 -0.0219
 8908TIP3    H248216   6.673   0.577   1.612  2.2951 -2.3347  0.6188
 8909TIP3   OH248217   3.170   1.297   3.758  0.0060  0.0438  0.1741
 8909TIP3    H148218   3.184   1.217   3.809 -1.1217 -0.2315  0.0578
 8909TIP3    H248219   3.084   1.286   3.718  0.1819  0.9719 -0.4863
 8910TIP3   OH248220   1.242   0.049   0.868  0.4246  0.2908 -0.1004
 8910TIP3    H148221   1.291   0.110   0.813 -0.0578 -0.7479 -1.7186
 8910TIP3    H248222   1.162   0.031   0.819 -0.1312 -0.4621  1.0612
 8911TIP3   OH248223   2.997   1.900  15.661  0.0634 -0.1454  0.1885
 8911TIP3    H148224   2.903   1.887  15.679  0.0790 -0.8306 -0.2280
 8911TIP3    H248225   3.009   1.995  15.665 -0.0782 -0.1957  3.1710
 8912TIP3   OH248226   6.683   3.944   2.556 -0.4620 -0.2458  0.0146
 8912TIP3    H148227   6.682   4.006   2.483  4.2226  0.5686  0.4671
 8912TIP3    H248228   6.651   3.862   2.518 -1.5885  1.0693 -1.9848
 8913TIP3   OH248229   2.574   1.296   4.689 -0.2170 -0.2710 -0.0711
 8913TIP3    H148230   2.563   1.269   4.598 -0.3508  0.0403 -0.1486
 8913TIP3    H248231   2.503   1.358   4.705 -1.2777 -1.6942  0.8035
 8914TIP3   OH248232   6.503   5.703  13.034  0.0352  0.1966  0.0602
 8914TIP3    H148233   6.544   5.772  12.982 -0.9322  1.3006  0.7158
 8914TIP3    H248234   6.524   5.622  12.989  3.3290  0.6734  0.6202
 8915TIP3   OH248235   6.185   0.333  14.883  0.0099  0.1990  0.2893
 8915TIP3    H148236   6.135   0.372  14.812 -1.0849 -0.0703  0.9060
 8915TIP3    H248237   6.151   0.244  14.890 -0.8650  0.6587  2.0712
 8916TIP3   OH248238   3.545   1.842  16.104  0.6516 -0.1268  0.0317
 8916TIP3    H148239   3.537   1.856  16.010 -2.2201 -1.1124  0.0901
 8916TIP3    H248240   3.579   1.753  16.113 -0.1299 -0.4450 -0.0886
 8917TIP3   OH248241   0.366   4.567   1.903  0.3972  0.1590  0.5118
 8917TIP3    H148242   0.332   4.478   1.906  1.1971 -0.2002 -0.5970
 8917TIP3    H248243   0.300   4.617   1.854  1.0977 -0.3884 -1.0493
 8918TIP3   OH248244   5.172   0.839  13.920 -0.2538  1.0333 -0.7735
 8918TIP3    H148245   5.205   0.778  13.986  2.6815  0.0345 -3.0542
 8918TIP3    H248246   5.163   0.922  13.967 -0.9677 -0.2942  1.5398
 8919TIP3   OH248247   2.370   2.567  11.469  0.1579 -0.2483 -0.2472
 8919TIP3    H148248   2.425   2.634  11.428 -1.0065  0.1905 -1.1036
 8919TIP3    H248249   2.421   2.486  11.462  1.8802  0.6664  1.4278
 8920TIP3   OH248250   4.487   3.380  11.987  0.3177  0.3882  0.2856
 8920TIP3    H148251   4.408   3.346  11.945  1.3907 -0.5837 -0.9718
 8920TIP3    H248252   4.454   3.434  12.059 -1.4302 -2.4068  1.6401
 8921TIP3   OH248253   0.897   1.904  14.899 -0.5193  0.3251 -0.0023
 8921TIP3    H148254   0.951   1.829  14.922 -0.1871  0.9812  1.4548
 8921TIP3    H248255   0.832   1.870  14.837  0.3283 -0.8985 -0.2228
 8922TIP3   OH248256   3.357   3.403  13.729 -0.1987  0.2414  0.0325
 8922TIP3    H148257   3.428   3.452  13.771  0.6871 -0.3173 -0.7803
 8922TIP3    H248258   3.326   3.343  13.796  1.5844 -1.0360 -0.2410
 8923TIP3   OH248259   0.006   1.298  10.990 -0.5901  0.8996  0.3904
 8923TIP3    H148260  -0.006   1.391  11.009 -1.3877  0.9924 -0.4743
 8923TIP3    H248261  -0.073   1.274  10.941 -0.2029 -0.1366  0.2605
 8924TIP3   OH248262   2.520   6.387  12.066  0.2440 -0.9963  0.3260
 8924TIP3    H148263   2.464   6.454  12.104 -0.8357 -1.7686  0.1350
 8924TIP3    H248264   2.484   6.304  12.099  0.8846 -1.5381 -0.3042
 8925TIP3   OH248265   0.148   2.169  16.999 -1.0387  0.2305  0.3748
 8925TIP3    H148266   0.084   2.146  17.066 -0.7386 -0.9584  0.2645
 8925TIP3    H248267   0.143   2.098  16.935 -1.6088  1.5497 -1.0901
 8926TIP3   OH248268   4.311   6.069   5.897  0.2416  0.0026  0.0854
 8926TIP3    H148269   4.329   6.148   5.845  2.7622 -0.1475  0.6700
 8926TIP3    H248270   4.350   5.998   5.847 -1.2022 -0.7661  0.0347
 8927TIP3   OH248271   1.527   4.674  13.745  0.4596  0.1623 -0.6100
 8927TIP3    H148272   1.589   4.611  13.783 -0.0996 -0.2769 -0.4327
 8927TIP3    H248273   1.460   4.620  13.704 -0.5704  0.6454  0.4238
 8928TIP3   OH248274   1.386   1.850  15.664  0.2609  0.0754 -0.1034
 8928TIP3    H148275   1.481   1.863  15.664  0.4741 -1.2014 -2.0528
 8928TIP3    H248276   1.373   1.772  15.610 -1.8371 -0.3109  0.9212
 8929TIP3   OH248277   5.666   6.199   4.232 -0.3237  0.2460 -0.1276
 8929TIP3    H148278   5.618   6.188   4.314 -1.0423  0.7782 -0.4650
 8929TIP3    H248279   5.636   6.128   4.176 -0.8500  0.6729 -0.3950
 8930TIP3   OH248280   3.859   5.452  15.236  0.4390  0.1592  0.6662
 8930TIP3    H148281   3.886   5.536  15.200  0.1863  0.0729  0.2720
 8930TIP3    H248282   3.941   5.402  15.245  0.6429  0.6236  1.3574
 8931TIP3   OH248283   1.174   3.063  16.658  0.4698 -0.2841  0.1228
 8931TIP3    H148284   1.250   3.007  16.675  1.6307  0.9473 -1.0090
 8931TIP3    H248285   1.208   3.138  16.611 -1.5222  0.0776 -0.8221
 8932TIP3   OH248286   0.872   0.880   6.144  0.6533  0.4224 -0.4855
 8932TIP3    H148287   0.950   0.885   6.200  0.2014 -1.0079  0.2940
 8932TIP3    H248288   0.842   0.790   6.153  0.2958  0.2948 -2.6958
 8933TIP3   OH248289   0.891   5.586   5.739 -0.0106 -0.1379 -0.2090
 8933TIP3    H148290   0.796   5.575   5.727 -0.2088  0.0219  1.2031
 8933TIP3    H248291   0.917   5.514   5.796  0.4930  0.5913  0.4817
 8934TIP3   OH248292   4.470   4.813  13.245 -0.0269 -0.4983 -0.0996
 8934TIP3    H148293   4.419   4.792  13.323  0.4715 -1.1310  0.0599
 8934TIP3    H248294   4.558   4.783  13.265  0.4629  0.7814 -0.2861
 8935TIP3   OH248295   2.032   4.977  16.640  0.4525  0.5186 -0.2482
 8935TIP3    H148296   2.112   4.962  16.691  1.0583  2.2890 -0.6300
 8935TIP3    H248297   1.961   4.956  16.701  1.1777 -1.7615 -0.1244
 8936TIP3   OH248298   0.447   1.110  10.959  0.6233 -0.1571  0.3326
 8936TIP3    H148299   0.469   1.198  10.928  1.2152 -0.3591  0.1912
 8936TIP3    H248300   0.351   1.109  10.959  0.6137  0.4013  0.0866
 8937TIP3   OH248301   5.181   1.901  15.793  0.0313 -0.9840 -0.2329
 8937TIP3    H148302   5.271   1.877  15.814 -0.1673  0.0781  2.0183
 8937TIP3    H248303   5.128   1.840  15.845 -0.5424 -1.2377 -1.1163
 8938TIP3   OH248304   5.154   4.561  11.033 -0.0658 -0.0964  0.3191
 8938TIP3    H148305   5.059   4.563  11.040 -0.1820 -2.6928 -0.1396
 8938TIP3    H248306   5.177   4.645  10.991 -2.1146  0.5651  0.4822
 8939TIP3   OH248307   3.242   6.034  14.867 -0.1894  0.1087  0.1171
 8939TIP3    H148308   3.228   6.002  14.778 -0.5238  0.8859 -0.1090
 8939TIP3    H248309   3.154   6.036  14.906 -0.0698 -0.0249  0.3963
 8940TIP3   OH248310   0.329   4.442   1.618 -0.1063 -0.8952 -0.3538
 8940TIP3    H148311   0.287   4.470   1.537  0.1470  0.0465 -0.1635
 8940TIP3    H248312   0.257   4.432   1.680 -0.2305 -0.9791 -0.5108
 8941TIP3   OH248313   4.286   3.841   3.218  0.4635  0.1808  0.9112
 8941TIP3    H148314   4.213   3.857   3.159 -0.3889 -0.3305  1.8047
 8941TIP3    H248315   4.358   3.816   3.161 -0.5622 -1.0892  0.1353
 8942TIP3   OH248316   6.553   2.958  16.374  0.0473  0.5172 -0.0983
 8942TIP3    H148317   6.638   2.980  16.413  0.2064  0.6076 -0.4994
 8942TIP3    H248318   6.503   2.921  16.447  0.5043  0.2574  0.0858
 8943TIP3   OH248319   5.932   2.393   2.642 -0.0617  0.1231 -0.3985
 8943TIP3    H148320   6.016   2.434   2.621  0.2328  0.0738  0.6935
 8943TIP3    H248321   5.956   2.311   2.685 -0.6679 -0.3411 -0.9341
 8944TIP3   OH248322   6.273   1.090  15.290 -0.0766  0.5429  0.2772
 8944TIP3    H148323   6.275   1.005  15.246  1.0231  0.7996 -0.1933
 8944TIP3    H248324   6.355   1.132  15.264 -1.4528  2.5303 -1.0367
 8945TIP3   OH248325   0.002   0.122  15.582  0.2308  0.0951  0.2184
 8945TIP3    H148326  -0.008   0.027  15.584  0.7322  0.0238 -0.4352
 8945TIP3    H248327   0.089   0.136  15.545 -0.7768  0.8463 -1.9719
 8946TIP3   OH248328   2.474   3.262  16.277  0.4354  0.2925 -0.1015
 8946TIP3    H148329   2.548   3.318  16.255  0.1168  0.2783 -1.2621
 8946TIP3    H248330   2.509   3.199  16.340  0.9459  1.4086  0.7344
 8947TIP3   OH248331   4.046   1.211  14.011 -0.0875  0.2286 -0.0496
 8947TIP3    H148332   4.017   1.276  13.947 -0.5896  1.5248  1.4541
 8947TIP3    H248333   3.973   1.205  14.073  0.5366 -0.7442  0.6012
 8948TIP3   OH248334   0.231   1.239  16.517  0.4396 -0.3328 -0.6109
 8948TIP3    H148335   0.293   1.200  16.580  0.5563 -3.0808 -2.3433
 8948TIP3    H248336   0.256   1.331  16.514  1.1404 -0.3405  2.5326
 8949TIP3   OH248337   0.284   3.624   6.466 -0.4607 -0.8406 -0.2294
 8949TIP3    H148338   0.329   3.613   6.382  0.2943 -1.0091  0.1968
 8949TIP3    H248339   0.192   3.606   6.447 -0.2967 -0.8359 -1.0282
 8950TIP3   OH248340   6.303   0.845   0.979 -0.4955 -0.2857 -0.3514
 8950TIP3    H148341   6.338   0.811   1.061 -0.4059  2.9144  0.9735
 8950TIP3    H248342   6.212   0.868   0.999 -0.6871 -0.1218 -1.3457
 8951TIP3   OH248343   4.816   4.576  16.716  0.0767 -0.4084 -0.0515
 8951TIP3    H148344   4.777   4.494  16.746 -3.1256  1.3404  0.6916
 8951TIP3    H248345   4.790   4.582  16.624 -1.5780  0.8182  0.4753
 8952TIP3   OH248346   1.974   6.702   3.003 -0.1725  0.2002  0.6311
 8952TIP3    H148347   2.039   6.771   3.013  0.9450 -0.4796 -1.5418
 8952TIP3    H248348   1.989   6.642   3.076  0.4782  0.9728  1.1277
 8953TIP3   OH248349   6.286   5.009  13.900 -0.2127  0.0570 -0.3611
 8953TIP3    H148350   6.220   4.994  13.832 -1.0636 -1.1356  0.7250
 8953TIP3    H248351   6.249   5.078  13.955 -0.4027 -0.3596  0.0374
 8954TIP3   OH248352   0.845   6.488  16.984  0.2128 -0.6141 -0.2658
 8954TIP3    H148353   0.892   6.564  16.949  1.2535 -1.0424  0.2086
 8954TIP3    H248354   0.900   6.456  17.055 -0.6480 -1.3051  0.0913
 8955TIP3   OH248355   0.419   0.685   5.393  0.3394  1.1609  0.1442
 8955TIP3    H148356   0.508   0.671   5.428  0.0831  1.4853  0.9564
 8955TIP3    H248357   0.431   0.747   5.322  1.0602 -0.6510 -1.3352
 8956TIP3   OH248358   0.563   0.941  12.727 -0.6145  0.4090  0.5781
 8956TIP3    H148359   0.477   0.984  12.725  0.0319  1.7162  0.6199
 8956TIP3    H248360   0.561   0.888  12.807 -1.5392  0.1019  0.3563
 8957TIP3   OH248361   3.964   3.910   4.321 -0.3782  0.3035 -0.1331
 8957TIP3    H148362   4.042   3.939   4.368 -0.0287 -0.3599 -0.2973
 8957TIP3    H248363   3.974   3.815   4.314 -0.8151  0.3065 -0.8560
 8958TIP3   OH248364   3.258   0.366  10.862 -0.4080 -0.3502 -0.0404
 8958TIP3    H148365   3.337   0.366  10.915 -0.2915 -2.3904 -0.1682
 8958TIP3    H248366   3.225   0.276  10.867 -3.1761  0.6435  0.6712
 8959TIP3   OH248367   0.363   5.326   5.793  0.0571  0.5031  0.2280
 8959TIP3    H148368   0.378   5.314   5.699  0.2272  0.7566  0.2216
 8959TIP3    H248369   0.300   5.397   5.798  0.0786  0.5166  0.3069
 8960TIP3   OH248370   4.054   2.608   3.207  0.1851  0.5447  0.1056
 8960TIP3    H148371   3.967   2.627   3.173 -0.6260 -0.0403  1.7524
 8960TIP3    H248372   4.056   2.653   3.292  1.9010  1.4679 -0.4182
 8961TIP3   OH248373   1.098   1.366  14.246  0.0120  0.5131  0.1621
 8961TIP3    H148374   1.085   1.450  14.290 -1.5610  0.1646  0.4171
 8961TIP3    H248375   1.067   1.301  14.309  2.3795 -0.3735  0.4659
 8962TIP3   OH248376   0.697   0.807  16.851 -0.0948 -0.5592  0.0481
 8962TIP3    H148377   0.624   0.847  16.898 -0.3255 -2.0117  0.9796
 8962TIP3    H248378   0.683   0.832  16.759 -0.2667  1.3721  0.5826
 8963TIP3   OH248379   5.127   5.377   6.409 -0.3131 -0.0882  0.2301
 8963TIP3    H148380   5.046   5.350   6.453  0.2198  2.7922  3.1082
 8963TIP3    H248381   5.197   5.333   6.457  0.0883  0.9445  0.6174
 8964TIP3   OH248382   0.253   6.077   3.550 -0.2669 -0.1447  0.0052
 8964TIP3    H148383   0.174   6.092   3.497  0.5745  0.5519 -1.0863
 8964TIP3    H248384   0.284   6.165   3.570  1.4455 -0.3999 -1.4394
 8965TIP3   OH248385   5.613   4.230   3.999  0.0517 -0.4021  0.0130
 8965TIP3    H148386   5.656   4.248   4.082 -1.0538  0.3161  0.4394
 8965TIP3    H248387   5.678   4.253   3.932 -0.2691  2.3473  0.5983
 8966TIP3   OH248388   0.376   5.575   3.168  0.2743  0.5773  0.0750
 8966TIP3    H148389   0.351   5.659   3.207  0.0681  1.2259 -1.4163
 8966TIP3    H248390   0.470   5.584   3.151  0.1744  0.6609 -0.4450
 8967TIP3   OH248391   5.382   1.242  16.144 -0.0916  0.2947  0.0609
 8967TIP3    H148392   5.463   1.202  16.178 -0.2802  1.7331  2.3052
 8967TIP3    H248393   5.366   1.316  16.203 -2.4593  0.6806 -1.0407
 8968TIP3   OH248394   1.617   4.453  16.439  0.2739 -0.2368  0.6849
 8968TIP3    H148395   1.666   4.421  16.515 -3.2606  0.3626  3.3647
 8968TIP3    H248396   1.567   4.377  16.409  0.7737 -0.1640 -0.3601
 8969TIP3   OH248397   2.709   0.822  15.578 -0.3040 -0.1382 -0.6296
 8969TIP3    H148398   2.693   0.912  15.606 -0.4009  0.8099 -3.5172
 8969TIP3    H248399   2.804   0.816  15.568 -0.3705  0.0099 -1.4527
 8970TIP3   OH248400   6.676   1.666  13.422 -0.0490  0.0779 -0.0719
 8970TIP3    H148401   6.591   1.672  13.377  0.2697  0.5494 -0.6206
 8970TIP3    H248402   6.737   1.638  13.353  0.0953 -1.0487  0.5007
 8971TIP3   OH248403   2.140   2.957   2.493  0.0847 -0.1836 -0.6136
 8971TIP3    H148404   2.066   2.953   2.554 -1.4514  0.9554 -2.3422
 8971TIP3    H248405   2.200   2.890   2.524 -1.6442 -1.0886  0.8983
 8972TIP3   OH248406   6.379   6.567  15.090 -0.2616 -0.3870  0.2235
 8972TIP3    H148407   6.291   6.600  15.105 -0.4458 -1.0231  0.5650
 8972TIP3    H248408   6.375   6.474  15.114  0.5960 -0.3362  0.6088
 8973TIP3   OH248409   2.213   1.225  13.035  0.7197 -0.0934 -0.5942
 8973TIP3    H148410   2.246   1.200  13.121 -0.7648 -1.8089 -0.4916
 8973TIP3    H248411   2.174   1.145  13.000 -0.9934  1.2141 -1.7695
 8974TIP3   OH248412   3.957   2.451   1.570  0.2254  0.3652 -0.0274
 8974TIP3    H148413   4.006   2.487   1.645 -1.1265  1.1512  0.4882
 8974TIP3    H248414   3.957   2.356   1.585 -0.0248  0.5180  0.9681
 8975TIP3   OH248415   6.402   3.607   2.174 -0.5969 -0.2934 -0.1239
 8975TIP3    H148416   6.368   3.518   2.184  0.8501 -1.0068 -1.3505
 8975TIP3    H248417   6.324   3.662   2.163 -1.6128 -1.1371  2.4640
 8976TIP3   OH248418   4.122   5.373  13.118 -0.5411 -0.2410  0.2474
 8976TIP3    H148419   4.039   5.357  13.163  0.0264  0.9357  1.7613
 8976TIP3    H248420   4.188   5.334  13.175 -0.0396 -1.2587 -0.9968
 8977TIP3   OH248421   1.429   0.414   5.488 -0.7901 -0.9384 -0.3195
 8977TIP3    H148422   1.436   0.327   5.527 -1.5054 -0.7696  0.2001
 8977TIP3    H248423   1.498   0.466   5.530 -2.7022 -0.2534  2.0991
 8978TIP3   OH248424   2.272   1.929  15.832  0.1114  0.5779 -0.2058
 8978TIP3    H148425   2.264   1.878  15.751 -0.1847  0.1429  0.0944
 8978TIP3    H248426   2.189   1.914  15.878  0.7685 -0.1934  0.7637
 8979TIP3   OH248427   0.653   3.808  17.040  0.1405 -0.5852 -0.0469
 8979TIP3    H148428   0.676   3.802  16.947 -1.0441 -0.4770 -0.3462
 8979TIP3    H248429   0.592   3.735  17.054  0.2510 -0.5467  0.6245
 8980TIP3   OH248430   1.451   1.263  15.848  0.2674  0.2901 -0.2039
 8980TIP3    H148431   1.441   1.357  15.833  0.7900  0.0752 -2.0376
 8980TIP3    H248432   1.470   1.255  15.941 -0.6449  1.9341  0.1390
 8981TIP3   OH248433   3.028   2.363  16.291  0.8851 -0.5015 -0.5788
 8981TIP3    H148434   3.044   2.433  16.355 -0.9954 -0.6700  0.1133
 8981TIP3    H248435   3.083   2.291  16.320  3.2183  0.8387 -1.5831
 8982TIP3   OH248436   6.648   2.540  11.480 -0.0706  0.0930  0.1239
 8982TIP3    H148437   6.620   2.469  11.422  2.0670  0.7533 -1.8336
 8982TIP3    H248438   6.729   2.507  11.521  0.0133  0.7448  0.4920
 8983TIP3   OH248439   5.443   5.741   5.424  0.0747 -0.0277  0.2782
 8983TIP3    H148440   5.359   5.763   5.382  0.7753  0.8462 -0.6784
 8983TIP3    H248441   5.474   5.823   5.461  0.7861 -0.2278  0.1368
 8984TIP3   OH248442   2.042   5.386   3.738 -0.3033 -0.0636 -0.1120
 8984TIP3    H148443   2.084   5.300   3.733  0.4550  0.3513 -1.1232
 8984TIP3    H248444   1.949   5.368   3.725 -0.1580 -0.7397 -0.2320
 8985TIP3   OH248445   4.535   0.908  13.237 -0.3380 -0.1690 -0.0021
 8985TIP3    H148446   4.494   0.953  13.163  2.0274  0.6812 -0.8546
 8985TIP3    H248447   4.550   0.819  13.205 -3.4831 -1.1654  1.1046
 8986TIP3   OH248448   6.768   1.722   1.157  0.0071  0.0154  0.0817
 8986TIP3    H148449   6.729   1.635   1.167  1.4104 -0.8158 -1.3853
 8986TIP3    H248450   6.733   1.754   1.074 -0.7318  1.0088  0.7551
 8987TIP3   OH248451   4.904   6.013   1.989 -0.1180 -0.1072 -0.0035
 8987TIP3    H148452   4.900   6.102   2.023 -1.2149  0.0888 -0.6332
 8987TIP3    H248453   4.871   5.958   2.059  2.4331 -0.2552  1.1510
 8988TIP3   OH248454   3.660   2.005  13.176  0.5226 -0.3697  0.6076
 8988TIP3    H148455   3.704   2.016  13.260  0.7992  1.3797  0.2540
 8988TIP3    H248456   3.635   2.094  13.150 -1.4954 -1.1261 -0.1208
 8989TIP3   OH248457   1.847   6.022  15.609  0.0553 -0.2704  0.2586
 8989TIP3    H148458   1.816   6.112  15.618  0.1114 -0.1595 -0.6847
 8989TIP3    H248459   1.779   5.968  15.650 -1.1891 -0.0022 -1.4550
 8990TIP3   OH248460   5.968   4.997   4.357 -0.3575 -0.0362 -0.0799
 8990TIP3    H148461   5.907   4.993   4.431 -2.0982  0.8505 -1.4387
 8990TIP3    H248462   5.998   4.907   4.345 -2.3621 -0.7168 -0.1708
 8991TIP3   OH248463   2.309   4.694   2.194 -0.2254  0.5556 -0.1152
 8991TIP3    H148464   2.312   4.626   2.127 -2.3062  0.7123 -0.3981
 8991TIP3    H248465   2.386   4.678   2.249  1.8628  0.7864 -2.8736
 8992TIP3   OH248466   1.033   5.652  12.238  0.7051 -0.2713  0.0282
 8992TIP3    H148467   0.962   5.716  12.234  0.3039 -0.6943  0.2934
 8992TIP3    H248468   1.103   5.697  12.285 -0.1292 -0.5509  1.5589
 8993TIP3   OH248469   3.516   1.394   0.865 -0.3154 -0.2124 -0.3948
 8993TIP3    H148470   3.465   1.413   0.787 -0.2893  0.9462 -0.1303
 8993TIP3    H248471   3.607   1.394   0.836 -0.2982  0.3385 -0.3388
 8994TIP3   OH248472   3.450   6.379   1.354  0.1356 -0.6888  0.3019
 8994TIP3    H148473   3.536   6.375   1.396  0.5328 -1.5425 -0.5594
 8994TIP3    H248474   3.455   6.455   1.296  0.7537 -1.4385 -0.6553
 8995TIP3   OH248475   0.998   3.021   5.474  0.3788  0.3663 -0.2259
 8995TIP3    H148476   0.948   2.982   5.402  1.0817 -1.3674  0.1892
 8995TIP3    H248477   1.046   3.093   5.433 -0.7040  0.6080 -1.0968
 8996TIP3   OH248478   3.695   5.667   1.756  0.1580 -0.3911 -0.4923
 8996TIP3    H148479   3.747   5.721   1.696  0.0900  1.0959  0.7524
 8996TIP3    H248480   3.754   5.648   1.829 -0.3432 -0.6023 -0.1372
 8997TIP3   OH248481   6.599   3.890   3.764  0.4725  0.2148  0.0533
 8997TIP3    H148482   6.687   3.883   3.728 -0.2020  1.2400 -1.8616
 8997TIP3    H248483   6.558   3.806   3.742  1.1805 -0.5422  1.5735
 8998TIP3   OH248484   3.426   5.078   3.624 -0.3004 -0.2696 -0.0748
 8998TIP3    H148485   3.401   5.077   3.717  1.1000  0.7898  0.3332
 8998TIP3    H248486   3.399   5.165   3.594 -0.3167 -0.4372 -0.5354
 8999TIP3   OH248487   1.308   4.962   1.023 -0.4289  0.6475  0.3003
 8999TIP3    H148488   1.221   4.981   0.989 -0.7109 -0.9881  0.0419
 8999TIP3    H248489   1.319   4.868   1.008  1.1211  0.7165  0.9232
 9000TIP3   OH248490   1.656   6.810  12.086  0.3828  0.8119  0.4252
 9000TIP3    H148491   1.571   6.806  12.131 -1.0824  2.8271 -2.0244
 9000TIP3    H248492   1.675   6.904  12.080  1.9699  0.4435 -0.5461
 9001TIP3   OH248493   5.018   6.416   3.320  0.2685 -0.1042 -0.1756
 9001TIP3    H148494   4.946   6.355   3.335  0.8339 -0.5250  0.9211
 9001TIP3    H248495   5.045   6.400   3.230 -1.2141  0.2937 -0.7060
 9002TIP3   OH248496   0.753   4.520  15.677 -0.5808 -0.3755 -0.1090
 9002TIP3    H148497   0.682   4.581  15.696 -0.1883  0.2326 -0.5836
 9002TIP3    H248498   0.784   4.491  15.763 -1.7528 -1.0564  0.0912
 9003TIP3   OH248499   6.019   0.355   0.554 -0.0840  0.0247 -0.1584
 9003TIP3    H148500   6.043   0.311   0.473 -0.8177 -0.5336 -0.0824
 9003TIP3    H248501   6.029   0.448   0.535 -0.4455 -0.0920 -0.9605
 9004TIP3   OH248502   4.265   0.536  14.604 -0.8722  0.8770  0.3376
 9004TIP3    H148503   4.284   0.525  14.697  1.1744  0.0684 -0.1453
 9004TIP3    H248504   4.268   0.447  14.568  1.2947  1.4620 -1.0149
 9005TIP3   OH248505   3.102   0.191   4.691  0.3042  0.2245  0.1505
 9005TIP3    H148506   3.039   0.204   4.620  0.6634  0.5858 -0.1029
 9005TIP3    H248507   3.127   0.279   4.717  0.9323  0.0756  0.0483
 9006TIP3   OH248508   2.834   3.657   3.972 -0.2699  0.2868  0.3501
 9006TIP3    H148509   2.902   3.696   4.027  0.9266 -1.5388  0.2104
 9006TIP3    H248510   2.817   3.572   4.012 -0.8562 -0.2147 -0.9290
 9007TIP3   OH248511   6.254   2.575  13.787 -0.1517  0.0069  0.5427
 9007TIP3    H148512   6.314   2.545  13.719 -0.8949  2.5563 -1.3406
 9007TIP3    H248513   6.166   2.555  13.753 -0.4587 -1.1127  1.9668
 9008TIP3   OH248514   4.988   2.661   2.487 -0.7978  0.1513  0.0680
 9008TIP3    H148515   4.983   2.659   2.582  0.3754  3.2919  0.2859
 9008TIP3    H248516   5.002   2.754   2.466 -1.5011 -0.3987 -3.1859
 9009TIP3   OH248517   4.739   4.699  11.992 -0.7942 -0.1134 -0.0155
 9009TIP3    H148518   4.728   4.655  12.076 -0.6201 -2.3148 -1.1152
 9009TIP3    H248519   4.655   4.742  11.976 -0.7330  0.5643  1.4017
 9010TIP3   OH248520   3.232   5.663  15.219 -0.2859  0.0246 -0.3038
 9010TIP3    H148521   3.160   5.614  15.180 -1.0854  1.2996 -0.4590
 9010TIP3    H248522   3.245   5.738  15.160 -1.3096  1.8256  1.6732
 9011TIP3   OH248523   3.418   5.367   5.780  0.1274 -0.0824  0.6392
 9011TIP3    H148524   3.481   5.306   5.819  1.1597  1.4423  1.4142
 9011TIP3    H248525   3.346   5.370   5.842 -0.2316 -1.0185  0.2740
 9012TIP3   OH248526   0.388   1.111  15.151  0.1492 -0.4694  0.4818
 9012TIP3    H148527   0.374   1.018  15.170  2.0338 -0.4861  1.9464
 9012TIP3    H248528   0.460   1.137  15.209  0.1648  1.7180 -0.4599
 9013TIP3   OH248529   1.709   3.421   0.434  0.2074 -0.4256 -0.0165
 9013TIP3    H148530   1.632   3.384   0.390  2.1909 -2.5969 -1.8501
 9013TIP3    H248531   1.718   3.508   0.396 -3.5945  1.4556  3.1426
 9014TIP3   OH248532   3.784   5.679   4.513 -0.0753 -0.0742 -0.2432
 9014TIP3    H148533   3.689   5.672   4.525  0.0386 -0.7688  0.2759
 9014TIP3    H248534   3.820   5.612   4.571  0.7213  0.0268 -0.6239
 9015TIP3   OH248535   1.481   0.335  12.882  0.0752  0.3790  0.2333
 9015TIP3    H148536   1.444   0.369  12.800  0.1453  2.1092  0.9055
 9015TIP3    H248537   1.423   0.263  12.907 -0.7679  0.7703 -0.5917
 9016TIP3   OH248538   1.434   4.835   5.031 -0.3976 -0.7357 -0.3509
 9016TIP3    H148539   1.342   4.844   5.007 -0.2774 -1.3818 -1.0391
 9016TIP3    H248540   1.434   4.770   5.101 -0.6510  0.5284  0.8450
 9017TIP3   OH248541   3.366   0.975  15.925 -0.3931 -0.7058 -0.0288
 9017TIP3    H148542   3.375   0.946  16.016 -1.1676  1.2294  0.6967
 9017TIP3    H248543   3.276   0.954  15.902  0.3357 -2.9298 -1.0213
 9018TIP3   OH248544   1.282   2.015   0.452  0.0149 -0.2522 -0.0546
 9018TIP3    H148545   1.271   1.934   0.502  1.8045 -0.6993 -0.3609
 9018TIP3    H248546   1.367   2.049   0.480 -0.5104  1.3026 -0.2670
 9019TIP3   OH248547   0.283   5.201  12.839  0.6342 -0.5408 -0.0766
 9019TIP3    H148548   0.253   5.120  12.881  1.0392  0.0385  1.3742
 9019TIP3    H248549   0.269   5.269  12.905  1.7619  0.3139 -0.6926
 9020TIP3   OH248550   4.243   3.599   2.923  0.7122 -0.1809 -0.2277
 9020TIP3    H148551   4.241   3.565   2.833 -0.0031  1.6668 -0.9489
 9020TIP3    H248552   4.332   3.631   2.934  0.7621 -0.2841 -0.3267
 9021TIP3   OH248553   3.343   3.276  12.864  0.2078 -0.1458  0.0456
 9021TIP3    H148554   3.312   3.291  12.953  0.4599 -0.6922  0.2298
 9021TIP3    H248555   3.351   3.181  12.857  0.6608 -0.0778 -0.3983
 9022TIP3   OH248556   0.996   6.356   3.106 -0.6350 -0.2616  0.3331
 9022TIP3    H148557   1.004   6.300   3.183  0.7562 -2.2348 -1.2120
 9022TIP3    H248558   0.905   6.347   3.079 -0.1505 -2.6739 -0.5521
 9023TIP3   OH248559   4.762   1.467   4.176 -0.3914 -0.1324  0.3400
 9023TIP3    H148560   4.717   1.515   4.106 -0.7427 -1.2584 -0.2157
 9023TIP3    H248561   4.704   1.474   4.251 -0.5300  0.1496  0.2109
 9024TIP3   OH248562   1.035   0.776  16.397 -0.1688 -0.1858  0.5939
 9024TIP3    H148563   1.061   0.685  16.407 -0.9671 -0.7138 -1.7555
 9024TIP3    H248564   1.075   0.804  16.315 -2.7497  0.5237 -0.4657
 9025TIP3   OH248565   5.966   2.631   1.221  0.0955  0.4426 -0.3403
 9025TIP3    H148566   6.032   2.571   1.255 -0.3414  0.2740  0.2105
 9025TIP3    H248567   5.925   2.583   1.149 -1.2863 -0.5302  1.0576
 9026TIP3   OH248568   6.800   6.751   6.676 -0.1393 -0.1303 -0.3021
 9026TIP3    H148569   6.711   6.727   6.700  0.0401 -1.2979 -0.7985
 9026TIP3    H248570   6.847   6.754   6.759 -0.5228  0.0115 -0.0876
 9027TIP3   OH248571   2.327   1.511  12.316 -0.4283  0.9141  0.0876
 9027TIP3    H148572   2.338   1.563  12.237  0.6651  0.2243 -0.2232
 9027TIP3    H248573   2.376   1.559  12.383  1.0208  0.0606 -0.3175
 9028TIP3   OH248574   5.673   3.121   2.113  0.1995 -0.0397  0.1721
 9028TIP3    H148575   5.716   3.166   2.041 -3.6262 -0.6794 -2.7079
 9028TIP3    H248576   5.628   3.190   2.162  3.7937  0.5578  2.8568
 9029TIP3   OH248577   5.862   3.596  14.256  0.0889 -0.2158 -0.2011
 9029TIP3    H148578   5.843   3.503  14.244 -0.7159 -0.4483  2.5024
 9029TIP3    H248579   5.956   3.600  14.272  0.3676 -0.3859 -1.7239
 9030TIP3   OH248580   4.143   6.526  12.457 -0.3240 -0.4105  0.0418
 9030TIP3    H148581   4.148   6.483  12.372  1.3431  0.9304 -0.5680
 9030TIP3    H248582   4.092   6.466  12.511 -1.6846 -1.1399 -1.9695
 9031TIP3   OH248583   0.256   5.278   0.796 -0.1475 -0.2956  0.0285
 9031TIP3    H148584   0.271   5.242   0.709 -0.2045  0.6592 -0.3813
 9031TIP3    H248585   0.318   5.232   0.853  0.8173  0.0347 -0.7498
 9032TIP3   OH248586   5.375   5.041  15.082  0.6713 -0.4188  0.1291
 9032TIP3    H148587   5.457   5.065  15.039 -0.2928  0.7735 -1.1202
 9032TIP3    H248588   5.345   4.963  15.036  1.3455 -1.1339  0.9061
 9033TIP3   OH248589   3.049   3.059  12.780 -0.1469  0.2405  0.0646
 9033TIP3    H148590   3.107   3.040  12.706 -2.1005 -2.5440 -0.7865
 9033TIP3    H248591   2.978   3.112  12.743  0.4571  1.4686  0.6051
 9034TIP3   OH248592   5.967   4.943  14.889  0.4657  0.1405 -0.1109
 9034TIP3    H148593   5.980   5.032  14.922  0.1190  0.7430 -1.5707
 9034TIP3    H248594   5.952   4.954  14.796  1.2977 -1.5346 -0.4641
 9035TIP3   OH248595   4.388   6.125  11.921  0.0911 -0.6079 -0.1687
 9035TIP3    H148596   4.474   6.165  11.907  0.3309 -1.0347  0.1090
 9035TIP3    H248597   4.339   6.146  11.841  0.2141  0.2502 -0.0301
 9036TIP3   OH248598   2.104   1.366   1.907  0.1682 -0.1288 -0.7005
 9036TIP3    H148599   2.086   1.349   1.999  0.9854 -0.8621 -0.6753
 9036TIP3    H248600   2.135   1.456   1.905 -0.3458  0.0609 -0.3294
 9037TIP3   OH248601   3.319   6.297  12.570  0.0795 -0.3587 -0.0120
 9037TIP3    H148602   3.367   6.327  12.493  1.7371 -0.3552  1.0065
 9037TIP3    H248603   3.231   6.334  12.559  0.8410  1.2394 -0.9516
 9038TIP3   OH248604   3.750   2.653   0.499  0.3546 -0.2085  0.1731
 9038TIP3    H148605   3.810   2.614   0.434 -0.6613 -0.8787 -0.3799
 9038TIP3    H248606   3.705   2.578   0.538  1.1316  0.1782  1.8421
 9039TIP3   OH248607   2.997   5.809  16.749 -0.1710  0.2374 -0.5406
 9039TIP3    H148608   3.011   5.903  16.735 -0.9609  0.6917  1.5513
 9039TIP3    H248609   2.920   5.788  16.698  1.6532  0.0792 -3.3322
 9040TIP3   OH248610   3.058   6.794   4.968 -0.4472  0.0468 -0.1521
 9040TIP3    H148611   3.140   6.794   5.017 -0.9276  0.1486  0.6545
 9040TIP3    H248612   3.075   6.738   4.892 -0.5904 -2.4992  1.6327
 9041TIP3   OH248613   2.342   0.863  16.692 -0.4458 -0.6289 -0.3005
 9041TIP3    H148614   2.260   0.852  16.645 -0.1598  2.0159 -1.4757
 9041TIP3    H248615   2.319   0.849  16.784 -1.8712 -1.4296 -0.7619
 9042TIP3   OH248616   3.689   1.680  11.522 -0.6060 -0.0290  0.0189
 9042TIP3    H148617   3.668   1.771  11.543  1.1308  0.0701  1.4893
 9042TIP3    H248618   3.647   1.629  11.591  0.5680 -0.1264  0.6793
 9043TIP3   OH248619   6.421   6.334   3.057  0.0956 -0.1379  0.1845
 9043TIP3    H148620   6.390   6.372   2.975  2.0921 -0.5538 -0.7962
 9043TIP3    H248621   6.480   6.399   3.094  0.2625 -0.5262  0.6153
 9044TIP3   OH248622   1.714   0.819  12.034 -0.0904 -0.8260 -0.0305
 9044TIP3    H148623   1.732   0.841  11.943 -0.6779 -1.1056 -0.2212
 9044TIP3    H248624   1.620   0.797  12.035 -0.5724  1.1984  1.0384
 9045TIP3   OH248625   2.963   4.176   6.585  0.0633  0.1454 -0.0600
 9045TIP3    H148626   3.032   4.231   6.549  0.4246 -0.2885 -0.0373
 9045TIP3    H248627   2.936   4.120   6.512  0.3139 -0.2543  0.1517
 9046TIP3   OH248628   4.670   2.099  16.066  0.1964  0.3503  0.3337
 9046TIP3    H148629   4.698   2.080  15.976 -0.4772  0.3425  0.1192
 9046TIP3    H248630   4.594   2.157  16.055 -0.6229 -0.5918  0.8592
 9047TIP3   OH248631   1.579   2.528   6.369  0.7319  0.5096 -0.1751
 9047TIP3    H148632   1.561   2.573   6.452 -0.7600 -0.7999  0.2255
 9047TIP3    H248633   1.507   2.466   6.359  1.9929 -0.7741 -1.4578
 9048TIP3   OH248634   2.780   5.696   0.155 -0.0764  0.2242 -0.0732
 9048TIP3    H148635   2.834   5.659   0.085  0.4835  1.0632 -0.0788
 9048TIP3    H248636   2.828   5.773   0.185 -0.9253  0.5754  0.3952
 9049TIP3   OH248637   4.138   1.629   2.787 -0.0544  0.2225  0.2259
 9049TIP3    H148638   4.074   1.623   2.716  1.5127 -1.5089 -1.0806
 9049TIP3    H248639   4.126   1.549   2.839  0.7015  0.1182  0.2566
 9050TIP3   OH248640   6.144   1.696  15.774  0.5809  0.0798  0.2515
 9050TIP3    H148641   6.141   1.730  15.864 -3.3902 -1.3579  0.7784
 9050TIP3    H248642   6.136   1.601  15.785  0.1370 -0.1053 -1.6185
 9051TIP3   OH248643   5.350   1.515  11.266 -0.3613 -0.0372  0.3351
 9051TIP3    H148644   5.431   1.535  11.312 -1.0685  1.0015  1.1340
 9051TIP3    H248645   5.285   1.502  11.335 -0.9468 -0.5881 -0.3093
 9052TIP3   OH248646   0.280   3.541   0.447  0.0790  0.4036  0.2809
 9052TIP3    H148647   0.261   3.462   0.497  1.7902 -0.0827  0.1795
 9052TIP3    H248648   0.373   3.558   0.462 -0.0123  1.7715 -0.5831
 9053TIP3   OH248649   6.740   3.312   2.755 -0.6313 -0.4158 -0.1388
 9053TIP3    H148650   6.768   3.342   2.842 -2.7984 -0.5729  0.6564
 9053TIP3    H248651   6.759   3.385   2.697  1.3792 -0.5252  0.3481
 9054TIP3   OH248652   1.513   3.980   2.047 -0.3195 -0.1762  0.2270
 9054TIP3    H148653   1.498   4.071   2.073  1.8462  0.4412 -0.5854
 9054TIP3    H248654   1.562   3.986   1.965  0.1931 -2.0669  0.3743
 9055TIP3   OH248655   2.167   0.663   2.775 -0.3696 -0.1587 -0.2379
 9055TIP3    H148656   2.136   0.666   2.685 -0.1497 -0.8990 -0.3462
 9055TIP3    H248657   2.254   0.623   2.769  0.5707  1.8024  0.0702
 9056TIP3   OH248658   5.523   6.565  13.834 -0.3258  0.2550 -0.5578
 9056TIP3    H148659   5.469   6.633  13.795  0.2083  1.2371  0.3824
 9056TIP3    H248660   5.507   6.487  13.781 -0.2585  1.3387 -2.1736
 9057TIP3   OH248661   2.028   5.724  15.158  0.3574  0.0006 -0.0897
 9057TIP3    H148662   2.121   5.703  15.150  0.2942 -0.6426  0.7777
 9057TIP3    H248663   2.026   5.811  15.196  0.6075 -0.2361  0.4690
 9058TIP3   OH248664   4.719   2.599  16.735 -0.0431 -0.0219  0.3651
 9058TIP3    H148665   4.744   2.539  16.665 -2.0511  0.6214 -0.9487
 9058TIP3    H248666   4.668   2.546  16.796 -0.1844 -0.0910  0.1879
 9059TIP3   OH248667   1.298   1.935  12.775 -0.5755 -0.2600  0.1794
 9059TIP3    H148668   1.388   1.953  12.748  0.2336 -3.4830  0.5475
 9059TIP3    H248669   1.297   1.958  12.868  0.3502 -1.7729  0.5809
 9060TIP3   OH248670   1.873   0.554   6.188  0.2834 -0.1108  0.3586
 9060TIP3    H148671   1.962   0.539   6.156  1.7087  1.6649  3.2984
 9060TIP3    H248672   1.877   0.532   6.281 -1.4622  3.1772  1.2896
 9061TIP3   OH248673   0.013   3.083   1.130 -1.1628  0.3197 -0.4137
 9061TIP3    H148674   0.058   3.128   1.058 -1.5919 -0.3693 -1.1207
 9061TIP3    H248675  -0.034   3.011   1.087 -1.2487 -0.2243  0.5859
 9062TIP3   OH248676   1.401   6.622  16.129 -0.5988 -0.1127 -0.1844
 9062TIP3    H148677   1.345   6.651  16.201 -0.1703 -0.0683  0.1345
 9062TIP3    H248678   1.341   6.612  16.055 -0.7818  1.3763 -0.2494
 9063TIP3   OH248679   2.749   1.431   2.031  0.3936  0.0696 -0.4335
 9063TIP3    H148680   2.786   1.498   2.089  1.1974 -0.6944 -0.0503
 9063TIP3    H248681   2.711   1.366   2.089  2.4527 -1.4113 -0.7049
 9064TIP3   OH248682   6.563   2.245   0.835 -0.1174 -0.5950  0.3156
 9064TIP3    H148683   6.478   2.204   0.853  0.0369 -1.5060 -1.0030
 9064TIP3    H248684   6.546   2.339   0.844 -1.4301 -0.7358 -0.5738
 9065TIP3   OH248685   5.036   1.294  13.980  0.0146 -0.2964 -0.1162
 9065TIP3    H148686   4.957   1.278  14.031 -0.1496 -0.0432 -0.2857
 9065TIP3    H248687   5.104   1.314  14.045 -0.0539 -0.5477  0.0280
 9066TIP3   OH248688   6.247   1.840   2.721  0.0738 -0.3768  0.2192
 9066TIP3    H148689   6.302   1.909   2.757  0.8392 -0.7176 -0.2702
 9066TIP3    H248690   6.166   1.884   2.696 -0.3662 -0.0968  2.0978
 9067TIP3   OH248691   5.276   5.247   0.832 -0.4528  0.3777  0.6512
 9067TIP3    H148692   5.232   5.301   0.897 -0.9392  0.0501  0.5957
 9067TIP3    H248693   5.365   5.235   0.866 -0.5455  0.6583  0.9872
 9068TIP3   OH248694   1.001   4.094  15.953 -0.2651 -0.2036 -0.4133
 9068TIP3    H148695   1.021   4.183  15.983 -3.1365 -0.2018  1.6797
 9068TIP3    H248696   0.929   4.105  15.891 -1.3270 -1.1459  0.6360
 9069TIP3   OH248697   2.829   4.023   1.646 -0.1346 -0.4414 -0.3062
 9069TIP3    H148698   2.839   4.106   1.599 -1.0641 -0.1037  0.0807
 9069TIP3    H248699   2.735   4.006   1.645 -0.3781  0.3045  2.6532
 9070TIP3   OH248700   6.447   5.174  15.636  0.0939  0.5623  0.1292
 9070TIP3    H148701   6.424   5.222  15.715  0.0730  0.2473  0.3125
 9070TIP3    H248702   6.541   5.188  15.626  0.2985 -0.2835  0.8045
 9071TIP3   OH248703   5.544   3.407   4.993  0.6706 -1.0170  0.6659
 9071TIP3    H148704   5.560   3.498   5.018 -0.1731 -0.9880  1.1079
 9071TIP3    H248705   5.456   3.388   5.025 -0.8132 -0.7267 -2.9636
 9072TIP3   OH248706   5.295   3.747   2.707 -0.5613 -0.0070  0.0831
 9072TIP3    H148707   5.330   3.662   2.680 -0.2653  0.3440 -0.6592
 9072TIP3    H248708   5.262   3.733   2.796 -1.3214 -1.1216 -0.3733
 9073TIP3   OH248709   5.009   3.812   1.957 -0.2227  0.1280 -0.5854
 9073TIP3    H148710   4.972   3.739   2.006 -1.1250 -0.2483 -1.7921
 9073TIP3    H248711   4.933   3.858   1.921  0.3752  1.1347 -0.5876
 9074TIP3   OH248712   6.253   1.331   5.922  0.1480  0.3558  0.2099
 9074TIP3    H148713   6.324   1.392   5.941  0.7277 -0.2667  0.0386
 9074TIP3    H248714   6.290   1.244   5.940 -0.3663 -0.0121 -0.4840
 9075TIP3   OH248715   3.820   2.199   5.605 -0.1536 -0.0841  0.1227
 9075TIP3    H148716   3.769   2.279   5.614  0.7309  0.5659 -0.5717
 9075TIP3    H248717   3.832   2.188   5.510  0.6327 -0.4552  0.2562
 9076TIP3   OH248718   4.873   5.229   1.864  0.4882 -0.0764 -0.2539
 9076TIP3    H148719   4.936   5.221   1.936 -0.4342 -0.5496  0.5153
 9076TIP3    H248720   4.807   5.162   1.883 -0.2586  0.4363 -1.0358
 9077TIP3   OH248721   6.115   3.440   3.840  0.3089  0.1279 -0.2093
 9077TIP3    H148722   6.143   3.451   3.749 -0.7496  1.4746 -0.3983
 9077TIP3    H248723   6.168   3.368   3.873  1.0935 -0.0216 -1.7356
 9078TIP3   OH248724   3.898   3.246   1.437 -0.1139 -0.3904 -0.2719
 9078TIP3    H148725   3.925   3.181   1.502  1.0835 -0.3438 -0.6960
 9078TIP3    H248726   3.859   3.317   1.488 -0.0906 -0.7982  0.3159
 9079TIP3   OH248727   2.867   5.929   5.034  0.0367  0.3879 -0.0797
 9079TIP3    H148728   2.848   5.885   4.951  1.1071  2.7677 -1.6488
 9079TIP3    H248729   2.792   5.987   5.049  0.6079  1.1836 -0.2561
 9080TIP3   OH248730   2.609   1.532  11.597 -0.3108 -0.5229 -0.4683
 9080TIP3    H148731   2.668   1.559  11.667 -0.2696  0.4346 -0.8747
 9080TIP3    H248732   2.633   1.441  11.580  1.1198 -0.1192 -0.6898
 9081TIP3   OH248733   1.338   2.441  13.511 -0.4971 -0.4687 -0.7843
 9081TIP3    H148734   1.328   2.510  13.577  2.1909 -0.4452 -0.3500
 9081TIP3    H248735   1.306   2.362  13.555 -1.4832  0.0752 -0.5020
 9082TIP3   OH248736   2.768   5.783  16.597  0.0298 -0.2443  0.4086
 9082TIP3    H148737   2.788   5.699  16.556  0.9383  1.1159 -2.0303
 9082TIP3    H248738   2.673   5.792  16.588  0.2705  0.2451 -1.8714
 9083TIP3   OH248739   5.895   2.412   4.803 -0.0462  1.1760 -0.1825
 9083TIP3    H148740   5.971   2.425   4.860 -0.2331  0.7650  0.1606
 9083TIP3    H248741   5.887   2.495   4.756  1.6762  0.6178 -1.5151
 9084TIP3   OH248742   0.138   0.976   4.818 -0.3216  0.4935  0.2737
 9084TIP3    H148743   0.050   1.001   4.790 -0.2965  1.9599  1.4201
 9084TIP3    H248744   0.146   1.014   4.906  0.9266 -0.8637  0.7585
 9085TIP3   OH248745   1.894   2.050   4.131  0.8600 -0.9785 -0.4350
 9085TIP3    H148746   1.898   1.977   4.069  0.0224 -0.0191 -1.6461
 9085TIP3    H248747   1.801   2.056   4.155  0.4043  1.5182 -2.6025
 9086TIP3   OH248748   0.537   4.265  14.085 -0.3995 -0.4770  0.3176
 9086TIP3    H148749   0.513   4.172  14.082 -3.0245  0.1528  0.7673
 9086TIP3    H248750   0.486   4.306  14.016  0.0283  0.8081  0.7470
 9087TIP3   OH248751   2.986   0.836   4.084  0.2963  0.2403  0.4290
 9087TIP3    H148752   2.994   0.923   4.124  2.6385  0.0707  0.3552
 9087TIP3    H248753   3.076   0.811   4.063 -0.4438 -1.8909 -0.2402
 9088TIP3   OH248754   4.873   4.296   0.015 -0.0930  0.4482 -0.4282
 9088TIP3    H148755   4.873   4.391   0.031 -2.2778  0.4457 -0.1633
 9088TIP3    H248756   4.784   4.277  -0.015  1.1199 -1.1054 -3.2750
 9089TIP3   OH248757   5.224   3.193   3.646  0.3229  0.0157  0.0747
 9089TIP3    H148758   5.277   3.269   3.622 -0.3874 -0.2707 -2.5148
 9089TIP3    H248759   5.286   3.134   3.690  0.8563  2.0780  2.2320
 9090TIP3   OH248760   6.654   6.701  11.737 -0.0705 -0.5194  0.7972
 9090TIP3    H148761   6.649   6.640  11.664  0.4178 -0.8916  1.0626
 9090TIP3    H248762   6.664   6.645  11.814 -0.6791 -0.1375  1.1582
 9091TIP3   OH248763   5.713   4.712   1.380 -0.6122  0.0841  0.0300
 9091TIP3    H148764   5.651   4.740   1.448 -0.9441 -0.8608  0.1308
 9091TIP3    H248765   5.677   4.630   1.347 -0.7398  0.8087 -1.6884
 9092TIP3   OH248766   5.229   6.452  12.179 -0.0387 -0.0950 -0.8233
 9092TIP3    H148767   5.200   6.375  12.228 -0.4841 -0.6776 -1.9835
 9092TIP3    H248768   5.220   6.524  12.242 -2.5470 -0.4934 -0.6327
 9093TIP3   OH248769   4.066   0.801   0.758 -0.0692 -0.2441  0.7985
 9093TIP3    H148770   4.074   0.846   0.842  5.1737  0.1602  0.2524
 9093TIP3    H248771   4.079   0.708   0.779 -0.5873 -0.3491  0.6572
 9094TIP3   OH248772   6.098   1.899  11.371  0.1952 -0.4538 -0.3268
 9094TIP3    H148773   6.144   1.835  11.317 -0.2729 -0.9981 -0.0880
 9094TIP3    H248774   6.155   1.914  11.446  0.5799 -0.1365 -0.6839
 9095TIP3   OH248775   6.015   1.751  11.987 -0.0948  0.1520  0.3433
 9095TIP3    H148776   6.060   1.775  12.068 -0.8709  0.9478  0.5534
 9095TIP3    H248777   5.923   1.776  12.003 -0.4345 -0.6008 -0.4083
 9096TIP3   OH248778   4.670   4.159   3.250 -0.3080 -0.1930 -0.2568
 9096TIP3    H148779   4.684   4.253   3.250  2.0919 -0.5048 -1.0605
 9096TIP3    H248780   4.740   4.124   3.195 -1.3920 -2.4194 -0.3128
 9097TIP3   OH248781   2.269   1.858   2.152 -0.2701 -0.1195 -0.2288
 9097TIP3    H148782   2.228   1.917   2.088 -0.4208 -0.8282 -0.7890
 9097TIP3    H248783   2.358   1.846   2.120 -0.6340 -1.2465 -0.8468
 9098TIP3   OH248784   4.324   3.694   5.158  0.4137  0.1738  0.5680
 9098TIP3    H148785   4.405   3.744   5.163  1.1645 -0.9276 -0.3239
 9098TIP3    H248786   4.345   3.609   5.197 -0.8200  0.4735  1.9763
 9099TIP3   OH248787   2.248   4.840  16.089  0.0856 -0.1571  0.7366
 9099TIP3    H148788   2.261   4.821  16.182 -1.2408  1.4382  1.2648
 9099TIP3    H248789   2.240   4.935  16.085  2.1127 -0.0200 -1.2835
 9100TIP3   OH248790   3.199   0.470  16.235  0.1486  0.4073  0.0544
 9100TIP3    H148791   3.274   0.530  16.232 -0.6704  1.4675  0.3682
 9100TIP3    H248792   3.138   0.512  16.296 -1.1441  0.0633 -0.9919
 9101TIP3   OH248793   3.082   5.625   0.575 -0.1456 -0.4734  0.1020
 9101TIP3    H148794   3.144   5.602   0.506  0.0116  1.3876 -0.4164
 9101TIP3    H248795   3.082   5.721   0.576 -2.9878 -0.4278  0.1051
 9102TIP3   OH248796   0.316   5.219   1.915  0.7124 -0.4650 -0.2801
 9102TIP3    H148797   0.384   5.167   1.873  2.4827 -0.3777  2.3755
 9102TIP3    H248798   0.352   5.308   1.917  0.3035 -0.3168  0.6660
 9103TIP3   OH248799   6.691   6.581  11.999  0.6092  0.0840  0.1918
 9103TIP3    H148800   6.778   6.610  12.026  1.5221 -0.2500 -2.2508
 9103TIP3    H248801   6.685   6.490  12.029  1.0616  0.1472  0.4737
 9104TIP3   OH248802   5.993   3.051  15.284  0.0432  0.3488 -0.0967
 9104TIP3    H148803   6.059   2.983  15.300  0.2877  0.7583  0.6823
 9104TIP3    H248804   6.036   3.112  15.224  0.1301  0.2513 -0.1337
 9105TIP3   OH248805   4.392   2.423  15.743 -0.0206  0.0468 -0.3389
 9105TIP3    H148806   4.421   2.503  15.700 -0.0263 -0.1388 -0.6958
 9105TIP3    H248807   4.472   2.380  15.771  0.1327 -0.9204 -2.1439
 9106TIP3   OH248808   2.850   2.553   3.722 -0.0757  0.6076  0.2365
 9106TIP3    H148809   2.791   2.538   3.648  0.6298  1.3448 -0.4990
 9106TIP3    H248810   2.823   2.490   3.788  0.3953 -1.2901 -1.3209
 9107TIP3   OH248811   2.221   4.222  14.113 -0.0636  0.3705 -0.1787
 9107TIP3    H148812   2.291   4.252  14.170 -0.5394 -1.4176  1.4038
 9107TIP3    H248813   2.263   4.212  14.027  1.6246 -0.6650  0.7376
 9108TIP3   OH248814   6.587   4.064  13.347 -0.4340 -0.4830 -0.4617
 9108TIP3    H148815   6.641   4.052  13.425 -0.5683 -0.8457 -0.4248
 9108TIP3    H248816   6.614   4.149  13.311 -0.6926 -0.1053  0.2304
 9109TIP3   OH248817   1.252   4.162  11.364 -0.2452  0.1121  0.4908
 9109TIP3    H148818   1.201   4.226  11.414 -0.1205  0.4882  0.1451
 9109TIP3    H248819   1.305   4.117  11.429  3.4042  3.7421  0.2818
 9110TIP3   OH248820   1.507   1.167  12.567  0.2556 -0.0860 -0.4757
 9110TIP3    H148821   1.509   1.193  12.659 -2.4031  0.1150 -0.4086
 9110TIP3    H248822   1.532   1.075  12.567  3.5990  0.7839  0.0237
 9111TIP3   OH248823   0.590   4.104   2.071  0.1841 -0.6139 -0.0314
 9111TIP3    H148824   0.610   4.091   1.978  0.5375  0.9577 -0.1923
 9111TIP3    H248825   0.495   4.110   2.074  0.1735 -0.6326 -0.2991
 9112TIP3   OH248826   5.143   5.697  15.608  0.1273 -0.0197  0.1597
 9112TIP3    H148827   5.165   5.790  15.599  2.0997 -0.3930  1.0617
 9112TIP3    H248828   5.224   5.650  15.589 -0.4894 -1.5114  1.0651
 9113TIP3   OH248829   4.628   0.391  15.807 -0.0524  0.4135  0.6228
 9113TIP3    H148830   4.687   0.401  15.882  0.0751  1.9203  0.3199
 9113TIP3    H248831   4.686   0.398  15.731 -0.6916  2.3598  0.3147
 9114TIP3   OH248832   0.771   1.184  12.026 -0.5411  0.3031  0.0182
 9114TIP3    H148833   0.846   1.142  12.066 -1.2827 -0.7725  0.2848
 9114TIP3    H248834   0.709   1.113  12.008 -0.9067  0.9814 -1.5102
 9115TIP3   OH248835   3.358   3.702   5.216 -0.7500  0.2428 -0.8736
 9115TIP3    H148836   3.279   3.727   5.263 -1.8035 -1.7775 -1.4952
 9115TIP3    H248837   3.393   3.628   5.265  1.3166  1.7413 -0.0512
 9116TIP3   OH248838   3.584   0.286   6.384  0.0871 -0.3142 -0.1564
 9116TIP3    H148839   3.607   0.370   6.344 -0.0304 -0.6860 -1.0292
 9116TIP3    H248840   3.667   0.240   6.394 -0.1457 -1.3843 -2.6821
 9117TIP3   OH248841   5.314   5.943  13.993 -0.1661 -0.5244 -0.3621
 9117TIP3    H148842   5.298   5.916  13.903  1.0924 -1.4739 -0.3113
 9117TIP3    H248843   5.354   6.029  13.986  5.5800 -3.0356 -1.0741
 9118TIP3   OH248844   5.845   5.367   2.365 -0.2994  0.2273  0.4140
 9118TIP3    H148845   5.928   5.372   2.413 -0.3958  0.3964  0.5651
 9118TIP3    H248846   5.780   5.346   2.433 -0.5246  1.0448  0.4501
 9119TIP3   OH248847   0.741   6.165  13.521  0.4934  0.3535  0.5114
 9119TIP3    H148848   0.648   6.176  13.540  0.0482 -1.3801 -0.5838
 9119TIP3    H248849   0.750   6.190  13.429  1.1668  0.7694  0.6869
 9120TIP3   OH248850   4.643   4.177   5.580 -0.3348 -0.1376 -0.1799
 9120TIP3    H148851   4.669   4.105   5.523  0.5507  0.2307 -0.2524
 9120TIP3    H248852   4.679   4.153   5.666  0.5332  0.5160 -0.3468
 9121TIP3   OH248853   3.288   4.317  15.273  0.1267  0.0593 -0.2205
 9121TIP3    H148854   3.322   4.239  15.317  1.4122  0.9904  0.4867
 9121TIP3    H248855   3.252   4.370  15.344  0.3279  0.6381 -0.5519
 9122TIP3   OH248856   4.807   4.819   4.589  0.2116  0.4105  0.6976
 9122TIP3    H148857   4.759   4.902   4.583  1.8443  1.2644 -0.7565
 9122TIP3    H248858   4.899   4.844   4.591  0.7766 -1.4058 -0.9586
 9123TIP3   OH248859   2.243   2.847   1.987 -0.0024  0.3290 -0.8227
 9123TIP3    H148860   2.305   2.906   2.028 -0.0272  0.1717 -0.5611
 9123TIP3    H248861   2.159   2.893   1.991 -0.2061 -0.1218  0.2290
 9124TIP3   OH248862   6.253   1.129  16.746  0.2402 -0.7343 -0.3996
 9124TIP3    H148863   6.204   1.199  16.790  0.1689 -0.7933 -0.3837
 9124TIP3    H248864   6.259   1.060  16.812  2.2527  0.1394  0.3626
 9125TIP3   OH248865   6.261   0.699  13.746 -0.0267  0.1209 -0.0429
 9125TIP3    H148866   6.247   0.664  13.834  0.7325 -0.5692 -0.1864
 9125TIP3    H248867   6.259   0.623  13.688  2.0519  0.2425 -0.3090
 9126TIP3   OH248868   4.681   6.074   5.819  0.3153  0.0006  0.1191
 9126TIP3    H148869   4.633   6.031   5.890 -1.4121  0.5373 -0.6835
 9126TIP3    H248870   4.726   6.147   5.862  0.3635 -0.4733  0.8854
 9127TIP3   OH248871   2.948   3.219  14.441  0.3069 -0.3392  0.9259
 9127TIP3    H148872   2.992   3.148  14.396 -1.9085 -0.9308 -0.3400
 9127TIP3    H248873   2.935   3.187  14.531 -1.4784 -1.9230  0.1330
 9128TIP3   OH248874   1.739   5.787   5.995  0.4707  0.3529  0.0056
 9128TIP3    H148875   1.683   5.767   6.070 -0.9015 -0.0446 -1.1001
 9128TIP3    H248876   1.718   5.878   5.973  1.2906  0.6540  0.4518
 9129TIP3   OH248877   2.931   0.657   1.100 -0.7151 -0.3136 -0.0729
 9129TIP3    H148878   2.871   0.583   1.090 -0.6682 -0.2031 -1.3072
 9129TIP3    H248879   2.876   0.729   1.132 -0.4027 -1.3720  2.9865
 9130TIP3   OH248880   4.034   6.146   5.817 -0.1234 -0.1409 -0.0184
 9130TIP3    H148881   4.105   6.082   5.816 -0.1526 -0.2096  1.5507
 9130TIP3    H248882   4.015   6.162   5.725  1.7010 -0.3769 -0.4644
 9131TIP3   OH248883   1.894   3.008  12.874  0.1895 -0.9824 -0.5802
 9131TIP3    H148884   1.847   3.071  12.819 -0.8629 -1.3151 -0.0742
 9131TIP3    H248885   1.895   3.048  12.961  1.9679 -0.3952 -0.8436
 9132TIP3   OH248886   1.794   3.980   3.904 -0.1994 -0.0292 -0.4501
 9132TIP3    H148887   1.721   4.033   3.872 -0.2440  0.4869  0.5007
 9132TIP3    H248888   1.761   3.939   3.984  0.5228  0.1618 -0.0461
 9133TIP3   OH248889   2.474   2.758   4.323 -0.7295 -0.3669  0.0037
 9133TIP3    H148890   2.382   2.785   4.327 -1.0569 -1.6556  1.7695
 9133TIP3    H248891   2.481   2.709   4.241 -1.6649 -0.3750 -0.0791
 9134TIP3   OH248892   3.864   1.312   3.074  0.1777  0.3330 -0.0099
 9134TIP3    H148893   3.772   1.323   3.098  0.3936  0.8353  0.6079
 9134TIP3    H248894   3.870   1.348   2.986 -0.5884 -1.3509 -0.7753
 9135TIP3   OH248895   4.505   4.299  13.009  0.1201  0.7828  0.2762
 9135TIP3    H148896   4.587   4.292  12.960 -0.1085 -1.8096  0.1623
 9135TIP3    H248897   4.508   4.227  13.072 -1.5091  1.4230  1.1269
 9136TIP3   OH248898   6.470   0.871   6.413  0.2887  0.3724 -0.0705
 9136TIP3    H148899   6.556   0.856   6.453 -0.5854  1.7821  2.4245
 9136TIP3    H248900   6.419   0.794   6.437  0.7994 -0.4399 -1.5081
 9137TIP3   OH248901   1.843   3.693   1.200  0.2447 -0.0472 -0.1697
 9137TIP3    H148902   1.880   3.714   1.285 -0.3103 -1.4151  0.4305
 9137TIP3    H248903   1.779   3.762   1.183  0.6719  0.4651  0.3199
 9138TIP3   OH248904   4.331   3.247  12.515 -0.0900 -0.0448  0.2972
 9138TIP3    H148905   4.373   3.172  12.473  0.5116 -1.4713  3.3024
 9138TIP3    H248906   4.252   3.210  12.556 -0.6055  1.2559  0.5005
 9139TIP3   OH248907   4.386   5.854   0.940 -0.5566  0.2178 -0.7440
 9139TIP3    H148908   4.415   5.784   1.000  1.9033  0.8746 -1.1520
 9139TIP3    H248909   4.359   5.925   0.998  0.8029  0.4496 -0.3944
 9140TIP3   OH248910   5.165   2.150  15.878  0.6710 -0.2874  0.3602
 9140TIP3    H148911   5.166   2.220  15.814  0.7138 -2.1371 -1.7184
 9140TIP3    H248912   5.143   2.072  15.828 -0.7466 -1.5449  2.8492
 9141TIP3   OH248913   5.922   4.676  13.981 -0.3656 -0.0481  0.5273
 9141TIP3    H148914   5.927   4.772  13.982 -1.9497  0.0618 -0.1317
 9141TIP3    H248915   5.871   4.656  13.902 -0.6648 -1.4116  1.0565
 9142TIP3   OH248916   1.757   1.048  16.692 -0.8487  0.2804 -0.7244
 9142TIP3    H148917   1.791   1.119  16.746 -3.7796  1.1976 -0.0018
 9142TIP3    H248918   1.804   1.057  16.609 -1.0972  3.0183 -0.6107
 9143TIP3   OH248919   4.459   2.969   0.632  0.0050 -0.1738 -0.5391
 9143TIP3    H148920   4.399   3.034   0.669  0.7331  0.7336 -0.9373
 9143TIP3    H248921   4.421   2.884   0.657 -0.7151  0.4034  0.3522
 9144TIP3   OH248922   0.647   0.801  12.198  0.7020 -0.0999 -0.2531
 9144TIP3    H148923   0.652   0.765  12.286 -0.1347 -1.0784 -0.5938
 9144TIP3    H248924   0.677   0.729  12.141  0.7106  0.3388 -0.8087
 9145TIP3   OH248925   2.694   2.640  15.334 -0.5148 -0.3206 -0.1391
 9145TIP3    H148926   2.645   2.559  15.345 -0.1721 -0.5032  0.0139
 9145TIP3    H248927   2.746   2.648  15.414 -0.2705 -0.1375 -0.3174
 9146TIP3   OH248928   2.940   1.140  16.042  0.6396 -0.1230 -0.0996
 9146TIP3    H148929   2.888   1.197  15.986 -1.2141 -0.9986  0.6939
 9146TIP3    H248930   2.991   1.200  16.097  0.4748  0.7411 -0.8783
 9147TIP3   OH248931   3.850   5.110  10.852  0.0009  0.1812 -0.1117
 9147TIP3    H148932   3.940   5.140  10.836 -0.5303  1.0922 -1.4287
 9147TIP3    H248933   3.823   5.157  10.931 -0.3257  2.1132 -1.3511
 9148TIP3   OH248934   0.168   5.891  12.699 -0.0516  0.0070 -0.0989
 9148TIP3    H148935   0.167   5.907  12.793 -0.1417 -4.8640  0.8606
 9148TIP3    H248936   0.250   5.846  12.683 -1.0822 -1.2504 -1.9546
 9149TIP3   OH248937   6.760   2.021   2.744 -0.2624 -0.2271 -0.1412
 9149TIP3    H148938   6.810   2.053   2.669 -1.8632  0.4702 -0.9210
 9149TIP3    H248939   6.719   1.940   2.714  0.5733 -0.9241  0.5737
 9150TIP3   OH248940   2.939   6.175   5.658  0.2381 -0.6210  0.0448
 9150TIP3    H148941   2.869   6.219   5.704  1.0991  0.7504  0.0720
 9150TIP3    H248942   2.895   6.110   5.602 -0.8978 -1.1894  1.5753
 9151TIP3   OH248943   0.815   4.314  11.867 -0.3093 -0.1377 -0.3884
 9151TIP3    H148944   0.747   4.349  11.925 -2.3892 -1.0688 -2.2027
 9151TIP3    H248945   0.775   4.238  11.825  0.6426  1.2263 -4.0018
 9152TIP3   OH248946   4.409   6.163  11.549  0.6630  0.3318 -0.0422
 9152TIP3    H148947   4.429   6.072  11.574  1.0712  0.8746  1.7013
 9152TIP3    H248948   4.494   6.200  11.524  0.6705  0.5101  0.2377
 9153TIP3   OH248949   0.665   6.013   2.006 -0.1668 -1.4488  0.1903
 9153TIP3    H148950   0.648   6.032   2.098  0.0873 -0.2831 -0.0027
 9153TIP3    H248951   0.603   6.067   1.958  0.9869 -0.6198 -0.3792
 9154TIP3   OH248952   6.155   5.064  17.234  0.2301 -0.0419  0.2362
 9154TIP3    H148953   6.112   5.120  17.169  0.6896 -1.8218 -1.6253
 9154TIP3    H248954   6.181   5.125  17.304 -0.6522  1.8275 -1.0097
 9155TIP3   OH248955   3.195   2.000   5.311  0.3122 -0.1340 -0.3562
 9155TIP3    H148956   3.118   2.029   5.360  1.2428 -0.0007  1.0573
 9155TIP3    H248957   3.202   2.061   5.238 -1.6983 -0.9605 -1.2586
 9156TIP3   OH248958   4.318   5.928   5.306  0.9444  0.3496  0.0251
 9156TIP3    H148959   4.250   5.994   5.295 -0.3492 -0.6195  1.8890
 9156TIP3    H248960   4.394   5.962   5.258 -0.4467  2.0479 -0.9911
 9157TIP3   OH248961   0.047   6.112   1.098 -0.2684 -0.0057  0.1388
 9157TIP3    H148962   0.085   6.188   1.142 -0.7404 -0.3336  1.1152
 9157TIP3    H248963  -0.007   6.149   1.028 -1.1848  0.5891  1.1464
 9158TIP3   OH248964   3.190   2.571   0.396 -0.1092 -0.5236 -0.0227
 9158TIP3    H148965   3.165   2.555   0.487 -1.0623 -0.1213 -0.2068
 9158TIP3    H248966   3.236   2.491   0.369  0.2028 -0.6321  0.8171
 9159TIP3   OH248967   2.796   4.505   4.481  0.1026  0.5093  0.1191
 9159TIP3    H148968   2.870   4.558   4.449  0.5794 -0.0511  0.2719
 9159TIP3    H248969   2.728   4.516   4.415  0.6302  0.3649 -0.4510
 9160TIP3   OH248970   3.933   5.446  11.967 -0.2807  0.0651 -0.1054
 9160TIP3    H148971   3.986   5.374  11.934  0.0218  0.2115  0.0507
 9160TIP3    H248972   3.855   5.447  11.911 -0.3852 -0.5111  0.0295
 9161TIP3   OH248973   4.888   6.758   1.817 -0.0153 -0.1307 -0.3357
 9161TIP3    H148974   4.832   6.828   1.850 -0.3666 -0.6758  0.2165
 9161TIP3    H248975   4.850   6.677   1.851  0.0923 -0.6403 -1.3868
 9162TIP3   OH248976   2.390   3.036  14.336 -0.1193  0.1248  0.0224
 9162TIP3    H148977   2.367   2.961  14.391 -2.3410  0.6076 -0.1898
 9162TIP3    H248978   2.451   3.087  14.389 -0.5467 -0.5439  1.1763
 9163TIP3   OH248979   0.706   5.051   3.008 -0.3935  0.0933 -0.4087
 9163TIP3    H148980   0.697   4.957   3.024  0.6391  0.4637  2.5802
 9163TIP3    H248981   0.772   5.057   2.939  1.1223 -1.2893  0.8828
 9164TIP3   OH248982   2.291   3.807   2.204  0.7551  0.2546 -0.3485
 9164TIP3    H148983   2.338   3.783   2.124  0.9740 -1.4640  0.2634
 9164TIP3    H248984   2.334   3.755   2.272  0.3459  1.4414  0.8265
 9165TIP3   OH248985   0.144   5.687  13.972 -0.5544  0.7854 -0.2572
 9165TIP3    H148986   0.183   5.725  13.894 -0.7721  0.0780 -0.7182
 9165TIP3    H248987   0.156   5.753  14.040 -1.1399  1.7724 -1.1031
 9166TIP3   OH248988   4.871   4.242   1.127  0.0253  0.8826  0.1138
 9166TIP3    H148989   4.878   4.338   1.130  1.3817  0.7728  0.9171
 9166TIP3    H248990   4.838   4.223   1.039 -0.1032  2.0794 -0.1056
 9167TIP3   OH248991   0.059   4.890  13.154 -0.1691 -0.3628  0.1153
 9167TIP3    H148992   0.079   4.814  13.209  2.8109 -0.0909 -0.5154
 9167TIP3    H248993   0.021   4.954  13.214  2.3161 -0.3624  1.7514
 9168TIP3   OH248994   4.513   1.148  16.382 -0.7047 -0.2664  0.5449
 9168TIP3    H148995   4.597   1.192  16.391 -0.8414  0.3289 -0.9177
 9168TIP3    H248996   4.484   1.170  16.294 -0.2234 -4.2645 -0.6994
 9169TIP3   OH248997   2.210   4.043   0.482  0.2783  0.5636 -0.1757
 9169TIP3    H148998   2.207   3.956   0.520  1.1513 -0.0537 -1.4653
 9169TIP3    H248999   2.172   4.032   0.394 -1.5453  1.9107  0.4222
 9170TIP3   OH249000   0.745   3.794  14.710 -0.0351  0.0812  0.7441
 9170TIP3    H149001   0.835   3.824  14.721 -0.2262  0.7522  0.5049
 9170TIP3    H249002   0.691   3.871  14.731 -0.7033 -1.3653  4.7462
 9171TIP3   OH249003   2.055   0.717   2.510 -0.1005 -0.1764  0.1610
 9171TIP3    H149004   1.962   0.700   2.500  0.0046 -0.7646  0.1651
 9171TIP3    H249005   2.098   0.647   2.460  0.3234  0.5026 -0.4381
 9172TIP3   OH249006   6.535   3.064  15.913  0.2598 -0.2673  0.3161
 9172TIP3    H149007   6.458   3.047  15.968  1.2381 -0.7247  1.5627
 9172TIP3    H249008   6.602   3.005  15.947  0.6534 -1.1766 -1.9136
 9173TIP3   OH249009   2.545   2.857  15.264 -0.4735 -0.3597  0.0447
 9173TIP3    H149010   2.458   2.818  15.260 -0.1302 -1.0267 -1.0283
 9173TIP3    H249011   2.605   2.783  15.257  0.1836  0.1709 -0.0158
 9174TIP3   OH249012   2.440   0.333   1.167 -0.3866  0.1394 -0.1076
 9174TIP3    H149013   2.456   0.291   1.252 -0.4008 -1.0783 -0.6852
 9174TIP3    H249014   2.444   0.260   1.104 -2.1344  0.7509 -0.9519
 9175TIP3   OH249015   0.702   2.755   0.308 -0.0104 -0.1346  0.3976
 9175TIP3    H149016   0.729   2.736   0.398 -0.7486 -1.7482  0.3027
 9175TIP3    H249017   0.783   2.751   0.258  0.1912 -0.7229  0.7618
 9176TIP3   OH249018   3.307   6.545   4.122  0.2412  0.2528 -0.4010
 9176TIP3    H149019   3.228   6.585   4.157 -0.0856 -0.1170 -0.7142
 9176TIP3    H249020   3.300   6.453   4.146  0.4077  0.1513 -0.7373
 9177TIP3   OH249021   4.679   5.066   1.924 -0.5438  0.0140  0.0154
 9177TIP3    H149022   4.606   5.072   1.861  0.3199  3.8103 -0.7486
 9177TIP3    H249023   4.636   5.068   2.009 -1.5177 -1.5193 -0.4065
 9178TIP3   OH249024   4.656   6.750  17.245 -0.6242  0.5386  0.1242
 9178TIP3    H149025   4.659   6.667  17.293  1.1649  0.4582 -0.0916
 9178TIP3    H249026   4.716   6.808  17.292  0.7894  0.6097 -1.6623
 9179TIP3   OH249027   1.811   0.027   5.872 -0.0371  0.1003 -0.3868
 9179TIP3    H149028   1.842   0.033   5.781  0.5138  0.4376 -0.1784
 9179TIP3    H249029   1.827  -0.065   5.895 -1.5522 -0.3592 -1.1144
 9180TIP3   OH249030   4.368   6.005   4.670 -0.1364 -0.3625 -0.2102
 9180TIP3    H149031   4.399   5.975   4.585  1.0544  0.4327 -0.0690
 9180TIP3    H249032   4.281   6.040   4.654 -0.1667 -0.7892 -0.9815
 9181TIP3   OH249033   4.693   1.839   2.647  0.0552  0.2945 -0.0325
 9181TIP3    H149034   4.674   1.828   2.740  0.4770 -4.2113 -0.3789
 9181TIP3    H249035   4.609   1.861   2.608 -0.5834 -0.0808  1.1112
 9182TIP3   OH249036   5.936   0.058   5.268 -0.0574  0.2325 -0.2341
 9182TIP3    H149037   5.906  -0.018   5.218 -0.4930  0.1436  0.1600
 9182TIP3    H249038   5.933   0.029   5.360  1.5275  0.1199 -0.1971
 9183TIP3   OH249039   2.420   1.852  14.423  0.3205 -0.2022  0.4638
 9183TIP3    H149040   2.488   1.874  14.359 -0.9892 -0.5697 -1.1031
 9183TIP3    H249041   2.448   1.894  14.504  0.9828  2.0624 -0.8963
 9184TIP3   OH249042   6.350   1.136   3.658 -0.2662  0.4619  0.7514
 9184TIP3    H149043   6.327   1.044   3.670  0.2352  0.1269 -0.7354
 9184TIP3    H249044   6.267   1.179   3.639 -0.4525  0.2537  1.0810
 9185TIP3   OH249045   1.289   2.556  16.360 -0.3391 -0.6232  0.0979
 9185TIP3    H149046   1.264   2.474  16.316  1.0641  0.3154 -2.6123
 9185TIP3    H249047   1.234   2.622  16.319 -1.0495 -0.1116  1.8670
 9186TIP3   OH249048   5.185   1.401   1.525  0.0868  0.4047  0.0798
 9186TIP3    H149049   5.213   1.425   1.613  0.3612 -0.0461  0.1170
 9186TIP3    H249050   5.108   1.345   1.538 -0.9474  1.7602 -0.0265
 9187TIP3   OH249051   5.545   1.935   5.644 -0.0441  0.0922 -0.1878
 9187TIP3    H149052   5.567   1.875   5.714  0.2443  2.0327  1.4319
 9187TIP3    H249053   5.625   1.941   5.591 -0.4043 -1.7106 -0.9861
 9188TIP3   OH249054   2.022   0.600  13.734 -0.0513  0.0216 -0.0385
 9188TIP3    H149055   2.093   0.663  13.727  2.1762 -2.3772  0.3068
 9188TIP3    H249056   2.038   0.537  13.663 -0.8950 -1.4541  1.0410
 9189TIP3   OH249057   2.755   1.904  11.242 -0.1081 -0.3589 -0.0511
 9189TIP3    H149058   2.789   1.912  11.331 -0.4721 -0.9766  0.1476
 9189TIP3    H249059   2.725   1.992  11.220  0.8893  0.0195  0.0653
 9190TIP3   OH249060   2.428   2.670   3.580  0.0915  0.0518 -0.5762
 9190TIP3    H149061   2.443   2.615   3.656 -1.9017  0.6844  0.2936
 9190TIP3    H249062   2.395   2.752   3.616 -1.2507  0.2160 -2.1307
 9191TIP3   OH249063   2.717   2.958  11.305  0.1841  0.1160  0.1989
 9191TIP3    H149064   2.795   2.948  11.251  0.2375 -1.9852  0.6228
 9191TIP3    H249065   2.694   3.051  11.297  1.4231  0.2874 -1.6904
 9192TIP3   OH249066   5.572   0.333  13.005  0.0900  0.2345 -0.1614
 9192TIP3    H149067   5.502   0.282  13.046  0.3796  0.3666  0.4935
 9192TIP3    H249068   5.563   0.314  12.912 -0.6274  0.0079 -0.0528
 9193TIP3   OH249069   5.195   4.998  12.057 -0.1917 -0.0953 -0.5387
 9193TIP3    H149070   5.193   5.081  12.104 -1.2904 -0.6959  0.5199
 9193TIP3    H249071   5.269   4.951  12.096 -1.3227 -0.7378  0.8896
 9194TIP3   OH249072   2.598   4.362   1.961  0.7655 -0.0848  0.5533
 9194TIP3    H149073   2.631   4.278   1.993  2.3390  0.7656  1.2088
 9194TIP3    H249074   2.618   4.361   1.867  2.4099  0.2958  0.8877
 9195TIP3   OH249075   6.794   3.248   0.509 -0.2943 -0.3305  0.8201
 9195TIP3    H149076   6.879   3.291   0.511 -0.5990  0.2793  0.6018
 9195TIP3    H249077   6.778   3.223   0.600 -0.6156  0.9975  1.1411
 9196TIP3   OH249078   1.935   5.941  15.944  0.2895  0.1677 -0.4016
 9196TIP3    H149079   1.930   5.846  15.941 -1.5342  0.2137  0.3924
 9196TIP3    H249080   1.989   5.965  15.868 -0.0349 -1.4332 -1.1573
 9197TIP3   OH249081   0.073   4.457   1.738  0.2547  0.0128 -0.0097
 9197TIP3    H149082   0.036   4.375   1.771  1.8181 -0.2724  1.0630
 9197TIP3    H249083   0.002   4.497   1.688 -0.5143 -2.0145 -0.5812
 9198TIP3   OH249084   5.326   0.602   4.838 -0.1136 -0.0106 -0.2533
 9198TIP3    H149085   5.319   0.529   4.777  0.8397  0.8769 -1.4460
 9198TIP3    H249086   5.255   0.588   4.901 -0.9672 -1.0622 -1.4327
 9199TIP3   OH249087   4.970   3.082   4.806 -0.2900  0.3454  0.0812
 9199TIP3    H149088   4.889   3.103   4.852 -0.4570 -0.9269  0.3855
 9199TIP3    H249089   4.992   2.994   4.836  1.2577  0.7128  0.0838
 9200TIP3   OH249090   2.827   2.900  12.806  0.1726 -0.1105  0.4089
 9200TIP3    H149091   2.792   2.881  12.893  1.3351 -1.5760  0.5878
 9200TIP3    H249092   2.917   2.930  12.822 -0.2798  1.5726 -0.1671
 9201TIP3   OH249093   1.676   4.206  15.029  0.0320 -0.4199 -0.2734
 9201TIP3    H149094   1.697   4.114  15.042 -0.9619 -0.5971  0.0930
 9201TIP3    H249095   1.725   4.231  14.950 -1.4015 -1.8360 -1.6382
 9202TIP3   OH249096   3.034   0.218   5.198 -0.0090 -0.8022  0.1845
 9202TIP3    H149097   3.035   0.171   5.115  0.2610  0.7523 -0.7249
 9202TIP3    H249098   3.105   0.281   5.191 -1.4865  0.9671  0.6250
 9203TIP3   OH249099   0.335   6.233  15.942  0.3246  0.1671 -0.4095
 9203TIP3    H149100   0.422   6.205  15.915  0.0674 -0.5305 -0.5260
 9203TIP3    H249101   0.343   6.251  16.036  0.8268  1.0534 -0.6163
 9204TIP3   OH249102   6.249   3.702   3.346  0.1718 -0.7839 -0.7919
 9204TIP3    H149103   6.224   3.779   3.294  0.5492 -0.3384 -0.3162
 9204TIP3    H249104   6.301   3.738   3.418  1.0227 -1.5680 -1.0088
 9205TIP3   OH249105   3.476   0.995  13.329 -0.3767  0.2160  0.3767
 9205TIP3    H149106   3.567   0.987  13.302 -0.6227  0.3320 -0.5058
 9205TIP3    H249107   3.434   0.917  13.293 -0.8709  0.7655 -0.2387
 9206TIP3   OH249108   2.686   4.072   2.246 -1.1442  0.6104 -0.0291
 9206TIP3    H149109   2.592   4.079   2.264 -0.8073  1.5392  1.4074
 9206TIP3    H249110   2.695   4.098   2.154 -2.1515  1.6006  0.1477
 9207TIP3   OH249111   4.838   3.748  10.985 -0.1625  0.2159 -0.2778
 9207TIP3    H149112   4.879   3.663  11.001 -0.7329  0.6882  4.0747
 9207TIP3    H249113   4.912   3.809  10.977  0.1659  0.4354  3.7585
 9208TIP3   OH249114   6.077   4.503  11.108 -0.0288 -0.3183  0.3041
 9208TIP3    H149115   6.038   4.543  11.030  1.2813  0.9619  0.2884
 9208TIP3    H249116   6.091   4.412  11.083  0.0521 -0.0076 -0.8497
 9209TIP3   OH249117   5.136   3.271  13.113  0.1949  0.4548  0.2565
 9209TIP3    H149118   5.120   3.284  13.206  1.5939 -0.1060  0.5828
 9209TIP3    H249119   5.189   3.345  13.086 -0.4720  0.7811 -0.1675
 9210TIP3   OH249120   4.125   2.207   5.427  0.6606  0.2531  0.2880
 9210TIP3    H149121   4.131   2.234   5.518 -0.3426  0.7493  0.2223
 9210TIP3    H249122   4.172   2.274   5.378 -0.5960  1.1466  0.2597
 9211TIP3   OH249123   1.943   0.253   5.859 -0.4665 -0.1271  0.0182
 9211TIP3    H149124   1.866   0.195   5.865  0.2337 -1.0916 -0.1475
 9211TIP3    H249125   1.910   0.331   5.816 -1.6067 -0.0922  0.9152
 9212TIP3   OH249126   0.017   4.478  14.609 -0.0820 -0.4770  0.1111
 9212TIP3    H149127   0.056   4.524  14.683 -1.2290  1.2861 -0.3527
 9212TIP3    H249128  -0.077   4.486  14.622 -0.2914 -1.4112 -0.7615
 9213TIP3   OH249129   2.984   2.643   4.739  0.4938 -0.7620  0.3029
 9213TIP3    H149130   2.927   2.664   4.665  0.7349  1.0535  0.6121
 9213TIP3    H249131   2.952   2.698   4.811  0.7244 -1.9639  1.3418
 9214TIP3   OH249132   4.699   3.350   4.578  0.2010 -0.3089  0.0198
 9214TIP3    H149133   4.641   3.424   4.564  1.6350  0.8316 -0.0636
 9214TIP3    H249134   4.704   3.306   4.493  1.0172  0.7613 -0.5028
 9215TIP3   OH249135   2.511   2.531   3.805 -0.2472  0.2829 -0.3408
 9215TIP3    H149136   2.435   2.518   3.862 -0.9696  0.4599 -1.2501
 9215TIP3    H249137   2.586   2.523   3.864 -0.9938  1.1831  0.7784
 9216TIP3   OH249138   2.393   1.101   5.606  0.3523  0.2526 -0.1110
 9216TIP3    H149139   2.486   1.084   5.615  0.3598  0.3917  0.0873
 9216TIP3    H249140   2.353   1.060   5.683  0.5569  2.5269  1.2388
 9217TIP3   OH249141   2.695   4.801  13.256  0.3678 -0.5970 -0.2356
 9217TIP3    H149142   2.631   4.799  13.185  1.5260 -1.7494 -1.2607
 9217TIP3    H249143   2.777   4.773  13.216  1.3126 -0.0685  1.2842
 9218TIP3   OH249144   6.538   3.751   0.400  0.0409 -1.0301 -0.3952
 9218TIP3    H149145   6.562   3.659   0.407 -0.1533 -1.2430 -2.3626
 9218TIP3    H249146   6.462   3.752   0.343 -0.2779  0.3066  0.0383
 9219TIP3   OH249147   4.844   2.215  13.472  0.8781  0.1653  0.0719
 9219TIP3    H149148   4.825   2.246  13.561  1.4572 -0.0364  0.2673
 9219TIP3    H249149   4.886   2.130  13.485  1.2191  0.2655 -0.3895
 9220TIP3   OH249150   3.938   3.815   5.405 -0.6949 -0.5737 -0.2656
 9220TIP3    H149151   4.011   3.752   5.401 -0.0776  0.1456 -0.5366
 9220TIP3    H249152   3.876   3.776   5.466 -0.5813 -1.7315 -0.8702
 9221TIP3   OH249153   3.591   6.269  12.232  0.7963  0.4027  0.0544
 9221TIP3    H149154   3.649   6.192  12.234  1.8036  1.1647  0.8785
 9221TIP3    H249155   3.503   6.232  12.225  1.4062 -0.7632 -1.9412
 9222TIP3   OH249156   0.290   2.034   1.167  0.0978  0.0097  0.5647
 9222TIP3    H149157   0.267   1.942   1.177 -0.4794  0.2004  1.0586
 9222TIP3    H249158   0.257   2.059   1.081 -1.2187  0.1775  1.1053
 9223TIP3   OH249159   6.635   4.604  11.941 -0.1833 -0.5081 -0.4280
 9223TIP3    H149160   6.576   4.665  11.897 -0.0220 -0.3861 -0.4753
 9223TIP3    H249161   6.619   4.618  12.034  1.1408  0.8880 -0.3977
 9224TIP3   OH249162   2.026   1.934  16.556 -0.0098  0.0050  0.5514
 9224TIP3    H149163   1.999   1.843  16.564 -1.4742  0.5225  1.7068
 9224TIP3    H249164   2.082   1.936  16.479 -1.1817 -1.5959 -0.3621
 9225TIP3   OH249165   2.947   6.625  13.534  0.2054  0.3509  0.4664
 9225TIP3    H149166   2.958   6.682  13.458 -0.4081  0.4061  0.4171
 9225TIP3    H249167   3.025   6.570  13.535 -2.1981 -3.4439 -3.4168
 9226TIP3   OH249168   3.086   3.768  13.759 -0.3527 -0.2277  0.0123
 9226TIP3    H149169   3.076   3.861  13.782  1.2233 -0.2866  1.0932
 9226TIP3    H249170   2.997   3.735  13.752 -0.9329  1.2954 -0.0341
 9227TIP3   OH249171   4.995   5.016   6.481  0.0996  0.1324  0.0226
 9227TIP3    H149172   4.975   5.110   6.479 -0.6965  0.0198  1.7475
 9227TIP3    H249173   4.944   4.983   6.554 -0.0380 -1.7563 -0.9112
 9228TIP3   OH249174   0.268   4.792   5.227 -0.1323  0.6422 -0.0253
 9228TIP3    H149175   0.181   4.773   5.263  0.2290  0.6125  0.8281
 9228TIP3    H249176   0.280   4.886   5.240 -1.4556  1.3386 -3.2585
 9229TIP3   OH249177   4.517   6.152   1.915 -0.0005 -0.3060  0.0787
 9229TIP3    H149178   4.498   6.212   1.987  1.4866 -0.0440  0.2644
 9229TIP3    H249179   4.523   6.209   1.838  0.2853 -0.3597  0.0620
 9230TIP3   OH249180   2.070   6.681   0.458 -0.9232 -0.0765  0.1292
 9230TIP3    H149181   2.002   6.712   0.398 -1.3927  1.6696  1.5238
 9230TIP3    H249182   2.106   6.603   0.416 -3.0131 -0.3629 -1.1737
 9231TIP3   OH249183   4.711   2.685   2.103  0.0715  0.2930 -0.2425
 9231TIP3    H149184   4.776   2.669   2.172 -0.9550 -0.9408  0.4590
 9231TIP3    H249185   4.764   2.697   2.024  1.2129  0.5371  0.5385
 9232TIP3   OH249186   5.963   2.875   0.547 -0.0657 -0.2588  0.2928
 9232TIP3    H149187   5.996   2.868   0.636 -1.0672  0.2720  0.7099
 9232TIP3    H249188   5.963   2.785   0.514 -1.5853 -0.7129  1.5142
 9233TIP3   OH249189   6.728   4.637   0.106 -0.7800  0.4535  0.1997
 9233TIP3    H149190   6.810   4.588   0.096 -2.2943 -2.0854  0.0518
 9233TIP3    H249191   6.681   4.622   0.024 -2.5538 -0.3207  1.3331
 9234TIP3   OH249192   1.837   4.547   1.323  0.1999 -0.0383  0.3183
 9234TIP3    H149193   1.875   4.605   1.258 -0.4544  0.7097  0.6034
 9234TIP3    H249194   1.743   4.557   1.313  0.0812  1.3017  2.4500
 9235TIP3   OH249195   5.684   3.466  10.931  0.4155 -0.1615 -0.2850
 9235TIP3    H149196   5.614   3.432  10.987 -0.7397  1.1937 -0.8552
 9235TIP3    H249197   5.738   3.518  10.990 -0.7211  1.1536 -0.3660
 9236TIP3   OH249198   1.448   3.499   3.950  0.2358 -0.4829 -0.7511
 9236TIP3    H149199   1.433   3.428   3.887  1.9354  1.0758 -2.9647
 9236TIP3    H249200   1.539   3.487   3.978  0.4756  0.7165 -1.0006
 9237TIP3   OH249201   2.856   3.225  16.384 -0.1945 -0.1206  0.3530
 9237TIP3    H149202   2.901   3.198  16.304 -0.3567  4.5300 -1.4668
 9237TIP3    H249203   2.926   3.243  16.447  0.2167  0.8174 -0.3581
 9238TIP3   OH249204   1.352   4.034   4.888  0.8322  1.0229  0.6116
 9238TIP3    H149205   1.322   4.041   4.978 -1.0824 -0.5686  0.1402
 9238TIP3    H249206   1.411   3.958   4.888 -1.1743 -0.5630  0.0455
 9239TIP3   OH249207   5.130   6.263  11.833  0.4463  0.1182  0.5089
 9239TIP3    H149208   5.078   6.243  11.912 -0.2181  3.3710  0.9783
 9239TIP3    H249209   5.219   6.237  11.856  0.2547  0.9733  2.3303
 9240TIP3   OH249210   2.303   4.092   2.691  0.3525 -0.0340 -0.6793
 9240TIP3    H149211   2.272   4.042   2.767  0.6985 -0.3269 -0.7321
 9240TIP3    H249212   2.397   4.074   2.687  0.2438 -0.4672 -1.5075
 9241TIP3   OH249213   6.714   5.530  16.000  0.7744  1.1477 -0.2182
 9241TIP3    H149214   6.807   5.521  15.977  0.4589  2.8119 -2.2135
 9241TIP3    H249215   6.699   5.625  16.001 -0.7682  0.9024  0.7398
 9242TIP3   OH249216   4.062   3.802   1.713 -0.1681  0.2888 -0.7253
 9242TIP3    H149217   4.078   3.714   1.678 -0.1913  0.6184 -1.5645
 9242TIP3    H249218   4.150   3.837   1.730 -0.0779  0.9165 -2.4159
 9243TIP3   OH249219   1.764   4.829   2.283  0.1550  0.2136 -0.4144
 9243TIP3    H149220   1.681   4.806   2.240 -0.5961  0.0346  1.1113
 9243TIP3    H249221   1.751   4.919   2.313  0.8087  0.4604 -0.8699
 9244TIP3   OH249222   6.274   4.752   2.961  0.4434  0.0644 -0.6081
 9244TIP3    H149223   6.244   4.663   2.973 -0.1049  0.3915  0.4459
 9244TIP3    H249224   6.363   4.753   2.998 -0.1227  0.3313  0.7533
 9245TIP3   OH249225   0.668   2.514   3.803  0.0496 -0.5433 -0.2818
 9245TIP3    H149226   0.642   2.566   3.879 -1.1529 -1.0546 -0.3266
 9245TIP3    H249227   0.684   2.578   3.734 -0.2888 -0.1645 -0.0070
 9246TIP3   OH249228   6.805   3.103  14.220 -0.3654  0.1246  0.4694
 9246TIP3    H149229   6.759   3.020  14.237 -1.1710  0.6903  1.0513
 9246TIP3    H249230   6.778   3.127  14.132 -0.5781  0.0615  0.5173
 9247TIP3   OH249231   1.538   6.017  15.818 -0.1366  0.5976 -0.0292
 9247TIP3    H149232   1.472   6.024  15.749  1.6202  0.4608 -1.7537
 9247TIP3    H249233   1.594   6.094  15.805 -0.4670  1.2137  1.9954
 9248TIP3   OH249234   1.321   6.711  15.864 -0.0913  0.0421  0.4842
 9248TIP3    H149235   1.375   6.739  15.790 -1.0296  0.8198  0.0808
 9248TIP3    H249236   1.278   6.791  15.894 -1.1826 -0.6104  0.6717
 9249TIP3   OH249237   3.754   2.849  13.394  0.1884  0.3870  0.2140
 9249TIP3    H149238   3.763   2.940  13.421 -2.0393  1.0739 -1.1453
 9249TIP3    H249239   3.692   2.811  13.457  1.9138 -0.5052  1.4095
 9250TIP3   OH249240   3.770   1.285  14.002 -0.9464 -0.0810 -0.0007
 9250TIP3    H149241   3.735   1.232  14.074  1.5035 -1.6305  0.0983
 9250TIP3    H249242   3.743   1.239  13.923  0.8945 -1.3484  0.0781
 9251TIP3   OH249243   5.774   6.190   6.291  0.0658 -0.2172 -0.3333
 9251TIP3    H149244   5.800   6.107   6.253  2.1501 -0.4498  1.5057
 9251TIP3    H249245   5.704   6.168   6.352 -0.2938 -0.4280 -0.8180
 9252TIP3   OH249246   5.417   0.986   5.976  0.5895  0.2026 -0.3630
 9252TIP3    H149247   5.325   0.996   5.953  1.0215  0.5747 -2.0337
 9252TIP3    H249248   5.449   0.914   5.920  0.9158 -1.0482  1.4031
 9253TIP3   OH249249   1.963   5.480   0.869 -0.1710  0.1855  0.5512
 9253TIP3    H149250   1.913   5.534   0.807  0.2773  2.2774  1.9540
 9253TIP3    H249251   1.897   5.427   0.913 -0.6525 -0.2777 -0.7089
 9254TIP3   OH249252   1.844   1.036   4.095  0.0673  0.2918  0.5088
 9254TIP3    H149253   1.830   0.992   4.179 -1.6321 -0.2233 -0.0157
 9254TIP3    H249254   1.813   1.126   4.110  0.6971  0.4776  0.7115
 9255TIP3   OH249255   5.330   1.026   0.082  0.6465 -0.8355 -0.4495
 9255TIP3    H149256   5.388   1.068   0.019  0.2981  1.8572  0.9663
 9255TIP3    H249257   5.268   0.977   0.028  1.6309 -0.2905 -2.1159
 9256TIP3   OH249258   6.071   6.367  13.957 -0.5270 -0.3664 -0.0395
 9256TIP3    H149259   6.142   6.429  13.939 -0.5310 -0.3818 -0.1096
 9256TIP3    H249260   6.085   6.339  14.047 -0.3961 -0.4339 -0.0823
 9257TIP3   OH249261   3.909   3.445   5.330  0.5360 -0.7221 -0.4009
 9257TIP3    H149262   3.927   3.392   5.252  2.8931 -0.4484 -0.0642
 9257TIP3    H249263   3.995   3.465   5.366 -0.3394  2.2685  0.2044
 9258TIP3   OH249264   5.762   2.146   2.617 -0.2960  0.2084  0.4303
 9258TIP3    H149265   5.775   2.240   2.624  2.5706 -0.2107  1.3800
 9258TIP3    H249266   5.758   2.129   2.523 -3.9019  1.5923  0.2465
 9259TIP3   OH249267   0.090   3.915  13.370 -0.2681  0.7148 -0.3269
 9259TIP3    H149268   0.118   4.004  13.391  0.4598  0.1301  1.2029
 9259TIP3    H249269   0.161   3.859  13.400 -1.2201 -0.4686 -0.2239
 9260TIP3   OH249270   3.234   6.643   6.080 -0.4505  0.4223 -0.0853
 9260TIP3    H149271   3.155   6.688   6.110  0.2700  2.1787 -0.7873
 9260TIP3    H249272   3.306   6.700   6.105  0.3509  0.5837 -2.5701
 9261TIP3   OH249273   4.891   4.525  13.930 -0.6242 -0.0613  0.4449
 9261TIP3    H149274   4.796   4.522  13.940 -0.7233 -0.7588 -0.6080
 9261TIP3    H249275   4.925   4.497  14.015 -1.3370  1.3145  1.2021
 9262TIP3   OH249276   2.259   5.549   0.254  0.6541 -0.1524 -0.0021
 9262TIP3    H149277   2.234   5.512   0.170  0.8355 -0.4925  0.0931
 9262TIP3    H249278   2.352   5.570   0.244  0.1479  1.9183 -0.6516
 9263TIP3   OH249279   1.515   4.792   3.056  0.1815 -0.3256 -0.1370
 9263TIP3    H149280   1.510   4.772   3.149  0.8605 -0.2359 -0.0804
 9263TIP3    H249281   1.450   4.734   3.015 -1.6877  1.1750  0.6194
 9264TIP3   OH249282   6.716   0.445  13.497  0.2664  0.5185  0.3310
 9264TIP3    H149283   6.697   0.410  13.584  1.6585  0.7247  0.7216
 9264TIP3    H249284   6.788   0.391  13.464  0.4991  1.1584 -0.2317
 9265TIP3   OH249285   3.218   5.301  13.644 -0.4727  0.5701 -0.4501
 9265TIP3    H149286   3.257   5.248  13.574  1.0919  0.6626  0.3455
 9265TIP3    H249287   3.197   5.237  13.713  1.6398  0.9891  0.6120
 9266TIP3   OH249288   2.909   3.134   5.671  0.1733 -0.0750  0.0444
 9266TIP3    H149289   2.899   3.099   5.760  0.8631  0.1858  0.2240
 9266TIP3    H249290   2.819   3.142   5.639 -0.1426  0.7874  1.1081
 9267TIP3   OH249291   0.358   0.536  12.480  0.2413 -0.1495 -0.5528
 9267TIP3    H149292   0.446   0.554  12.514 -0.3927 -0.6979  1.4546
 9267TIP3    H249293   0.318   0.481  12.546 -0.9152 -1.6642 -2.4652
 9268TIP3   OH249294   0.332   1.043  12.665  0.2444 -0.9708  0.0863
 9268TIP3    H149295   0.255   1.099  12.661  0.0930 -1.1843 -0.0252
 9268TIP3    H249296   0.297   0.954  12.664  0.5450 -1.0757 -1.1669
 9269TIP3   OH249297   0.044   5.881  15.576 -0.4342 -0.0615 -0.4985
 9269TIP3    H149298   0.094   5.963  15.568 -1.1314  0.6119  1.6832
 9269TIP3    H249299   0.087   5.833  15.646 -1.9158 -0.1296  0.3984
 9270TIP3   OH249300   4.424   3.549  16.617  0.0834 -0.3780 -0.1633
 9270TIP3    H149301   4.473   3.507  16.688 -2.8003  0.1334  2.1907
 9270TIP3    H249302   4.366   3.481  16.584  1.7466 -0.7597 -2.4600
 9271TIP3   OH249303   1.818   1.081   2.921  0.1142 -0.0473 -0.3181
 9271TIP3    H149304   1.803   0.987   2.931  0.5184 -0.2552 -1.6238
 9271TIP3    H249305   1.913   1.090   2.916 -0.0076  0.1778 -2.5387
 9272TIP3   OH249306   0.336   4.570  16.435  0.0311 -0.1678 -0.1687
 9272TIP3    H149307   0.268   4.626  16.397  0.1144 -0.8522 -1.3393
 9272TIP3    H249308   0.289   4.510  16.493 -0.1174  0.7534  0.6726
 9273TIP3   OH249309   3.535   1.676   0.957 -0.5670 -0.5122  0.1744
 9273TIP3    H149310   3.446   1.643   0.961 -0.2149 -1.4698  0.4382
 9273TIP3    H249311   3.585   1.618   1.015  0.0729  0.5219  0.6845
 9274TIP3   OH249312   3.062   1.116  14.741 -0.0296  0.0515  0.1170
 9274TIP3    H149313   3.102   1.038  14.779  0.3243 -0.0063 -0.3679
 9274TIP3    H249314   2.992   1.083  14.684  0.2265  0.0788 -0.2150
 9275TIP3   OH249315   5.390   6.593   1.182 -0.1370  0.3262  0.3996
 9275TIP3    H149316   5.371   6.600   1.088 -1.9237  1.9276  0.8530
 9275TIP3    H249317   5.462   6.654   1.197  0.3492 -0.1494  0.0272
 9276TIP3   OH249318   0.351   1.533   5.886  0.5694 -0.1376  0.1878
 9276TIP3    H149319   0.405   1.455   5.893 -0.5375 -0.9042  0.3430
 9276TIP3    H249320   0.396   1.598   5.939  2.1658 -0.2772 -0.9639
 9277TIP3   OH249321   0.247   3.406  12.234  0.1646  0.1677 -0.9017
 9277TIP3    H149322   0.337   3.396  12.263  0.1956  0.6119 -0.8452
 9277TIP3    H249323   0.228   3.499  12.244 -0.2883  0.0837 -0.9438
 9278TIP3   OH249324   2.489   3.549   5.576  0.3429 -0.1293 -0.0986
 9278TIP3    H149325   2.437   3.559   5.497  1.4586  0.3277 -0.7835
 9278TIP3    H249326   2.573   3.589   5.555  0.8116 -0.4287  1.1543
 9279TIP3   OH249327   0.009   4.556   4.112  0.3664 -0.7005 -0.1600
 9279TIP3    H149328   0.099   4.588   4.107 -0.0716  0.6410  0.2375
 9279TIP3    H249329   0.010   4.473   4.064  1.2317  0.6158 -2.5109
 9280TIP3   OH249330   3.755   5.168  13.244  0.2626 -0.3306  0.0683
 9280TIP3    H149331   3.805   5.140  13.168  1.5536  0.9239  0.4302
 9280TIP3    H249332   3.820   5.208  13.302 -1.1881  1.7069  0.3682
 9281TIP3   OH249333   6.343   4.299  10.846  0.2245  0.1112 -0.1625
 9281TIP3    H149334   6.398   4.281  10.922  0.1912  1.4349  0.1965
 9281TIP3    H249335   6.327   4.394  10.850 -0.7634 -0.0007 -1.1512
 9282TIP3   OH249336   6.792   2.082  16.758  0.5488  0.6245 -0.3204
 9282TIP3    H149337   6.760   2.002  16.800 -1.3094  1.7767  0.5542
 9282TIP3    H249338   6.812   2.056  16.668 -0.4567 -0.7401 -0.1647
 9283TIP3   OH249339   3.804   4.422  15.435 -0.5390 -0.4806  0.5153
 9283TIP3    H149340   3.850   4.396  15.515 -0.1963  0.4591  0.6265
 9283TIP3    H249341   3.759   4.503  15.458  0.9644  0.7315 -0.7432
 9284TIP3   OH249342   3.309   5.870  13.801  0.1098  0.2218  0.5347
 9284TIP3    H149343   3.296   5.832  13.888 -2.7978 -0.0359  0.0290
 9284TIP3    H249344   3.348   5.799  13.749 -1.5380 -0.8137  0.6756
 9285TIP3   OH249345   2.613   0.546  15.431  0.4339 -0.0194 -0.2149
 9285TIP3    H149346   2.687   0.594  15.395  1.3310  0.5392  2.2861
 9285TIP3    H249347   2.646   0.509  15.512 -1.3079 -1.8976 -0.3344
 9286TIP3   OH249348   5.764   2.705  16.498 -0.1589 -0.2710  0.6350
 9286TIP3    H149349   5.815   2.637  16.454  0.0914  0.8386 -0.8462
 9286TIP3    H249350   5.673   2.681  16.483 -0.0706 -0.2733  0.0826
 9287TIP3   OH249351   3.809   6.219  16.397 -0.0139 -0.0445  0.0295
 9287TIP3    H149352   3.894   6.176  16.394  0.8650  1.7032 -0.3736
 9287TIP3    H249353   3.778   6.218  16.307 -0.3140 -0.4470  0.1339
 9288TIP3   OH249354   4.625   3.881  11.428 -0.2969 -0.1621  0.7202
 9288TIP3    H149355   4.629   3.858  11.335 -0.1001  1.7693  0.2271
 9288TIP3    H249356   4.710   3.919  11.447 -0.8648  0.8313  1.3081
 9289TIP3   OH249357   6.292   4.182  13.465  0.2111 -0.2510  0.0678
 9289TIP3    H149358   6.356   4.245  13.499  0.8287 -0.1303 -1.3021
 9289TIP3    H249359   6.302   4.105  13.521  0.4524  0.3463  0.8498
 9290TIP3   OH249360   1.355   2.163  14.575  0.8593 -0.2834  0.1206
 9290TIP3    H149361   1.352   2.073  14.543  0.2183  0.3087 -1.5472
 9290TIP3    H249362   1.263   2.189  14.581  1.0401  0.2490  0.6703
 9291TIP3   OH249363   2.788   3.300  12.366  0.3047  0.2746 -0.0531
 9291TIP3    H149364   2.852   3.233  12.388  1.2438  1.6875  1.6292
 9291TIP3    H249365   2.840   3.373  12.332 -0.4176  1.3438  1.0910
 9292TIP3   OH249366   3.322   5.588  11.055  0.4079 -0.2756  0.3968
 9292TIP3    H149367   3.351   5.528  10.987  1.6172  0.1434  0.5201
 9292TIP3    H249368   3.401   5.636  11.080 -0.3273  0.6521  1.0108
 9293TIP3   OH249369   1.025   0.022   4.916  0.2871  0.2893 -0.0057
 9293TIP3    H149370   0.965  -0.043   4.879 -0.6002  1.1750 -0.1320
 9293TIP3    H249371   0.970   0.098   4.933  1.6589  1.6605 -1.5438
 9294TIP3   OH249372   3.048   4.806   5.702 -0.3311 -0.4310  1.2775
 9294TIP3    H149373   2.955   4.782   5.711 -0.7417  1.2120  1.6834
 9294TIP3    H249374   3.065   4.862   5.777  0.5947  0.4510  0.4187
 9295TIP3   OH249375   5.332   1.976   4.740 -0.2733  0.5442  0.1098
 9295TIP3    H149376   5.275   1.917   4.789  1.1426 -0.6666  0.3514
 9295TIP3    H249377   5.342   2.053   4.797  0.9737 -0.6485  1.5650
 9296TIP3   OH249378   1.965   3.251  10.100  0.3874 -0.0419 -0.4787
 9296TIP3    H149379   2.034   3.244  10.166  0.9107  0.3078 -0.9738
 9296TIP3    H249380   1.904   3.316  10.135 -0.6920 -1.6987  0.8210
 9297TIP3   OH249381   6.341   4.800   4.410 -0.4328 -0.6823  0.3875
 9297TIP3    H149382   6.352   4.834   4.498  1.7162 -2.2496  0.7632
 9297TIP3    H249383   6.427   4.765   4.386 -1.7728 -3.1469 -1.0867
 9298TIP3   OH249384   1.362   2.754   4.512  0.6168  0.1608 -0.4600
 9298TIP3    H149385   1.338   2.663   4.501  0.6034  0.0343  0.5425
 9298TIP3    H249386   1.284   2.804   4.487  0.2619 -0.1389  0.0660
 9299TIP3   OH249387   0.214   3.113   1.627  0.5203 -0.2800 -0.2938
 9299TIP3    H149388   0.281   3.057   1.668  1.5706  0.9176 -0.3328
 9299TIP3    H249389   0.170   3.056   1.564 -0.8259 -2.0511  2.1636
 9300TIP3   OH249390   5.727   2.016   6.959  0.0398 -0.1196  0.3214
 9300TIP3    H149391   5.730   1.930   7.001 -1.5777 -0.3769 -0.0242
 9300TIP3    H249392   5.668   2.003   6.885  1.1058  0.8859 -0.7152
 9301TIP3   OH249393   3.227   1.805   4.933 -0.7469  0.7717 -0.0877
 9301TIP3    H149394   3.205   1.837   5.021  1.8073 -0.0181  0.8828
 9301TIP3    H249395   3.260   1.882   4.888  0.6003  0.5953  0.5816
 9302TIP3   OH249396   1.039   1.542  11.154  0.1988  0.2373 -0.0538
 9302TIP3    H149397   0.970   1.502  11.101  0.5938 -0.7206  0.1468
 9302TIP3    H249398   0.993   1.595  11.218 -0.3247  0.3582 -0.5277
 9303TIP3   OH249399   2.123   4.022   1.420 -0.3503 -0.4426  0.1231
 9303TIP3    H149400   2.135   4.102   1.369  0.2642 -1.0360 -0.6797
 9303TIP3    H249401   2.032   4.025   1.449 -1.1772 -0.8476 -2.3174
 9304TIP3   OH249402   1.384   1.184  15.567 -0.6111  0.5168 -0.5852
 9304TIP3    H149403   1.445   1.238  15.519  0.3547 -0.8790 -0.9647
 9304TIP3    H249404   1.406   1.198  15.659 -0.8992  1.3752 -0.6458
 9305TIP3   OH249405   2.241   4.656   3.205 -0.7143 -0.4815  0.0051
 9305TIP3    H149406   2.274   4.745   3.210 -0.5360 -0.4677 -1.3468
 9305TIP3    H249407   2.319   4.601   3.208 -0.7129 -0.5301 -0.8942
 9306TIP3   OH249408   6.363   4.798  14.341  0.8181 -0.1275  0.1321
 9306TIP3    H149409   6.377   4.799  14.246 -1.5923 -0.6701 -0.2420
 9306TIP3    H249410   6.428   4.736  14.373  1.3823 -0.2534 -1.2066
 9307TIP3   OH249411   0.546   2.802  15.291  0.4027 -0.0670 -0.5815
 9307TIP3    H149412   0.514   2.720  15.253  1.5590 -0.7137 -0.1807
 9307TIP3    H249413   0.545   2.786  15.386 -0.7635  0.9015 -0.4216
 9308TIP3   OH249414   3.426   4.427   4.866  0.2881 -0.1199  0.5931
 9308TIP3    H149415   3.461   4.516   4.859  3.6287 -1.4647 -0.9399
 9308TIP3    H249416   3.396   4.406   4.778  0.9904 -1.0816  0.5791
 9309TIP3   OH249417   4.210   6.422  16.319 -0.4065  0.7667 -0.0474
 9309TIP3    H149418   4.265   6.344  16.313 -1.5480 -0.0385 -0.2400
 9309TIP3    H249419   4.172   6.431  16.232  2.3377  3.5398 -1.0346
 9310TIP3   OH249420   0.876   2.050   5.189 -0.0760  0.9267 -0.2528
 9310TIP3    H149421   0.958   2.100   5.178  0.2754  0.5922  0.8366
 9310TIP3    H249422   0.900   1.960   5.168 -0.5026  1.0602 -1.3313
 9311TIP3   OH249423   3.025   3.091  13.913  0.0929 -0.2113 -0.2689
 9311TIP3    H149424   2.937   3.124  13.893 -0.2317 -1.1213 -0.3684
 9311TIP3    H249425   3.010   3.003  13.948  0.7341  0.7938  2.6971
 9312TIP3   OH249426   1.616   4.585   4.470 -0.9576  0.0993 -0.3105
 9312TIP3    H149427   1.649   4.536   4.546 -1.7080 -0.2587 -0.2167
 9312TIP3    H249428   1.690   4.588   4.410 -0.4316  0.1727  0.3360
 9313TIP3   OH249429   5.189   3.777  13.971  0.0358 -0.0317  0.3734
 9313TIP3    H149430   5.198   3.855  13.915  1.5431 -0.3555  0.1565
 9313TIP3    H249431   5.256   3.788  14.039  0.1321 -1.0569  0.4507
 9314TIP3   OH249432   6.265   2.328   0.783  0.6235 -0.2880  0.2826
 9314TIP3    H149433   6.187   2.288   0.820  0.8761 -0.8771  0.1752
 9314TIP3    H249434   6.288   2.272   0.709 -0.3148  1.2687 -1.2664
 9315TIP3   OH249435   3.804   4.927  11.945  0.8521  0.0994  0.1435
 9315TIP3    H149436   3.799   4.854  12.007  1.2323  0.6719  0.8646
 9315TIP3    H249437   3.731   4.913  11.885  1.0029 -0.9459  0.1904
 9316TIP3   OH249438   5.449   3.311  10.970 -0.0131 -0.1258  0.0106
 9316TIP3    H149439   5.517   3.266  10.920  1.1822  1.9072 -0.2470
 9316TIP3    H249440   5.396   3.355  10.904  1.0483  1.8557  0.4381
 9317TIP3   OH249441   5.402   4.928   0.821  0.3013  0.0567 -0.1451
 9317TIP3    H149442   5.311   4.957   0.818 -0.1445 -1.1119  1.3976
 9317TIP3    H249443   5.453   5.009   0.826 -0.7642  0.6748  1.0569
 9318TIP3   OH249444   6.502   2.473  14.661 -0.2698 -0.6609  0.1961
 9318TIP3    H149445   6.598   2.472  14.661 -0.2002  2.7107  0.5585
 9318TIP3    H249446   6.478   2.413  14.731  1.5798 -1.0924  0.4882
 9319TIP3   OH249447   0.986   3.359  15.702 -0.2705  0.1144 -0.3160
 9319TIP3    H149448   1.052   3.308  15.655 -0.3867 -1.9195  1.6497
 9319TIP3    H249449   1.026   3.380  15.786 -1.8121 -0.4987  0.6025
 9320TIP3   OH249450   2.107   0.708  17.235 -0.0583 -0.1617 -0.3164
 9320TIP3    H149451   2.122   0.614  17.224  0.6958 -0.4683  2.7640
 9320TIP3    H249452   2.165   0.749  17.170  0.8692 -1.7885 -0.5490
 9321TIP3   OH249453   3.739   5.073  14.280  0.0425 -0.4116 -0.0466
 9321TIP3    H149454   3.709   5.045  14.366 -0.1357  0.6871  0.2564
 9321TIP3    H249455   3.834   5.061  14.282  0.1663  0.6339  0.6940
 9322TIP3   OH249456   0.850   3.781  12.138  0.0589  0.8362 -0.4517
 9322TIP3    H149457   0.815   3.727  12.210  0.7968  0.6141 -0.2602
 9322TIP3    H249458   0.898   3.850  12.181  2.6307 -0.7086 -0.7508
 9323TIP3   OH249459   4.321   0.387  12.051  0.0852  0.1155  0.3854
 9323TIP3    H149460   4.391   0.401  12.114  1.9837 -0.0249 -1.6337
 9323TIP3    H249461   4.317   0.292  12.041 -2.1503 -0.0565  2.3536
 9324TIP3   OH249462   4.776   5.958  16.187  0.3631 -0.1273  0.4479
 9324TIP3    H149463   4.853   5.979  16.135  1.0454 -1.4333  0.9045
 9324TIP3    H249464   4.733   6.042  16.201  0.4880  0.3205 -1.7049
 9325TIP3   OH249465   4.251   4.292  12.419  0.2099  0.0323 -0.4396
 9325TIP3    H149466   4.273   4.330  12.334  0.0124  0.3795 -0.3349
 9325TIP3    H249467   4.269   4.199  12.408  1.3720  0.2460 -0.4808
 9326TIP3   OH249468   0.362   5.281  17.191  0.4212 -0.3335  0.0250
 9326TIP3    H149469   0.325   5.266  17.278  1.3496  0.4330  0.5707
 9326TIP3    H249470   0.288   5.313  17.139  0.1540  0.5233  0.9082
 9327TIP3   OH249471   2.262   5.175   0.327 -0.9381  0.4065  0.0368
 9327TIP3    H149472   2.219   5.093   0.304 -0.1646  0.0546 -0.1632
 9327TIP3    H249473   2.305   5.158   0.410 -0.9606  0.6758  0.1048
 9328TIP3   OH249474   5.304   0.189  11.255 -0.5114  0.4610  0.1918
 9328TIP3    H149475   5.366   0.146  11.315 -0.2969  1.0067  0.3616
 9328TIP3    H249476   5.276   0.119  11.196  0.0887  0.1550  0.2614
 9329TIP3   OH249477   3.009   6.795  12.697  0.1498 -0.7357 -0.0147
 9329TIP3    H149478   2.943   6.844  12.649 -0.8064  0.1697  2.1203
 9329TIP3    H249479   2.980   6.704  12.693 -0.6566 -0.4799  0.0094
 9330TIP3   OH249480   1.205   2.570   2.715  0.2614  0.7031 -0.4423
 9330TIP3    H149481   1.223   2.476   2.712  2.6199  1.1025  0.8525
 9330TIP3    H249482   1.132   2.582   2.653 -1.5575 -2.2780  1.0480
 9331TIP3   OH249483   4.310   3.718  11.759  0.2367 -0.1218  0.0070
 9331TIP3    H149484   4.374   3.649  11.741  1.4082  0.8133  0.5590
 9331TIP3    H249485   4.331   3.788  11.697  0.1359  0.4353  0.5952
 9332TIP3   OH249486   2.056   6.189   4.962  0.7818  0.1464 -0.9182
 9332TIP3    H149487   2.017   6.253   4.902  0.1344  0.4200 -0.1996
 9332TIP3    H249488   1.984   6.132   4.987  1.1147 -0.1458 -0.6181
 9333TIP3   OH249489   2.813   3.525  10.605 -0.2888  0.5242 -0.2125
 9333TIP3    H149490   2.801   3.581  10.682 -1.6680  2.3223 -1.6998
 9333TIP3    H249491   2.907   3.509  10.603 -0.2451  0.3047  1.9444
 9334TIP3   OH249492   3.638   1.207  10.591  0.2679  0.0168 -0.2469
 9334TIP3    H149493   3.580   1.131  10.595 -0.3063  0.4785  0.5509
 9334TIP3    H249494   3.712   1.185  10.647  0.1196  0.0290 -0.0455
 9335TIP3   OH249495   5.150   5.605   1.581  0.1718 -0.8040 -0.0791
 9335TIP3    H149496   5.059   5.631   1.591  0.5400  1.1515 -1.5470
 9335TIP3    H249497   5.197   5.653   1.650  0.0243 -2.3649  1.1435
 9336TIP3   OH249498   3.317   2.062   5.917  0.3618  0.0857  0.5376
 9336TIP3    H149499   3.362   2.120   5.856  1.6197 -1.0491  0.3426
 9336TIP3    H249500   3.337   1.974   5.884 -1.5836 -0.4496  0.7626
 9337TIP3   OH249501   4.546   2.425  15.056  0.3295  0.4697 -0.3672
 9337TIP3    H149502   4.451   2.431  15.066  0.2934 -0.2839 -0.2110
 9337TIP3    H249503   4.559   2.380  14.973  0.5691  1.2574 -0.7685
 9338TIP3   OH249504   2.495   6.718  13.417  0.2763 -0.1868 -0.2891
 9338TIP3    H149505   2.562   6.653  13.394  0.8599  0.6055 -0.8831
 9338TIP3    H249506   2.543   6.800  13.424 -0.7541  0.5613 -1.5909
 9339TIP3   OH249507   2.470   1.489   4.401  0.3940  0.4823 -0.5350
 9339TIP3    H149508   2.427   1.538   4.331  0.0978  0.5748 -0.2907
 9339TIP3    H249509   2.441   1.533   4.482  0.6373  0.3018 -0.3499
 9340TIP3   OH249510   5.169   1.305  12.474 -0.4898  0.1278 -0.2494
 9340TIP3    H149511   5.221   1.377  12.510 -1.1071 -0.1599  1.2849
 9340TIP3    H249512   5.142   1.336  12.388 -1.1076  1.9311  0.5494
 9341TIP3   OH249513   4.836   1.358   5.246 -0.4623  0.8644 -0.3553
 9341TIP3    H149514   4.885   1.359   5.163 -2.2218 -1.9788 -1.5059
 9341TIP3    H249515   4.792   1.443   5.248  0.6956  1.5250 -1.6346
 9342TIP3   OH249516   4.381   6.321   3.991  0.0143  0.5808  0.3817
 9342TIP3    H149517   4.305   6.370   4.022 -0.9395  0.2085 -1.2790
 9342TIP3    H249518   4.435   6.387   3.947  0.3937  0.7537  1.1097
 9343TIP3   OH249519   2.015   0.542  14.031  0.5542 -0.4884 -0.0457
 9343TIP3    H149520   2.011   0.446  14.034  1.8067 -0.5518 -0.0812
 9343TIP3    H249521   2.027   0.562  13.938 -1.5919 -0.1967 -0.2900
 9344TIP3   OH249522   2.296   4.185   4.026 -0.0563  0.0540  0.2046
 9344TIP3    H149523   2.332   4.273   4.037 -2.1406  1.0840 -0.7683
 9344TIP3    H249524   2.248   4.168   4.107  0.9124 -0.4725  0.6699
 9345TIP3   OH249525   3.521   0.468  11.318  0.0877 -0.0697  0.2924
 9345TIP3    H149526   3.578   0.514  11.380 -1.6921  2.1573  0.3378
 9345TIP3    H249527   3.562   0.484  11.233  0.7009 -0.3036  0.5374
 9346TIP3   OH249528   1.929   0.255  15.721 -0.1322  0.0478  0.4130
 9346TIP3    H149529   1.977   0.248  15.638  1.1079  0.3421  1.1035
 9346TIP3    H249530   1.993   0.290  15.783 -1.4750  1.2664  1.1305
 9347TIP3   OH249531   0.038   0.872  14.633 -0.8382 -0.3938  0.3253
 9347TIP3    H149532   0.038   0.791  14.582  0.3005 -0.7240  0.8177
 9347TIP3    H249533   0.115   0.864  14.690  0.8304  2.1844 -1.4470
 9348TIP3   OH249534   0.493   1.305   5.944 -0.0691  0.4858  0.0797
 9348TIP3    H149535   0.557   1.277   6.010  0.0909 -0.2894 -0.3985
 9348TIP3    H249536   0.461   1.224   5.905 -0.5145  0.9180 -0.4740
 9349TIP3   OH249537   4.999   1.053   2.828 -0.4540 -0.3410  0.0640
 9349TIP3    H149538   5.039   0.983   2.777  0.0759 -0.4311  0.5914
 9349TIP3    H249539   5.074   1.103   2.862 -0.8225  0.5498 -0.4076
 9350TIP3   OH249540   1.875   2.950  11.661  0.4812  0.3495 -0.0627
 9350TIP3    H149541   1.889   2.951  11.756 -0.7853 -0.9861  0.1447
 9350TIP3    H249542   1.961   2.930  11.625  1.3719  2.5980  0.6982
 9351TIP3   OH249543   1.266   6.774  12.065  0.2274 -0.2802  0.1741
 9351TIP3    H149544   1.254   6.680  12.059  0.7280 -0.2535 -1.3759
 9351TIP3    H249545   1.315   6.787  12.147  2.0849 -1.5596 -0.6993
 9352TIP3   OH249546   3.692   4.831  11.131  0.2222 -0.2905 -0.6340
 9352TIP3    H149547   3.607   4.839  11.089  0.8341  0.7791 -1.7194
 9352TIP3    H249548   3.677   4.776  11.207 -1.5649  0.3744 -0.4883
 9353TIP3   OH249549   2.456   2.629  10.653  0.1617  0.2231  0.3051
 9353TIP3    H149550   2.436   2.548  10.700 -3.5566  1.4775  1.0251
 9353TIP3    H249551   2.375   2.652  10.608  1.9763  2.1016 -2.1506
 9354TIP3   OH249552   6.495   6.199  14.813  0.8713 -0.3522 -0.0665
 9354TIP3    H149553   6.545   6.182  14.893  1.5040  0.3991 -0.2929
 9354TIP3    H249554   6.476   6.293  14.816 -0.1922 -0.5565 -0.1804
 9355TIP3   OH249555   3.864   4.944   3.465  0.0361  0.1732 -0.6650
 9355TIP3    H149556   3.898   4.868   3.419 -0.5453 -1.1308  1.0067
 9355TIP3    H249557   3.769   4.938   3.456  0.0701  2.6498 -3.5148
 9356TIP3   OH249558   5.840   1.967   0.958  0.2690 -0.2366 -0.2201
 9356TIP3    H149559   5.909   1.913   0.920  0.8880  0.0262  0.5319
 9356TIP3    H249560   5.811   1.917   1.035  1.4213  0.8925  0.9598
 9357TIP3   OH249561   4.496   0.660  16.635  0.0464  0.4417 -0.0143
 9357TIP3    H149562   4.499   0.600  16.709  0.5961 -0.2722 -0.6082
 9357TIP3    H249563   4.415   0.639  16.590 -0.8558  1.6442  1.0107
 9358TIP3   OH249564   4.261   1.186  13.084 -0.5158  0.1364 -0.3964
 9358TIP3    H149565   4.213   1.224  13.158 -2.6399 -1.7165 -0.7422
 9358TIP3    H249566   4.235   1.240  13.009 -4.2262 -2.3242 -1.0517
 9359TIP3   OH249567   1.733   0.600   1.491 -0.3374  0.1851 -0.1625
 9359TIP3    H149568   1.644   0.608   1.525  0.4627 -0.0138  2.0655
 9359TIP3    H249569   1.786   0.575   1.567  1.8651  1.7123 -1.1340
 9360TIP3   OH249570   0.753   6.079   3.227 -0.1229 -0.1948 -0.1257
 9360TIP3    H149571   0.742   5.984   3.224 -1.2275 -0.0691 -0.1336
 9360TIP3    H249572   0.712   6.111   3.147  1.7971  0.1580 -1.0035
 9361TIP3   OH249573   5.758   6.049  11.422  0.0859 -0.4515  0.2143
 9361TIP3    H149574   5.851   6.037  11.438  0.5760  1.0754 -1.3723
 9361TIP3    H249575   5.751   6.135  11.380 -1.9966 -0.6793  0.0167
 9362TIP3   OH249576   4.130   2.468  15.886 -0.1742 -0.6336  0.1085
 9362TIP3    H149577   4.208   2.459  15.832 -0.2593  0.4911 -0.2300
 9362TIP3    H249578   4.096   2.379  15.895  0.6902 -1.0227 -0.4153
 9363TIP3   OH249579   6.662   4.383  14.105 -0.0657 -0.3036  0.2159
 9363TIP3    H149580   6.629   4.468  14.132 -1.1218 -0.8380  0.6403
 9363TIP3    H249581   6.588   4.340  14.063  0.3292 -1.1764  0.3887
 9364TIP3   OH249582   2.032   2.959  16.245 -0.4187 -0.1134 -0.3312
 9364TIP3    H149583   2.087   2.883  16.226 -0.2781 -0.0480 -0.1862
 9364TIP3    H249584   2.019   3.001  16.160 -0.7598 -0.4733 -0.4623
 9365TIP3   OH249585   5.324   5.573   0.965  1.0727 -0.1682  0.0929
 9365TIP3    H149586   5.419   5.580   0.977  1.1708  1.6960 -1.3315
 9365TIP3    H249587   5.314   5.523   0.884  0.8827  0.6533 -0.3956
 9366TIP3   OH249588   1.358   4.933  15.489 -0.4503  0.2331  0.6652
 9366TIP3    H149589   1.390   4.920  15.400 -1.3946 -3.0701  0.7094
 9366TIP3    H249590   1.437   4.953  15.540  0.3779  0.2838 -0.6035
 9367TIP3   OH249591   0.581   6.476  16.225 -0.5858 -0.1171 -0.3111
 9367TIP3    H149592   0.528   6.526  16.163 -0.7756  0.1334  0.0500
 9367TIP3    H249593   0.558   6.385  16.209 -0.3390 -0.0805 -0.8811
 9368TIP3   OH249594   2.601   3.741  11.807  0.1453  0.1444 -0.5293
 9368TIP3    H149595   2.565   3.828  11.824 -1.7498 -0.8173  0.5209
 9368TIP3    H249596   2.553   3.709  11.731  0.1761 -0.3394 -0.3519
 9369TIP3   OH249597   2.742   5.263   4.636 -0.1964  0.0122 -0.1675
 9369TIP3    H149598   2.815   5.235   4.581 -0.6187 -1.2526 -0.1130
 9369TIP3    H249599   2.710   5.344   4.596  1.4163  0.7357 -0.0119
 9370TIP3   OH249600   2.854   6.076  12.901  1.0578  0.2075  0.1846
 9370TIP3    H149601   2.817   6.159  12.932 -0.5785 -0.0023 -1.1482
 9370TIP3    H249602   2.879   6.031  12.981 -2.6576 -0.1080  1.2652
 9371TIP3   OH249603   6.020   6.780   3.579  0.4758 -0.1163 -0.5224
 9371TIP3    H149604   5.931   6.775   3.615  0.4656  2.0508 -0.1549
 9371TIP3    H249605   6.024   6.709   3.516 -1.0593 -1.1088  0.4506
 9372TIP3   OH249606   3.429   5.890  11.970 -0.2850 -0.0850 -0.1411
 9372TIP3    H149607   3.483   5.820  12.007 -0.9251 -0.0866  0.8115
 9372TIP3    H249608   3.483   5.927  11.900  0.8603 -0.2513  0.6297
 9373TIP3   OH249609   3.837   2.463   5.822 -0.6224 -0.4893  0.0774
 9373TIP3    H149610   3.841   2.475   5.727  3.0075 -1.1006  0.0627
 9373TIP3    H249611   3.757   2.414   5.837 -1.0238 -0.7761 -2.7380
 9374TIP3   OH249612   0.619   6.207   1.674 -0.7309 -0.5080  0.7517
 9374TIP3    H149613   0.688   6.235   1.734 -0.2515 -0.1593  0.0348
 9374TIP3    H249614   0.566   6.286   1.660  1.2658  0.3649 -2.1527
 9375TIP3   OH249615   0.324   0.167  12.362  0.0856  0.2034  0.3348
 9375TIP3    H149616   0.324   0.231  12.291 -0.5165  1.0088  1.0337
 9375TIP3    H249617   0.340   0.220  12.441 -0.8909 -0.4330  0.9747
 9376TIP3   OH249618   0.639   5.961  16.127 -0.3790  0.1368  0.2819
 9376TIP3    H149619   0.560   5.973  16.179 -0.2788  0.1259  0.4338
 9376TIP3    H249620   0.630   5.873  16.089 -0.7481  0.3850 -0.2200
 9377TIP3   OH249621   6.712   4.571  13.580 -0.0217 -0.6635  0.0488
 9377TIP3    H149622   6.620   4.544  13.585  0.3226 -1.5209  2.0853
 9377TIP3    H249623   6.709   4.667  13.580 -0.9022 -0.6826  0.6528
 9378TIP3   OH249624   5.836   5.843  15.702  0.0100  0.2507  0.0229
 9378TIP3    H149625   5.815   5.750  15.711  0.9638  0.1287  1.1017
 9378TIP3    H249626   5.856   5.854  15.609 -0.1712 -0.6162 -0.1238
 9379TIP3   OH249627   0.250   3.334   5.080 -0.5210  0.1708  0.0054
 9379TIP3    H149628   0.176   3.274   5.091  0.0118 -0.5875 -0.4683
 9379TIP3    H249629   0.237   3.401   5.148 -1.9917  0.4239 -0.5061
 9380TIP3   OH249630   1.053   0.982   0.834 -0.2725  0.3876  0.1423
 9380TIP3    H149631   0.959   0.992   0.823 -0.1337  1.4454 -0.1809
 9380TIP3    H249632   1.068   0.999   0.927 -0.3324  0.8367  0.0721
 9381TIP3   OH249633   5.958   0.958   1.269 -0.5532 -0.1797 -0.1987
 9381TIP3    H149634   5.883   1.009   1.297 -0.8315 -0.4121 -0.5138
 9381TIP3    H249635   5.983   0.996   1.184  0.3617  0.6041  0.4123
 9382TIP3   OH249636   3.576   6.738   4.927 -0.0388 -0.1434  0.6984
 9382TIP3    H149637   3.627   6.667   4.967  1.3786 -0.8148 -2.1630
 9382TIP3    H249638   3.505   6.694   4.881 -0.3061  0.4410  0.5433
 9383TIP3   OH249639   4.288   4.773  11.557 -0.1746  0.2403  0.7158
 9383TIP3    H149640   4.276   4.693  11.608  0.4764  0.1991  0.8112
 9383TIP3    H249641   4.365   4.755  11.503 -0.6013  0.4449  0.0433
 9384TIP3   OH249642   0.162   5.012  17.043  0.0935  0.0922  0.1438
 9384TIP3    H149643   0.223   4.980  16.976  1.5143  2.5493  0.2312
 9384TIP3    H249644   0.198   4.980  17.125  0.8565  0.9406  0.1343
 9385TIP3   OH249645   4.865   3.446   2.929 -0.1580  0.1932 -0.1974
 9385TIP3    H149646   4.885   3.540   2.930 -1.4062  0.4867 -1.2324
 9385TIP3    H249647   4.917   3.410   3.001 -0.5708  1.8725  0.9881
 9386TIP3   OH249648   3.576   1.860  12.344 -0.3399 -0.0446 -0.2143
 9386TIP3    H149649   3.541   1.939  12.384 -0.0452  0.0829 -0.2039
 9386TIP3    H249650   3.529   1.788  12.386 -0.1885  0.0986  0.1941
 9387TIP3   OH249651   2.859   3.100   4.691 -0.0998 -0.5877 -0.0371
 9387TIP3    H149652   2.868   3.185   4.648 -0.2421  0.4917  2.0142
 9387TIP3    H249653   2.766   3.079   4.683 -0.0845 -0.4997 -0.4516
 9388TIP3   OH249654   5.957   1.031  16.932 -0.3550  0.1872 -0.4414
 9388TIP3    H149655   6.033   0.990  16.973 -0.6732 -2.0973 -2.0218
 9388TIP3    H249656   5.992   1.108  16.888  1.0344 -0.7952 -1.0780
 9389TIP3   OH249657   1.494   2.715  13.636  0.4441 -0.1599 -0.0825
 9389TIP3    H149658   1.549   2.734  13.712 -0.4836  2.6822 -0.0555
 9389TIP3    H249659   1.499   2.794  13.582 -0.7997 -1.2293 -1.8200
 9390TIP3   OH249660   6.157   2.040  15.072  0.0446 -0.2320  0.3311
 9390TIP3    H149661   6.217   2.092  15.126  0.2438  0.9141 -0.9815
 9390TIP3    H249662   6.150   1.956  15.119  1.1991  0.2932  1.4753
 9391TIP3   OH249663   5.566   5.325   3.132 -0.2448 -0.3529  0.0789
 9391TIP3    H149664   5.583   5.271   3.055  0.9938  0.3713 -0.1663
 9391TIP3    H249665   5.582   5.267   3.207 -1.8771 -1.1847 -0.1867
 9392TIP3   OH249666   6.438   3.545  10.474 -0.4911 -0.0171 -0.3023
 9392TIP3    H149667   6.440   3.502  10.389 -2.4646 -0.0215 -0.3619
 9392TIP3    H249668   6.371   3.613  10.466 -0.0582  0.5868  0.9573
 9393TIP3   OH249669   0.172   5.791   0.595  0.4551 -0.1011 -0.4711
 9393TIP3    H149670   0.194   5.717   0.652  1.0935 -0.3414 -1.0285
 9393TIP3    H249671   0.196   5.868   0.646 -0.9687 -0.2420  0.4408
 9394TIP3   OH249672   2.378   2.530  15.092 -0.1454 -0.2682  0.0633
 9394TIP3    H149673   2.464   2.513  15.054  0.3341 -2.3892  1.9927
 9394TIP3    H249674   2.352   2.447  15.131 -2.0722  0.9427  1.4575
 9395TIP3   OH249675   2.098   1.120   5.758 -0.8347 -0.7337 -0.1486
 9395TIP3    H149676   2.052   1.204   5.756 -1.3347 -0.9970 -0.0038
 9395TIP3    H249677   2.131   1.113   5.848  0.5881  0.0298 -0.6018
 9396TIP3   OH249678   0.946   5.419   5.291 -0.1238 -0.4324  0.1115
 9396TIP3    H149679   1.036   5.400   5.267  0.5665  0.8455  1.5784
 9396TIP3    H249680   0.953   5.483   5.362 -2.1650 -0.9214  0.7919
 9397TIP3   OH249681   3.643   3.225  15.571 -0.0666  0.2868 -0.1298
 9397TIP3    H149682   3.730   3.241  15.536 -0.0104  0.5955  0.1544
 9397TIP3    H249683   3.655   3.155  15.635 -0.1096 -0.0177 -0.4500
 9398TIP3   OH249684   0.866   2.532  15.138  0.3558 -0.0493 -0.1211
 9398TIP3    H149685   0.927   2.486  15.081  1.0584  0.5712  0.1287
 9398TIP3    H249686   0.800   2.568  15.078  1.4726  1.1976 -0.6186
 9399TIP3   OH249687   5.159   4.640  15.091 -0.2094  0.3247 -0.1925
 9399TIP3    H149688   5.074   4.619  15.130 -0.9051  2.4830 -0.4821
 9399TIP3    H249689   5.205   4.690  15.158 -0.3645  1.7380 -1.1151
 9400TIP3   OH249690   2.568   3.265   0.542  0.3048  0.9715  0.2775
 9400TIP3    H149691   2.499   3.290   0.480  1.1953  1.2832 -0.5917
 9400TIP3    H249692   2.635   3.332   0.532  0.0335  1.6082  2.3257
 9401TIP3   OH249693   5.340   4.870  14.831  0.1129  0.5533 -0.4000
 9401TIP3    H149694   5.250   4.854  14.802 -0.6865  2.3286  1.0303
 9401TIP3    H249695   5.359   4.959  14.802  0.8212  0.7966  0.7878
 9402TIP3   OH249696   1.820   3.677  12.872  0.0863  0.0597 -0.0428
 9402TIP3    H149697   1.785   3.764  12.892  1.2156  1.0180 -2.0383
 9402TIP3    H249698   1.901   3.671  12.923 -1.2927 -0.8917  2.1058
 9403TIP3   OH249699   5.701   0.955  16.016  0.3060  0.4183 -0.7453
 9403TIP3    H149700   5.687   0.861  16.009 -0.9385  0.5985 -0.8192
 9403TIP3    H249701   5.739   0.980  15.932  1.6058 -0.1825 -0.3347
 9404TIP3   OH249702   4.734   4.639   0.190 -0.2660  0.5003 -0.6154
 9404TIP3    H149703   4.812   4.639   0.136 -0.3325  2.9812 -0.7751
 9404TIP3    H249704   4.764   4.616   0.278  0.5709  0.8948 -0.7980
 9405TIP3   OH249705   0.065   0.898   2.721 -0.3677  0.4569  0.2428
 9405TIP3    H149706   0.044   0.939   2.805  0.5783  0.0984  0.6588
 9405TIP3    H249707   0.078   0.806   2.741  1.7341  0.6773  0.0447
 9406TIP3   OH249708   1.720   6.252   6.169 -0.5871 -0.8141 -0.3468
 9406TIP3    H149709   1.634   6.236   6.208  0.1780  0.8248  2.1112
 9406TIP3    H249710   1.774   6.179   6.198 -0.0794  0.2883  1.5703
 9407TIP3   OH249711   6.142   4.319  15.346 -0.1788 -0.0091 -0.4451
 9407TIP3    H149712   6.185   4.311  15.261 -0.5456 -0.2109 -0.6122
 9407TIP3    H249713   6.055   4.352  15.326  0.2318  1.3620 -0.0177
 9408TIP3   OH249714   0.398   4.906  15.704 -0.0859  0.0992  0.5672
 9408TIP3    H149715   0.306   4.915  15.728 -0.5070  0.2232 -1.0156
 9408TIP3    H249716   0.430   4.834  15.758 -1.5263 -0.9960 -0.0133
 9409TIP3   OH249717   6.660   4.064  14.816  0.4486  0.1375 -0.3130
 9409TIP3    H149718   6.577   4.024  14.788  1.6842 -1.7890 -1.3372
 9409TIP3    H249719   6.719   4.052  14.742  1.8962  0.7450  0.7114
 9410TIP3   OH249720   1.850   3.379  10.993  0.4934 -0.0893 -0.2484
 9410TIP3    H149721   1.798   3.307  10.956 -1.1408  1.4177 -0.9018
 9410TIP3    H249722   1.881   3.428  10.916  1.1913  0.2219  0.2247
 9411TIP3   OH249723   4.985   1.046  12.825 -0.1805 -0.4774  0.0796
 9411TIP3    H149724   5.035   1.057  12.744  0.3455  1.8325  0.6855
 9411TIP3    H249725   4.893   1.047  12.797  0.0067  0.0233 -0.5253
 9412TIP3   OH249726   2.757   3.681  11.402 -0.0155 -0.1339  1.0484
 9412TIP3    H149727   2.768   3.715  11.491  2.2790 -0.5426  0.9476
 9412TIP3    H249728   2.809   3.601  11.400 -0.0530 -0.1348 -0.6704
 9413TIP3   OH249729   5.210   1.604  16.993  0.3699 -0.0576 -0.6569
 9413TIP3    H149730   5.247   1.641  17.073  0.2178  1.1666 -1.1378
 9413TIP3    H249731   5.127   1.566  17.020  0.1783  0.6251 -0.2894
 9414TIP3   OH249732   2.071   3.433  10.632  0.0455 -0.4831 -0.3366
 9414TIP3    H149733   1.980   3.436  10.661  0.5006 -1.9132  1.3529
 9414TIP3    H249734   2.098   3.524  10.628 -1.3083 -0.0689 -0.3317
 9415TIP3   OH249735   5.028   1.363  16.361  0.1330 -0.3237 -0.4103
 9415TIP3    H149736   5.075   1.287  16.395 -0.2773 -0.0509  0.7736
 9415TIP3    H249737   5.060   1.436  16.414 -1.6725 -0.1453  0.4634
 9416TIP3   OH249738   0.516   1.665  11.674  0.4390 -0.3271  0.2792
 9416TIP3    H149739   0.451   1.673  11.744  0.5934 -1.6385  0.5738
 9416TIP3    H249740   0.477   1.713  11.601 -0.8741 -1.0831  0.4637
 9417TIP3   OH249741   1.806   5.167  12.147  0.0666 -0.4460  0.3371
 9417TIP3    H149742   1.842   5.124  12.070 -1.0437 -0.0498 -0.4151
 9417TIP3    H249743   1.817   5.261  12.130  0.9178 -0.3819  1.2020
 9418TIP3   OH249744   6.481   4.025  12.825 -0.1914  0.2701  0.5787
 9418TIP3    H149745   6.422   3.964  12.869  1.6029 -0.7962  1.5815
 9418TIP3    H249746   6.534   4.062  12.895  0.7630  0.7272 -0.3612
 9419TIP3   OH249747   5.349   1.159  15.038 -0.5768 -0.1449 -0.2632
 9419TIP3    H149748   5.372   1.167  15.130  0.2276 -1.2694 -0.3463
 9419TIP3    H249749   5.352   1.065  15.021 -1.9128 -0.0380 -1.1400
 9420TIP3   OH249750   5.680   4.428   2.845  0.3518 -0.4569 -0.2681
 9420TIP3    H149751   5.606   4.488   2.837  0.5512 -0.3020 -0.9589
 9420TIP3    H249752   5.641   4.341   2.842  0.2934 -0.3949 -1.7161
 9421TIP3   OH249753   4.731   3.158  14.534 -0.1934 -0.0025 -0.1562
 9421TIP3    H149754   4.714   3.135  14.443  3.0986  0.7396 -1.0452
 9421TIP3    H249755   4.809   3.214  14.530  0.8654 -1.1246  3.2028
 9422TIP3   OH249756   6.415   5.712   5.956  0.6569  0.0106  0.4826
 9422TIP3    H149757   6.508   5.719   5.976  1.2861 -3.6080 -0.9234
 9422TIP3    H249758   6.394   5.620   5.968 -3.1310  0.9856  2.2066
 9423TIP3   OH249759   6.068   4.431   3.793 -0.1443  0.2406 -0.0499
 9423TIP3    H149760   6.063   4.492   3.720 -2.4155  0.1027 -0.0531
 9423TIP3    H249761   6.161   4.427   3.815  0.2718  2.1567 -1.3399
 9424TIP3   OH249762   3.462   4.337  16.129 -0.4973 -0.0825 -0.0642
 9424TIP3    H149763   3.448   4.417  16.179 -0.5525  0.2415 -0.6046
 9424TIP3    H249764   3.487   4.272  16.195  1.3990  0.8437  0.1394
 9425TIP3   OH249765   3.454   3.633   5.787 -0.1551  0.4988 -0.2010
 9425TIP3    H149766   3.525   3.696   5.801 -0.4552  0.3404  2.1207
 9425TIP3    H249767   3.374   3.682   5.804 -0.4296 -0.2729  0.7811
 9426TIP3   OH249768   2.111   0.248   0.276 -0.3212  0.2250  0.4026
 9426TIP3    H149769   2.104   0.186   0.204  0.2187  0.0082  0.5359
 9426TIP3    H249770   2.056   0.322   0.250  0.3073  0.3881 -0.4679
 9427TIP3   OH249771   2.481   5.453   4.888  0.1003  0.5807 -0.1421
 9427TIP3    H149772   2.448   5.387   4.949  1.9860  0.1734  0.4657
 9427TIP3    H249773   2.422   5.448   4.813 -1.5780  0.3031  1.1683
 9428TIP3   OH249774   4.587   6.025   3.301  0.1830 -0.7864  0.1122
 9428TIP3    H149775   4.521   6.083   3.339  0.5254 -1.2469  1.4485
 9428TIP3    H249776   4.670   6.055   3.340  0.8612  0.1816 -2.0050
 9429TIP3   OH249777   5.645   3.458  14.732  0.4915  0.4307  0.3629
 9429TIP3    H149778   5.629   3.544  14.694  0.6410 -0.3331 -1.4854
 9429TIP3    H249779   5.740   3.453  14.742  0.5786  0.0379 -0.6227
 9430TIP3   OH249780   4.457   3.167   2.161  0.2126  0.0139  0.4761
 9430TIP3    H149781   4.491   3.182   2.073  0.0158  0.2571  0.4421
 9430TIP3    H249782   4.502   3.087   2.190  0.5327  0.1239  0.2902
 9431TIP3   OH249783   3.330   1.598   1.747  0.0541  0.4399  0.1747
 9431TIP3    H149784   3.315   1.543   1.823 -2.2535 -0.7316 -1.0790
 9431TIP3    H249785   3.389   1.666   1.778 -1.5534  0.5111  3.2582
 9432TIP3   OH249786   0.070   0.386  13.122  0.1625  0.3747 -0.6497
 9432TIP3    H149787   0.059   0.438  13.043 -0.2879 -1.5344 -1.8678
 9432TIP3    H249788   0.139   0.323  13.101 -1.6865 -1.8206 -0.4734
 9433TIP3   OH249789   5.368   5.630   3.882 -0.1006 -0.3155 -0.3384
 9433TIP3    H149790   5.376   5.718   3.844  0.0506  1.4483  3.4851
 9433TIP3    H249791   5.451   5.588   3.864  0.9045  1.3897  0.1428
 9434TIP3   OH249792   6.742   3.301  13.022 -0.2459 -0.2010  0.2239
 9434TIP3    H149793   6.828   3.309  13.063  0.3070  1.3963 -1.1603
 9434TIP3    H249794   6.742   3.214  12.983  0.2344 -0.7052  1.3441
 9435TIP3   OH249795   2.130   6.553  17.145  0.9404 -0.1510  0.0839
 9435TIP3    H149796   2.209   6.521  17.189  0.3604 -3.3261 -1.0194
 9435TIP3    H249797   2.061   6.492  17.172 -0.1800 -0.0092 -2.3141
 9436TIP3   OH249798   1.227   3.210  15.599  0.4643  0.4995 -0.0953
 9436TIP3    H149799   1.225   3.169  15.686 -1.4375  2.3036  0.7793
 9436TIP3    H249800   1.319   3.225  15.581  0.9705 -1.2243  0.9788
 9437TIP3   OH249801   5.823   3.344  15.327 -0.0146 -0.4654  0.2338
 9437TIP3    H149802   5.863   3.334  15.413 -1.6937 -1.6080  0.9271
 9437TIP3    H249803   5.888   3.390  15.274  1.1028  0.0807  2.0637
 9438TIP3   OH249804   2.387   1.938  13.913  0.4118 -0.2101 -0.5239
 9438TIP3    H149805   2.321   1.937  13.844  1.7072 -1.0097 -1.7861
 9438TIP3    H249806   2.382   1.851  13.952 -0.6770  0.4176  0.7479
 9439TIP3   OH249807   0.667   1.991  13.423 -0.1189  0.1782 -0.4775
 9439TIP3    H149808   0.606   1.920  13.441 -0.7707  1.0765  0.9734
 9439TIP3    H249809   0.731   1.986  13.494  0.4394  0.3861 -0.9638
 9440TIP3   OH249810   1.220   5.078   3.866  0.1508 -0.5465 -0.4748
 9440TIP3    H149811   1.304   5.103   3.905  0.2126  1.0673 -1.6325
 9440TIP3    H249812   1.225   4.982   3.859  1.2160 -0.6175  0.9765
 9441TIP3   OH249813   3.326   5.036  15.362  0.4208  0.3028  0.6967
 9441TIP3    H149814   3.398   5.032  15.299 -2.2016 -1.9017 -2.2630
 9441TIP3    H249815   3.315   4.946  15.392 -0.6596  0.7437  1.6635
 9442TIP3   OH249816   1.573   4.978  12.023  0.0624  0.2736  0.8066
 9442TIP3    H149817   1.635   4.966  12.095  0.7984 -0.7292  0.0235
 9442TIP3    H249818   1.602   5.058  11.979  1.2147 -0.5454  0.0487
 9443TIP3   OH249819   3.551   4.469  12.696 -0.2717 -0.1227 -0.5731
 9443TIP3    H149820   3.581   4.543  12.643 -0.4588 -0.8087 -1.6439
 9443TIP3    H249821   3.591   4.392  12.655 -0.9903 -0.7354 -0.1376
 9444TIP3   OH249822   1.751   0.852   6.428  0.0407 -0.2092  0.3506
 9444TIP3    H149823   1.798   0.785   6.478 -2.5569 -1.8067  0.7324
 9444TIP3    H249824   1.758   0.931   6.481  1.0484 -0.7637  1.0725
 9445TIP3   OH249825   4.492   5.056   4.374  0.5455 -0.8364 -0.2721
 9445TIP3    H149826   4.463   5.011   4.453  1.5446 -0.7736  0.1429
 9445TIP3    H249827   4.452   5.143   4.379  0.2015 -1.0073 -0.0884
 9446TIP3   OH249828   2.315   5.830   0.226 -0.1466  0.4542  0.4768
 9446TIP3    H149829   2.287   5.739   0.235 -3.0568  1.2508  0.1193
 9446TIP3    H249830   2.328   5.842   0.132 -0.9040  0.7176  0.4045
 9447TIP3   OH249831   4.842   1.752  17.283 -0.3565  0.4115 -0.3503
 9447TIP3    H149832   4.914   1.699  17.316 -2.3063 -1.5507  0.9194
 9447TIP3    H249833   4.839   1.828  17.342  0.3540  0.2518 -0.1100
 9448TIP3   OH249834   5.757   5.642  14.667 -0.4779 -0.6672  0.4046
 9448TIP3    H149835   5.738   5.632  14.573  1.0968  1.4224 -0.1858
 9448TIP3    H249836   5.777   5.735  14.677 -1.7971 -0.6312  3.0633
 9449TIP3   OH249837   4.512   2.275   4.817  0.5992  0.4414 -0.3146
 9449TIP3    H149838   4.594   2.323   4.803  0.4852  0.9359  0.6600
 9449TIP3    H249839   4.502   2.221   4.739  0.1274  2.8995 -2.0004
 9450TIP3   OH249840   0.192   1.191  14.585  0.4030  0.4232  0.3232
 9450TIP3    H149841   0.256   1.217  14.519 -1.1991 -0.6866 -1.7619
 9450TIP3    H249842   0.119   1.251  14.573 -0.5094 -0.7074  0.0411
 9451TIP3   OH249843   6.547   3.728  14.171 -0.0804 -0.3072  0.0597
 9451TIP3    H149844   6.601   3.652  14.153  1.1021  0.7520 -0.9265
 9451TIP3    H249845   6.555   3.742  14.265 -0.0264 -1.1829  0.1851
 9452TIP3   OH249846   1.261   5.629  10.482 -0.0567 -0.1045 -0.1324
 9452TIP3    H149847   1.310   5.590  10.555  0.1891  0.5959  0.0832
 9452TIP3    H249848   1.291   5.720  10.480  0.3706 -0.2690 -1.4738
 9453TIP3   OH249849   6.742   1.066   0.396 -0.6609  0.3179 -0.4428
 9453TIP3    H149850   6.693   0.998   0.441 -0.9448  1.4735  1.0188
 9453TIP3    H249851   6.832   1.055   0.426 -0.5462  0.0532 -0.8734
 9454TIP3   OH249852   4.287   3.954  11.135  0.2697 -0.2457  0.0188
 9454TIP3    H149853   4.275   3.861  11.115 -1.7164  0.3928 -1.9656
 9454TIP3    H249854   4.320   3.992  11.053  2.3440  0.5940  1.2084
 9455TIP3   OH249855   1.731   1.420  14.905 -0.6553 -0.3356  0.2327
 9455TIP3    H149856   1.755   1.357  14.837 -1.6644 -1.3611  0.7913
 9455TIP3    H249857   1.646   1.453  14.878 -0.8517 -0.4061  0.7596
 9456TIP3   OH249858   2.161   0.007  14.056  0.6538  0.4885 -0.2851
 9456TIP3    H149859   2.228  -0.055  14.027 -2.3118 -4.0258  2.1199
 9456TIP3    H249860   2.186   0.030  14.145 -0.4082 -0.3056  0.2122
 9457TIP3   OH249861   1.344   2.285   2.733  0.3074  0.1401  0.0399
 9457TIP3    H149862   1.377   2.265   2.646 -0.5018  2.2179 -0.8003
 9457TIP3    H249863   1.286   2.212   2.754 -0.7703  0.3934 -1.8932
 9458TIP3   OH249864   2.818   0.859   5.708 -0.3113 -0.0718 -0.1453
 9458TIP3    H149865   2.865   0.819   5.635 -0.2205  1.1171 -0.7573
 9458TIP3    H249866   2.754   0.916   5.665 -0.9282 -0.1269  0.7026
 9459TIP3   OH249867   1.160   0.947   1.114  0.3259  0.7890 -1.1514
 9459TIP3    H149868   1.254   0.954   1.100  0.6249 -0.5129  0.0958
 9459TIP3    H249869   1.144   0.994   1.196  0.0122  0.3588 -0.9634
 9460TIP3   OH249870   6.012   4.546   3.564  0.6463 -0.1603  0.4300
 9460TIP3    H149871   5.997   4.640   3.571 -1.9515 -0.5481  0.2468
 9460TIP3    H249872   5.983   4.523   3.475  2.5254 -0.9240 -0.0217
 9461TIP3   OH249873   6.301   2.264   0.291 -0.4230 -0.7817 -0.8536
 9461TIP3    H149874   6.381   2.246   0.341  0.3984  1.6445 -1.2528
 9461TIP3    H249875   6.234   2.283   0.357 -0.3618 -1.5646 -0.5613
 9462TIP3   OH249876   1.992   6.163  10.563 -0.3392 -0.4265 -0.0768
 9462TIP3    H149877   1.913   6.117  10.534  0.1336  0.2032 -2.4317
 9462TIP3    H249878   2.061   6.097  10.557 -0.1456 -0.1509 -0.9039
 9463TIP3   OH249879   6.500   3.797  11.824  0.3677 -0.8949 -0.2813
 9463TIP3    H149880   6.551   3.778  11.745 -1.9568 -1.6043 -1.6340
 9463TIP3    H249881   6.465   3.884  11.809  1.0880 -0.4432  0.6189
 9464TIP3   OH249882   0.643   0.394   3.256 -0.2986 -0.3426  0.0823
 9464TIP3    H149883   0.579   0.445   3.206 -0.3519  0.4031  0.8922
 9464TIP3    H249884   0.675   0.328   3.195 -1.3351 -0.2780 -0.5340
 9465TIP3   OH249885   3.293   3.377  11.842 -0.0728 -0.2062  0.4676
 9465TIP3    H149886   3.339   3.316  11.785 -0.2378  1.2069 -1.2357
 9465TIP3    H249887   3.360   3.442  11.866 -0.3925  0.0805  0.5853
 9466TIP3   OH249888   2.958   5.220   3.775 -0.1620  0.0075 -0.4764
 9466TIP3    H149889   2.928   5.291   3.719 -0.5298  0.5475  0.4068
 9466TIP3    H249890   2.879   5.176   3.804  0.0650 -0.8276 -1.0833
 9467TIP3   OH249891   4.235   6.786   0.704  0.1228 -0.0511 -0.5147
 9467TIP3    H149892   4.163   6.731   0.673  0.6065  0.8362 -3.3899
 9467TIP3    H249893   4.196   6.872   0.718  0.0187 -0.3204  0.9075
 9468TIP3   OH249894   1.140   5.783   1.009 -0.5529  0.0278  0.4024
 9468TIP3    H149895   1.115   5.865   0.967 -1.0878 -0.3876 -0.1100
 9468TIP3    H249896   1.236   5.786   1.012 -0.4486 -0.2741 -1.6070
 9469TIP3   OH249897   3.737   1.922  17.072 -0.6100  0.0367  0.0147
 9469TIP3    H149898   3.750   1.934  17.166 -1.0718 -0.8362  0.1912
 9469TIP3    H249899   3.671   1.853  17.065 -0.7756  0.2804 -0.9454
 9470TIP3   OH249900   2.991   2.767   2.064 -0.0916 -0.2866 -0.7161
 9470TIP3    H149901   2.984   2.766   1.968  0.5610  0.0265 -0.7711
 9470TIP3    H249902   2.949   2.686   2.092  1.5310 -1.4024 -1.4182
 9471TIP3   OH249903   2.964   4.636  11.492 -0.2886  0.5768 -0.1984
 9471TIP3    H149904   2.906   4.571  11.531 -1.9846  0.1176 -3.2967
 9471TIP3    H249905   2.977   4.605  11.402  2.6509  2.0821 -0.3694
 9472TIP3   OH249906   5.096   0.378  16.767 -0.0378 -0.7286  0.4321
 9472TIP3    H149907   5.088   0.284  16.753 -4.4234 -0.3811 -0.0305
 9472TIP3    H249908   5.140   0.410  16.689  2.1436 -2.4371  0.9081
 9473TIP3   OH249909   2.054   2.906  12.271 -0.1255  0.4362  0.5178
 9473TIP3    H149910   2.057   2.957  12.352  1.8795  0.3103  0.5615
 9473TIP3    H249911   2.143   2.870  12.263 -0.6778 -0.6087 -1.0587
 9474TIP3   OH249912   6.053   1.534   4.412 -0.7571  0.5215 -0.6884
 9474TIP3    H149913   6.053   1.455   4.358  0.8065  1.2896 -1.8703
 9474TIP3    H249914   5.963   1.566   4.408 -0.9411 -0.0962 -1.8794
 9475TIP3   OH249915   6.501   6.508  13.143  0.0906 -0.3888  0.2718
 9475TIP3    H149916   6.419   6.539  13.105  0.8249 -0.8748 -1.7277
 9475TIP3    H249917   6.480   6.495  13.236 -1.5589  1.3063  0.1596
 9476TIP3   OH249918   3.568   5.901   1.201 -0.6303  0.0458  0.7622
 9476TIP3    H149919   3.525   5.816   1.214 -1.5774  0.5923  1.3015
 9476TIP3    H249920   3.501   5.965   1.225 -0.1465  0.9645 -0.2967
 9477TIP3   OH249921   3.761   4.174   2.647 -0.8504 -0.1214 -0.0876
 9477TIP3    H149922   3.737   4.087   2.679 -3.0126  1.6446  3.3954
 9477TIP3    H249923   3.682   4.207   2.604 -0.4606  0.6017 -0.2705
 9478TIP3   OH249924   0.482   0.454   4.140  0.5925 -0.3189 -0.4687
 9478TIP3    H149925   0.417   0.514   4.178 -0.2308 -0.8022 -1.0803
 9478TIP3    H249926   0.565   0.501   4.147  0.6876 -0.8950  3.0512
 9479TIP3   OH249927   0.860   0.977   1.428  0.2140 -0.0092 -0.4282
 9479TIP3    H149928   0.934   0.990   1.369  0.3289 -3.4207 -1.1266
 9479TIP3    H249929   0.785   1.012   1.381  0.8025  0.0996 -1.2998
 9480TIP3   OH249930   1.844   2.418  15.019  0.0566  0.4254 -0.1070
 9480TIP3    H149931   1.808   2.411  15.108  0.2478  2.6192  0.1603
 9480TIP3    H249932   1.841   2.511  15.000  3.4841  0.3888 -0.9822
 9481TIP3   OH249933   3.701   2.523  14.948  0.6353  0.2110 -0.1270
 9481TIP3    H149934   3.718   2.608  14.988  0.0961 -0.0373  0.6369
 9481TIP3    H249935   3.768   2.465  14.985  1.5189  0.4828 -1.2709
 9482TIP3   OH249936   1.613   6.554  11.966 -0.7520  0.9815  0.2520
 9482TIP3    H149937   1.644   6.631  12.014 -1.5001  0.6219  1.3506
 9482TIP3    H249938   1.609   6.484  12.032 -1.8865  0.4926 -0.3112
 9483TIP3   OH249939   4.327   6.624   2.190  0.3095 -0.3803  0.4059
 9483TIP3    H149940   4.337   6.665   2.276 -0.6173  0.9664 -0.1120
 9483TIP3    H249941   4.256   6.561   2.202 -0.6212  0.6335  0.3615
 9484TIP3   OH249942   2.856   6.249   2.714 -0.8350  0.0199  0.4595
 9484TIP3    H149943   2.875   6.341   2.730 -1.5416  0.1453  0.5807
 9484TIP3    H249944   2.872   6.206   2.798 -0.8768  0.0911  0.5038
 9485TIP3   OH249945   3.134   1.032   3.022  0.2183 -0.0764  0.4580
 9485TIP3    H149946   3.159   1.125   3.019  0.3925 -0.0951  1.2386
 9485TIP3    H249947   3.112   1.017   3.114  4.8717 -2.0593  1.3919
 9486TIP3   OH249948   5.148   3.524   4.700  0.4301  0.2002  0.1597
 9486TIP3    H149949   5.076   3.464   4.719  0.8482 -0.3604 -0.0130
 9486TIP3    H249950   5.194   3.532   4.784  0.9250 -0.4596 -0.0484
 9487TIP3   OH249951   0.149   5.035   3.524  0.2775 -0.3762 -0.4800
 9487TIP3    H149952   0.103   4.979   3.461 -0.9463  0.2273 -0.1377
 9487TIP3    H249953   0.157   4.982   3.603 -2.4447  0.5221  0.4289
 9488TIP3   OH249954   6.113   1.830  13.455  0.2224  0.4181 -0.2601
 9488TIP3    H149955   6.179   1.820  13.387  1.0766  0.0107  0.6200
 9488TIP3    H249956   6.146   1.779  13.529 -0.9906  0.3471  0.2495
 9489TIP3   OH249957   6.693   2.031   0.254 -0.3583 -0.0609  0.1407
 9489TIP3    H149958   6.778   1.995   0.277 -0.4883 -1.6269 -1.6559
 9489TIP3    H249959   6.709   2.124   0.240  0.7340 -0.0601  1.3208
 9490TIP3   OH249960   6.508   5.264  14.107 -0.0903 -0.0765  0.0041
 9490TIP3    H149961   6.425   5.296  14.071 -0.2977 -1.1695 -0.4976
 9490TIP3    H249962   6.484   5.227  14.192  0.2000  1.3668  0.7273
 9491TIP3   OH249963   3.491   4.941  13.131 -0.0884  0.0253  0.6597
 9491TIP3    H149964   3.529   5.025  13.105 -1.8503  0.6301 -0.1050
 9491TIP3    H249965   3.546   4.876  13.088  1.9519  0.7292  2.1414
 9492TIP3   OH249966   0.887   5.692  16.406  0.1397  0.6200 -0.3241
 9492TIP3    H149967   0.821   5.637  16.447  1.0256 -0.0986  0.1423
 9492TIP3    H249968   0.968   5.671  16.452  1.0762  0.0555 -2.1902
 9493TIP3   OH249969   1.197   2.630   0.701 -0.0179 -0.4661  0.1057
 9493TIP3    H149970   1.107   2.661   0.694  0.1774 -0.3268 -2.2501
 9493TIP3    H249971   1.245   2.702   0.741 -0.7712 -0.1753  0.4857
 9494TIP3   OH249972   1.750   6.196  11.926  0.2454  0.0802  0.2906
 9494TIP3    H149973   1.742   6.173  11.833  0.0031 -0.3975  0.4288
 9494TIP3    H249974   1.844   6.189  11.944  0.4421  1.2782 -0.1953
 9495TIP3   OH249975   2.326   0.471   5.577  0.5793 -0.1771 -0.6434
 9495TIP3    H149976   2.353   0.489   5.667  0.2895 -1.9417 -0.1956
 9495TIP3    H249977   2.269   0.395   5.584 -0.7617  0.6616 -2.1327
 9496TIP3   OH249978   3.955   3.827  13.818 -0.1476  0.5205 -0.6297
 9496TIP3    H149979   3.974   3.761  13.751 -1.3344  0.5055 -0.9695
 9496TIP3    H249980   4.034   3.830  13.871  0.3512 -0.3621 -1.2923
 9497TIP3   OH249981   3.155   6.131   2.334 -0.3290  0.0035 -0.3117
 9497TIP3    H149982   3.181   6.123   2.426 -0.7760  0.3317 -0.1544
 9497TIP3    H249983   3.092   6.203   2.333  0.8352  1.0325 -1.1225
 9498TIP3   OH249984   4.866   5.885  12.913 -0.2812 -0.4822 -0.2990
 9498TIP3    H149985   4.862   5.972  12.954 -0.2102 -0.3259 -0.6245
 9498TIP3    H249986   4.776   5.867  12.886 -0.0678  0.0666 -1.4242
 9499TIP3   OH249987   3.767   5.732  12.130 -0.8099  0.1318 -0.0168
 9499TIP3    H149988   3.739   5.707  12.219 -0.4648 -3.5258 -0.8506
 9499TIP3    H249989   3.736   5.661  12.075  1.6886  0.8143 -2.4055
 9500TIP3   OH249990   4.164   6.045   3.551 -0.2012  0.0179  0.4276
 9500TIP3    H149991   4.209   6.076   3.630 -0.2944  0.9935  0.0958
 9500TIP3    H249992   4.164   6.120   3.492  0.2192 -0.8378 -0.6602
 9501TIP3   OH249993   0.726   3.662  13.421 -0.4152 -0.0821 -0.0785
 9501TIP3    H149994   0.689   3.748  13.399  1.2825  1.1468  1.6561
 9501TIP3    H249995   0.748   3.623  13.337  0.2908  1.8872 -0.8437
 9502TIP3   OH249996   2.760   5.742   1.965 -0.6079 -0.0269 -1.0318
 9502TIP3    H149997   2.730   5.818   1.915  1.7016 -0.2392 -2.8232
 9502TIP3    H249998   2.821   5.698   1.907  3.4081  0.5556  2.4979
 9503TIP3   OH249999   4.140   0.361   2.156  0.2134  0.3905  0.0360
 9503TIP3    H150000   4.229   0.336   2.179 -0.2850 -0.6505  0.9084
 9503TIP3    H250001   4.085   0.293   2.197 -1.0072  1.3815  0.0703
 9504TIP3   OH250002   3.510   1.209  12.196  0.6776  0.1215  0.2431
 9504TIP3    H150003   3.466   1.292  12.215  0.7366  0.5014 -1.1995
 9504TIP3    H250004   3.458   1.143  12.242 -2.9397  0.2273 -3.4355
 9505TIP3   OH250005   6.000   0.734  13.608  0.2070 -0.1274 -0.2922
 9505TIP3    H150006   6.094   0.744  13.600  0.0215  1.3275 -0.8060
 9505TIP3    H250007   5.973   0.805  13.667 -0.7643  0.5306 -1.5035
 9506TIP3   OH250008   2.998   5.870  15.941  0.3414 -0.4373  0.0796
 9506TIP3    H150009   3.025   5.962  15.943  0.7364 -0.5524  0.1828
 9506TIP3    H250010   2.964   5.853  16.029  0.0479 -0.3232 -0.0155
 9507TIP3   OH250011   1.743   2.374  13.247 -0.2237 -0.1209  0.7744
 9507TIP3    H150012   1.693   2.430  13.307  0.3216  0.2053  0.9323
 9507TIP3    H250013   1.826   2.421  13.235 -0.5514  0.1130 -0.7039
 9508TIP3   OH250014   5.519   0.634  11.030  0.0136  0.2647  0.1330
 9508TIP3    H150015   5.559   0.570  10.972 -0.6083 -0.5588  0.5980
 9508TIP3    H250016   5.500   0.709  10.975  1.1539  0.2217 -0.3272
 9509TIP3   OH250017   0.678   0.193   4.101 -0.1584  0.3609 -0.2766
 9509TIP3    H150018   0.667   0.243   4.182 -0.2442  2.0078 -1.2989
 9509TIP3    H250019   0.771   0.168   4.101 -0.3048 -0.2110  0.6396
 9510TIP3   OH250020   1.218   1.625  15.125 -0.1494 -0.4442 -0.2191
 9510TIP3    H150021   1.128   1.592  15.131 -0.4464  0.3089 -0.3620
 9510TIP3    H250022   1.217   1.706  15.177 -0.0417  0.5436 -1.7173
 9511TIP3   OH250023   3.266   5.500  16.472 -0.1876 -0.0253 -0.0791
 9511TIP3    H150024   3.316   5.430  16.513 -0.9998 -0.8566 -0.5091
 9511TIP3    H250025   3.226   5.547  16.546 -0.0577 -0.3247  0.1818
 9512TIP3   OH250026   4.640   2.497   3.311 -0.2801 -0.4018 -0.2696
 9512TIP3    H150027   4.658   2.422   3.367  0.9134  0.4249  0.4895
 9512TIP3    H250028   4.573   2.467   3.250  0.3351 -2.1413 -0.1067
 9513TIP3   OH250029   6.165   0.472   3.931 -0.7004 -0.2945  0.0638
 9513TIP3    H150030   6.128   0.403   3.987  0.4358 -2.1891 -1.4355
 9513TIP3    H250031   6.159   0.436   3.842  1.9395  0.5987 -0.5158
 9514TIP3   OH250032   6.202   1.302  13.972 -0.4195 -0.2324  0.1895
 9514TIP3    H150033   6.220   1.208  13.978  1.3874 -0.0095 -1.1357
 9514TIP3    H250034   6.152   1.312  13.891  1.8472  0.2254 -1.2150
 9515TIP3   OH250035   4.691   2.824   2.771 -0.1849  0.6756 -0.5844
 9515TIP3    H150036   4.665   2.914   2.751  1.6499  1.0909 -1.1371
 9515TIP3    H250037   4.625   2.794   2.834 -1.5181  1.9753 -1.3390
 9516TIP3   OH250038   0.145   6.732  13.612 -0.5144  0.4619 -0.0262
 9516TIP3    H150039   0.078   6.758  13.549  0.4163 -0.4292 -1.4180
 9516TIP3    H250040   0.110   6.652  13.653 -0.2657 -0.0721 -0.8405
 9517TIP3   OH250041   3.352   0.676   5.714  0.3985  0.5859 -0.7363
 9517TIP3    H150042   3.387   0.692   5.802  0.1459  1.1926 -0.7459
 9517TIP3    H250043   3.428   0.644   5.664  0.0376 -2.0302  0.3031
 9518TIP3   OH250044   2.711   5.244  16.676 -0.7136  0.4353  0.3139
 9518TIP3    H150045   2.726   5.210  16.765  1.5974 -0.2454 -0.3074
 9518TIP3    H250046   2.642   5.188  16.640  0.5060 -1.2606  0.5953
 9519TIP3   OH250047   5.833   3.561  11.172 -0.0809  0.4721 -0.2448
 9519TIP3    H150048   5.917   3.535  11.211 -0.3235  0.6752  0.4190
 9519TIP3    H250049   5.832   3.656  11.179 -0.4818  0.4528 -0.0106
 9520TIP3   OH250050   6.164   5.921  16.296  0.6890  0.1418  0.4350
 9520TIP3    H150051   6.225   5.958  16.233 -0.3628  0.2679 -0.5260
 9520TIP3    H250052   6.096   5.988  16.306 -1.1040 -1.3991 -1.1309
 9521TIP3   OH250053   4.948   3.543   5.308  0.0812 -0.1803  0.0148
 9521TIP3    H150054   5.005   3.480   5.352 -0.5156 -1.5551 -1.1232
 9521TIP3    H250055   4.969   3.532   5.215  0.0888  1.4432 -0.1876
 9522TIP3   OH250056   2.173   2.685  14.873  0.4659 -0.0558 -0.1546
 9522TIP3    H150057   2.115   2.679  14.797 -0.5149  1.4148  0.4542
 9522TIP3    H250058   2.246   2.626  14.852 -0.0829 -0.1310 -1.9641
 9523TIP3   OH250059   0.955   3.897   3.664 -0.4264  0.0186 -0.6110
 9523TIP3    H150060   0.971   3.955   3.589  0.0949 -1.6731 -1.8319
 9523TIP3    H250061   1.017   3.825   3.652  0.9256  0.5969  2.4191
 9524TIP3   OH250062   1.224   6.375  14.621  0.1178 -0.6338  0.4690
 9524TIP3    H150063   1.254   6.458  14.586 -3.8357  1.3609  1.4955
 9524TIP3    H250064   1.270   6.309  14.569  2.6117  2.1747 -1.0142
 9525TIP3   OH250065   3.169   6.484  13.498 -0.2758 -0.1378  0.1584
 9525TIP3    H150066   3.229   6.410  13.484 -1.8379 -1.3038 -0.4859
 9525TIP3    H250067   3.170   6.531  13.415  1.2069  0.9694  0.7716
 9526TIP3   OH250068   0.705   2.079   2.398 -0.0168 -0.5530 -0.3203
 9526TIP3    H150069   0.673   2.050   2.312  1.9065  0.7135 -1.4806
 9526TIP3    H250070   0.659   2.161   2.414  0.4594 -0.2177 -0.6591
 9527TIP3   OH250071   1.791   1.825   3.109  0.0884  0.4235 -0.5729
 9527TIP3    H150072   1.824   1.915   3.119  0.2718  0.2266  0.6130
 9527TIP3    H250073   1.856   1.782   3.054  2.2687 -0.1664  2.3431
 9528TIP3   OH250074   5.566   0.847   0.370  0.0331 -0.2278 -0.0576
 9528TIP3    H150075   5.639   0.882   0.422 -0.7023 -0.8431  1.4251
 9528TIP3    H250076   5.583   0.877   0.281  1.1672  1.1152  0.5929
 9529TIP3   OH250077   3.225   4.823   1.528  0.3145  0.4694 -0.1149
 9529TIP3    H150078   3.218   4.782   1.442  2.3353  0.5273 -0.3368
 9529TIP3    H250079   3.136   4.850   1.550 -0.3838 -0.4901 -1.7168
 9530TIP3   OH250080   2.202   0.562  16.068  0.2649 -0.2980  0.6692
 9530TIP3    H150081   2.130   0.619  16.093  1.2476  0.5087  1.7378
 9530TIP3    H250082   2.230   0.522  16.151 -0.2572 -2.1607 -0.0261
 9531TIP3   OH250083   2.773   0.311   0.459  0.5092 -0.0999 -0.3297
 9531TIP3    H150084   2.749   0.395   0.421  1.5235  0.4924  0.3093
 9531TIP3    H250085   2.692   0.277   0.495 -0.0075  0.3723 -1.0353
 9532TIP3   OH250086   5.148   5.891  15.382  0.5695 -0.4469 -0.3543
 9532TIP3    H150087   5.184   5.913  15.468  0.4664 -1.1699 -0.1218
 9532TIP3    H250088   5.096   5.968  15.358  2.4366  0.7101 -0.8103
 9533TIP3   OH250089   2.989   3.219  11.212  0.3369 -0.3605  0.0084
 9533TIP3    H150090   3.054   3.185  11.272 -1.0744 -1.3882  0.9715
 9533TIP3    H250091   2.946   3.142  11.175 -0.8063  0.2975 -0.0838
 9534TIP3   OH250092   4.975   3.045  16.007 -0.1772 -0.0986 -0.3067
 9534TIP3    H150093   5.020   3.091  15.936  0.8192  1.1412  1.0869
 9534TIP3    H250094   4.992   2.952  15.990 -0.4589  0.1411 -2.0061
 9535TIP3   OH250095   2.096   2.010   4.949  0.7340 -0.2781 -0.7122
 9535TIP3    H150096   2.066   1.984   4.862 -0.1779  0.7897 -0.7285
 9535TIP3    H250097   2.166   2.073   4.933  0.4578  0.0404 -0.6834
 9536TIP3   OH250098   3.138   3.365   2.372  0.5642  0.0282  0.7384
 9536TIP3    H150099   3.179   3.388   2.456 -2.0574  2.5057  1.4291
 9536TIP3    H250100   3.044   3.367   2.391  0.0024 -1.8872 -1.6845
 9537TIP3   OH250101   2.167   5.735  15.676 -0.2184  0.0912 -0.5480
 9537TIP3    H150102   2.152   5.718  15.583  1.4984  0.2247 -0.8602
 9537TIP3    H250103   2.260   5.717  15.690 -0.2302  1.0305  0.9331
 9538TIP3   OH250104   1.179   2.185   6.073  0.5682  0.2292  0.5462
 9538TIP3    H150105   1.168   2.124   6.146  0.5333  0.6490  0.8938
 9538TIP3    H250106   1.114   2.159   6.009 -1.1445  1.4590  1.7427
 9539TIP3   OH250107   2.578   1.702  12.831 -0.1660  0.0127  0.1502
 9539TIP3    H150108   2.652   1.665  12.782  0.2722  1.6789 -0.4851
 9539TIP3    H250109   2.617   1.738  12.910 -0.4579 -0.0604  0.3269
 9540TIP3   OH250110   5.076   2.419  14.837  1.0803  0.8278  0.2270
 9540TIP3    H150111   5.082   2.476  14.914  0.7786  1.0231  0.1082
 9540TIP3    H250112   5.165   2.420  14.800  1.8975 -1.3136  2.0147
 9541TIP3   OH250113   1.310   0.988   2.544  0.8563  0.4991 -0.4050
 9541TIP3    H150114   1.317   1.028   2.457 -1.0458 -2.4765 -1.9935
 9541TIP3    H250115   1.342   0.899   2.532 -1.3266 -0.5860  1.4657
 9542TIP3   OH250116   6.491   0.625   3.531  0.1641  0.3060  0.3168
 9542TIP3    H150117   6.420   0.648   3.471  0.8358  0.9225 -0.2488
 9542TIP3    H250118   6.511   0.707   3.577  1.5472  0.5139 -0.6255
 9543TIP3   OH250119   5.058   6.023   4.631 -0.5215 -0.2498 -0.3653
 9543TIP3    H150120   5.060   6.115   4.659 -2.2283 -0.4656  0.5162
 9543TIP3    H250121   5.136   5.985   4.672 -0.7095  0.4251  0.6600
 9544TIP3   OH250122   4.487   0.518  11.134 -0.4471 -0.3942 -0.9099
 9544TIP3    H150123   4.426   0.543  11.203 -0.7146 -0.6137 -1.0645
 9544TIP3    H250124   4.568   0.565  11.155 -0.9231  0.5411 -1.1551
 9545TIP3   OH250125   5.212   1.193   4.674  0.5270 -0.4213  0.9079
 9545TIP3    H150126   5.263   1.192   4.755 -0.1601 -2.7082  1.3420
 9545TIP3    H250127   5.239   1.114   4.627  0.5689  0.6276 -0.8987
 9546TIP3   OH250128   5.115   3.214  15.783  0.3196  0.2174 -0.8940
 9546TIP3    H150129   5.108   3.305  15.815  1.7799  0.1762 -0.4366
 9546TIP3    H250130   5.203   3.187  15.806 -0.1503 -1.3875 -0.9081
 9547TIP3   OH250131   5.653   2.132   0.871  0.1990 -0.1751 -0.1841
 9547TIP3    H150132   5.712   2.061   0.898  0.3381 -0.2806 -0.7413
 9547TIP3    H250133   5.673   2.144   0.778 -1.9289 -1.4551 -0.8538
 9548TIP3   OH250134   4.779   5.503   5.627 -0.1101 -0.8088 -0.3542
 9548TIP3    H150135   4.861   5.497   5.676 -0.4151 -0.4563  0.2089
 9548TIP3    H250136   4.739   5.417   5.638 -1.3962  0.0538  2.2182
 9549TIP3   OH250137   5.051   1.922   3.875 -0.3926  0.0131 -0.0577
 9549TIP3    H150138   5.123   1.945   3.815  0.0585  0.9565  0.8347
 9549TIP3    H250139   4.979   1.899   3.817  0.4391 -0.3558 -0.9738
 9550TIP3   OH250140   5.286   0.840   0.280 -0.4124 -0.1877 -0.1884
 9550TIP3    H150141   5.373   0.814   0.310 -0.2133  0.0874 -0.5332
 9550TIP3    H250142   5.300   0.879   0.194 -0.9108 -0.4185 -0.3812
 9551TIP3   OH250143   5.269   5.427  12.491  0.1671  0.4623 -0.3922
 9551TIP3    H150144   5.307   5.494  12.548 -1.2193  0.4832  0.5302
 9551TIP3    H250145   5.300   5.344  12.528  0.2024  0.5218 -0.2856
 9552TIP3   OH250146   4.233   0.700  13.712  0.3737  0.2178 -0.4601
 9552TIP3    H150147   4.311   0.672  13.664  1.2491 -1.6392  1.9511
 9552TIP3    H250148   4.163   0.644  13.679  1.2687 -2.0475  1.3634
 9553TIP3   OH250149   2.467   0.856  12.051  0.8321 -0.1783  0.7703
 9553TIP3    H150150   2.478   0.889  11.962 -1.4612 -0.2177  0.4331
 9553TIP3    H250151   2.467   0.761  12.042 -1.5048 -0.1822  0.4839
 9554TIP3   OH250152   1.033   4.563   4.282 -0.1675 -0.7710  0.2528
 9554TIP3    H150153   1.088   4.612   4.343 -0.8300 -1.3811  1.3482
 9554TIP3    H250154   0.949   4.554   4.327 -0.6939 -1.1545 -0.7856
 9555TIP3   OH250155   6.255   0.672  14.687  0.1604  0.2788 -0.0287
 9555TIP3    H150156   6.221   0.703  14.603  0.1268  0.3635  0.0169
 9555TIP3    H250157   6.328   0.615  14.664  0.7273  1.0237 -0.0796
 9556TIP3   OH250158   3.893   5.397  15.637  0.3242  0.2688 -0.1531
 9556TIP3    H150159   3.976   5.392  15.590 -0.0596 -0.7570 -0.7295
 9556TIP3    H250160   3.858   5.308  15.633  0.4682  0.0512  2.3971
 9557TIP3   OH250161   4.299   5.280   2.128  0.0793 -0.2881  0.0730
 9557TIP3    H150162   4.286   5.191   2.095  0.0482 -0.1068 -0.4050
 9557TIP3    H250163   4.301   5.270   2.224 -1.0690 -0.6428  0.0611
 9558TIP3   OH250164   0.792   3.782   1.953 -0.3063 -0.0142  0.2305
 9558TIP3    H150165   0.711   3.805   1.909 -0.3384  1.8802  1.2238
 9558TIP3    H250166   0.791   3.833   2.034  1.5032 -0.5693  0.6334
 9559TIP3   OH250167   6.493   5.954  16.713 -0.4624  0.4283  0.4523
 9559TIP3    H150168   6.563   5.930  16.773 -0.3411 -0.1036  0.0944
 9559TIP3    H250169   6.472   6.045  16.736  0.4429  0.6355  0.4583
 9560TIP3   OH250170   3.239   2.769  15.529  0.3728  0.2992  0.5720
 9560TIP3    H150171   3.235   2.784  15.623  0.0054 -1.9667  0.9336
 9560TIP3    H250172   3.331   2.750  15.511  0.1155 -1.2560  0.8138
 9561TIP3   OH250173   1.672   4.016   2.410  0.0979 -0.0366 -0.1299
 9561TIP3    H150174   1.600   4.077   2.427 -0.1556 -0.7139  1.3339
 9561TIP3    H250175   1.748   4.073   2.396 -0.1847  0.6283  0.9641
 9562TIP3   OH250176   3.353   3.491   2.905 -0.0334 -0.7710  0.5145
 9562TIP3    H150177   3.406   3.540   2.967  1.1895 -0.3980 -0.7884
 9562TIP3    H250178   3.415   3.466   2.836 -1.4587 -0.7198 -0.8007
 9563TIP3   OH250179   1.118   6.499   5.721 -0.7875  0.4372 -0.3265
 9563TIP3    H150180   1.123   6.437   5.648 -0.5906  1.1399 -0.9204
 9563TIP3    H250181   1.199   6.549   5.715 -1.3445  1.3439 -0.3998
 9564TIP3   OH250182   5.991   6.623   4.252 -0.3098 -0.2347 -0.4754
 9564TIP3    H150183   6.027   6.601   4.338  0.1547  0.6329 -0.4376
 9564TIP3    H250184   5.897   6.623   4.265 -0.2149  1.3395  0.4286
 9565TIP3   OH250185   1.346   2.067  16.267  0.1090  0.2915  0.4408
 9565TIP3    H150186   1.365   1.978  16.238  1.8161  0.6924  0.2405
 9565TIP3    H250187   1.415   2.086  16.331  0.4287  1.8406 -0.3315
 9566TIP3   OH250188   0.938   2.743  13.976 -0.2455 -0.6386  0.0350
 9566TIP3    H150189   0.960   2.652  13.998 -1.8851 -1.4197 -1.4633
 9566TIP3    H250190   0.928   2.786  14.060  1.0691 -1.7109  0.7728
 9567TIP3   OH250191   5.237   3.688  11.598 -0.2618  0.5505  0.0929
 9567TIP3    H150192   5.285   3.614  11.561  0.7519  0.5745  1.3021
 9567TIP3    H250193   5.162   3.700  11.540  0.1295 -0.7607 -0.7067
 9568TIP3   OH250194   1.656   1.501   3.380 -0.3999 -0.0100  0.1864
 9568TIP3    H150195   1.591   1.457   3.326 -2.8355  0.3507  2.6763
 9568TIP3    H250196   1.726   1.437   3.391 -1.5634 -1.4022 -0.3613
 9569TIP3   OH250197   6.009   2.263  11.951 -0.1564  0.2169 -0.5707
 9569TIP3    H150198   6.070   2.266  11.878  0.6486 -0.3544  0.0716
 9569TIP3    H250199   6.032   2.339  12.005 -0.9254  0.7927 -1.0437
 9570TIP3   OH250200   3.212   0.377   4.334  0.0235 -0.7454 -0.3673
 9570TIP3    H150201   3.277   0.320   4.377  0.7986 -0.2180 -0.8173
 9570TIP3    H250202   3.143   0.317   4.305  0.3084 -1.3176  0.1205
 9571TIP3   OH250203   2.782   5.290  13.926  0.5538  0.4727 -0.0173
 9571TIP3    H150204   2.750   5.378  13.906  0.1274  0.8257  2.0489
 9571TIP3    H250205   2.869   5.286  13.888  0.6675  1.8922  0.0746
 9572TIP3   OH250206   3.934   3.317   2.217 -0.5977 -0.7354  0.1691
 9572TIP3    H150207   3.869   3.369   2.264  0.8264 -1.1920  2.7692
 9572TIP3    H250208   3.894   3.230   2.210 -1.1614 -0.4495 -0.2451
 9573TIP3   OH250209   6.276   0.877   3.459  0.3625 -0.3143 -0.0981
 9573TIP3    H150210   6.260   0.786   3.485 -0.1509 -0.3797 -0.6570
 9573TIP3    H250211   6.352   0.872   3.401 -1.1719 -0.6857 -2.1163
 9574TIP3   OH250212   4.939   5.290  13.590  0.4941 -0.0220  0.6452
 9574TIP3    H150213   4.951   5.206  13.633  0.2455 -1.0433 -1.2272
 9574TIP3    H250214   4.853   5.284  13.547  1.0331  0.7071 -0.5645
 9575TIP3   OH250215   1.760   4.263  14.730  0.0278 -0.1388  0.0157
 9575TIP3    H150216   1.783   4.336  14.672  0.1816 -0.9908 -1.0055
 9575TIP3    H250217   1.842   4.240  14.773  0.0493  0.0539  0.0824
 9576TIP3   OH250218   6.561   1.146   2.152  0.0072 -0.0086  0.1228
 9576TIP3    H150219   6.609   1.208   2.207 -0.8549  0.9689 -0.2126
 9576TIP3    H250220   6.512   1.091   2.214 -0.1770  0.4344  0.3695
 9577TIP3   OH250221   2.397   3.861   3.485 -0.4362  0.0779  0.2036
 9577TIP3    H150222   2.400   3.868   3.390 -0.8313 -0.1294  0.1777
 9577TIP3    H250223   2.306   3.876   3.508 -0.1274  1.4053  0.6555
 9578TIP3   OH250224   3.973   3.878   4.886 -0.3626  0.5066  0.3324
 9578TIP3    H150225   4.031   3.930   4.941  0.2564  0.6805 -0.4770
 9578TIP3    H250226   3.885   3.905   4.913 -0.0556  2.1625 -0.2237
 9579TIP3   OH250227   4.356   1.561  15.872  0.3470  0.3619  0.0647
 9579TIP3    H150228   4.263   1.572  15.849  1.0692  2.3712 -2.0977
 9579TIP3    H250229   4.355   1.553  15.967 -1.8735  3.2995  0.3937
 9580TIP3   OH250230   3.664   0.219  11.815 -0.1266 -0.0594 -0.1572
 9580TIP3    H150231   3.716   0.263  11.749 -1.3091 -1.4575 -2.0634
 9580TIP3    H250232   3.694   0.128  11.813 -1.3248 -0.4651  0.0720
 9581TIP3   OH250233   0.700   6.775   0.248 -0.2978  0.0679 -0.3913
 9581TIP3    H150234   0.644   6.705   0.216 -0.3506 -1.6260  3.1474
 9581TIP3    H250235   0.641   6.830   0.301  0.3275  1.2462 -0.8833
 9582TIP3   OH250236   4.992   1.534   4.420  1.0527 -0.4421  0.1679
 9582TIP3    H150237   5.080   1.550   4.455  1.1297  1.2336 -0.7233
 9582TIP3    H250238   5.004   1.532   4.325 -0.3456  3.5534 -0.2162
 9583TIP3   OH250239   4.488   2.955  15.557  0.2021  0.3537  0.0889
 9583TIP3    H150240   4.487   2.995  15.644 -1.6968 -0.7892  0.6325
 9583TIP3    H250241   4.480   3.028  15.496  0.7464  1.1013  0.8987
 9584TIP3   OH250242   1.609   2.128  14.687 -0.0933 -0.3455 -0.2972
 9584TIP3    H150243   1.518   2.127  14.659 -0.3611  3.1167  0.3456
 9584TIP3    H250244   1.656   2.173  14.617  0.8016 -0.2371  0.3523
 9585TIP3   OH250245   5.425   5.888   3.772 -0.1559  0.3678  0.0811
 9585TIP3    H150246   5.492   5.890   3.840 -0.8732  3.3810  0.7648
 9585TIP3    H250247   5.467   5.928   3.696 -0.5245  0.3992 -0.1079
 9586TIP3   OH250248   2.315   6.461  14.774  0.2185 -0.3696  0.0576
 9586TIP3    H150249   2.241   6.435  14.718 -0.2527 -1.2866  1.0817
 9586TIP3    H250250   2.363   6.380  14.789  0.7328  0.0023  0.4152
 9587TIP3   OH250251   5.516   0.097   2.811 -0.2998 -0.1599  0.1718
 9587TIP3    H150252   5.446   0.042   2.775 -1.1463  0.6851  0.5072
 9587TIP3    H250253   5.554   0.044   2.881 -0.0833 -0.9387 -0.5266
 9588TIP3   OH250254   3.047   2.533  10.724 -0.0893  0.1531  0.3251
 9588TIP3    H150255   3.062   2.625  10.701 -1.5330 -0.0076 -1.3925
 9588TIP3    H250256   2.972   2.507  10.670  0.1353 -1.9594  0.9914
 9589TIP3   OH250257   2.294   0.627  13.461  0.5130  0.0825  0.7316
 9589TIP3    H150258   2.214   0.652  13.506 -0.9248  0.3564 -1.8462
 9589TIP3    H250259   2.321   0.545  13.503 -1.2874 -0.1711  1.4347
 9590TIP3   OH250260   3.076   0.828   0.644  0.0185  0.6696 -0.2476
 9590TIP3    H150261   3.145   0.892   0.623  0.1179  0.9950  1.0243
 9590TIP3    H250262   3.109   0.783   0.722 -0.8216  0.2262 -0.1466
 9591TIP3   OH250263   5.624   6.549   5.406  0.1630  0.3839  0.7864
 9591TIP3    H150264   5.535   6.535   5.374  0.5934 -1.8427  0.5212
 9591TIP3    H250265   5.642   6.641   5.386 -1.1891  0.2161 -1.3566
 9592TIP3   OH250266   1.949   4.700   1.144 -0.2283  0.0422  0.0820
 9592TIP3    H150267   2.039   4.720   1.120 -0.5510 -0.1553 -1.3433
 9592TIP3    H250268   1.901   4.700   1.061 -1.3319 -0.9130  0.6909
 9593TIP3   OH250269   1.212   3.608   0.426 -0.0908 -0.2291  0.3451
 9593TIP3    H150270   1.180   3.627   0.338 -2.6641 -2.6860  0.6606
 9593TIP3    H250271   1.148   3.649   0.484 -0.2944 -1.4449  1.0122
 9594TIP3   OH250272   5.964   3.089   0.348 -0.5631  0.2223  0.0741
 9594TIP3    H150273   5.971   3.014   0.406 -0.0887  0.0421 -0.2139
 9594TIP3    H250274   5.879   3.128   0.369 -0.8520 -0.4453  0.1585
 9595TIP3   OH250275   3.006   6.307  13.185  0.1967 -0.2334 -0.3466
 9595TIP3    H150276   3.046   6.382  13.141 -2.4867  1.3100 -0.2594
 9595TIP3    H250277   3.022   6.321  13.278 -0.6134  0.4362 -0.3045
 9596TIP3   OH250278   3.404   6.608  11.779  0.5099 -0.0279 -0.0292
 9596TIP3    H150279   3.346   6.537  11.754  0.9415  0.1813 -1.6661
 9596TIP3    H250280   3.373   6.635  11.866 -0.5599 -1.2391 -0.0209
 9597TIP3   OH250281   3.551   4.368   1.569 -0.0745 -0.2973 -0.1173
 9597TIP3    H150282   3.642   4.358   1.594  0.2108  1.8524 -0.2728
 9597TIP3    H250283   3.543   4.316   1.488  0.9790 -0.5814 -0.0433
 9598TIP3   OH250284   0.866   3.734   4.992  0.4712  0.3604 -0.2649
 9598TIP3    H150285   0.911   3.663   5.037  1.1080  0.3835 -0.8659
 9598TIP3    H250286   0.797   3.761   5.053  1.0377  0.0887  0.4993
 9599TIP3   OH250287   4.094   6.025  11.507  0.4938  0.7892  0.2586
 9599TIP3    H150288   4.098   5.940  11.551  1.8127  0.4296 -0.5043
 9599TIP3    H250289   4.003   6.052  11.514  0.3329 -0.0623  1.6863
 9600TIP3   OH250290   5.174   6.547   5.743 -0.1958  0.5500  0.5614
 9600TIP3    H150291   5.257   6.564   5.699 -0.8434 -1.0230 -1.3039
 9600TIP3    H250292   5.198   6.497   5.821  0.5702 -0.2494 -0.1781
 9601TIP3   OH250293   0.705   6.373   0.884 -0.1453  0.0708 -0.5667
 9601TIP3    H150294   0.767   6.320   0.835 -0.3893 -1.4138  0.6669
 9601TIP3    H250295   0.722   6.351   0.976 -0.4576  1.9299 -0.0442
 9602TIP3   OH250296   0.327   0.026  13.778 -0.3810 -0.3405 -0.0838
 9602TIP3    H150297   0.279   0.094  13.825  0.9041  0.5233  0.0269
 9602TIP3    H250298   0.266  -0.005  13.712 -1.6362 -0.3869  1.0638
 9603TIP3   OH250299   2.829   6.727  11.991  0.7909 -0.4196  0.2781
 9603TIP3    H150300   2.790   6.652  11.945  0.0441  0.1823 -0.0762
 9603TIP3    H250301   2.923   6.716  11.978  0.6109 -0.3682 -1.2489
 9604TIP3   OH250302   0.064   5.798  16.433  0.4037  0.3584  0.2253
 9604TIP3    H150303   0.041   5.889  16.451  0.1617  0.2583  0.4242
 9604TIP3    H250304   0.160   5.798  16.432  0.4875  0.0608  3.1824
 9605TIP3   OH250305   0.085   3.213  11.656  0.0435  0.3224 -0.1753
 9605TIP3    H150306   0.080   3.237  11.749  1.3024 -0.8554  0.2085
 9605TIP3    H250307   0.037   3.131  11.650 -0.5064  0.6728 -0.6857
 9606TIP3   OH250308   6.163   2.281  11.694  0.4011 -0.0233 -0.3522
 9606TIP3    H150309   6.240   2.335  11.677  0.2988  0.5061  0.8426
 9606TIP3    H250310   6.125   2.266  11.607  2.4978 -1.2901 -1.0968
 9607TIP3   OH250311   2.481   2.908   3.166 -0.1116 -0.1510 -0.1807
 9607TIP3    H150312   2.514   2.892   3.254 -0.1578  1.2698  0.1141
 9607TIP3    H250313   2.526   2.844   3.111  0.4121 -0.6079  0.7717
 9608TIP3   OH250314   1.867   1.439   0.041  0.2275 -0.1153 -0.1998
 9608TIP3    H150315   1.955   1.476   0.043  0.1764  0.1556 -1.8536
 9608TIP3    H250316   1.846   1.432  -0.052 -1.7988  0.5667  0.1622
 9609TIP3   OH250317   3.545   3.433   1.254 -0.4779 -0.0207  0.0137
 9609TIP3    H150318   3.580   3.521   1.269 -0.4084  0.1309 -0.9995
 9609TIP3    H250319   3.467   3.429   1.309 -0.4422  0.6544  0.1235
 9610TIP3   OH250320   4.795   6.754   0.360 -0.1005 -0.6449  0.6926
 9610TIP3    H150321   4.878   6.742   0.315  0.9491 -3.2918  3.2226
 9610TIP3    H250322   4.813   6.822   0.425 -0.6797  0.6823 -0.5007
 9611TIP3   OH250323   0.935   6.645   0.381  0.0264 -0.3305 -0.0424
 9611TIP3    H150324   0.885   6.695   0.316  0.7244 -0.9200 -1.0401
 9611TIP3    H250325   0.914   6.687   0.464 -0.2089  0.9899 -0.7478
 9612TIP3   OH250326   0.754   0.766  17.163  0.0244 -0.4315 -0.3294
 9612TIP3    H150327   0.792   0.843  17.120 -3.6964  1.5607 -0.2646
 9612TIP3    H250328   0.785   0.772  17.253 -1.4016  1.8937  0.0468
 9613TIP3   OH250329   3.301   5.985   5.238 -0.1686  0.0939 -0.5081
 9613TIP3    H150330   3.326   6.065   5.284  1.4183 -1.0322  0.6519
 9613TIP3    H250331   3.239   6.014   5.171  1.5175  2.5079 -1.0974
 9614TIP3   OH250332   6.452   3.745   6.379 -0.4809  0.1575 -0.2287
 9614TIP3    H150333   6.421   3.730   6.468  0.6640  0.1968  0.1799
 9614TIP3    H250334   6.504   3.825   6.384 -0.1281 -0.0273 -0.8590
 9615TIP3   OH250335   3.816   0.024   0.983 -0.6984 -0.5275  0.0676
 9615TIP3    H150336   3.870  -0.014   0.914 -0.2140 -0.0538  0.1764
 9615TIP3    H250337   3.875   0.031   1.059 -1.5477 -2.1261  0.8858
 9616TIP3   OH250338   2.476   3.820  16.087  0.6941 -0.1508  0.1816
 9616TIP3    H150339   2.552   3.766  16.064  0.9264  0.3342 -0.1966
 9616TIP3    H250340   2.411   3.757  16.118 -0.1324 -1.0282 -3.0597
 9617TIP3   OH250341   4.436   1.608  13.305  0.3364  0.2162  0.2027
 9617TIP3    H150342   4.383   1.668  13.358 -1.0081 -0.2030 -0.6398
 9617TIP3    H250343   4.416   1.521  13.341  1.2062  0.1468  0.5135
 9618TIP3   OH250344   2.186   4.871  13.606 -0.1342  0.1077 -0.4922
 9618TIP3    H150345   2.264   4.878  13.551 -0.9223  1.1553 -1.5280
 9618TIP3    H250346   2.215   4.898  13.693  0.8895 -0.5134 -0.6397
 9619TIP3   OH250347   2.198   2.998  17.112  0.0709 -0.3273 -0.3320
 9619TIP3    H150348   2.281   2.955  17.135 -0.9203 -2.3802 -0.4607
 9619TIP3    H250349   2.204   3.010  17.017 -0.2866 -1.6059 -0.5226
 9620TIP3   OH250350   1.443   5.713  15.337 -0.2481 -0.2285 -0.3382
 9620TIP3    H150351   1.357   5.745  15.364 -0.9152 -1.1448 -1.2974
 9620TIP3    H250352   1.478   5.669  15.414  0.3984  2.1857  0.7897
 9621TIP3   OH250353   2.722   3.466  12.047 -0.2128  0.7122 -0.0061
 9621TIP3    H150354   2.817   3.474  12.062 -0.5230  1.5247  1.5941
 9621TIP3    H250355   2.687   3.552  12.070 -1.7229 -0.5575  2.5723
 9622TIP3   OH250356   1.539   3.318  17.085  0.2762 -0.3052  0.4833
 9622TIP3    H150357   1.627   3.316  17.121 -0.7491  0.5043  3.1581
 9622TIP3    H250358   1.510   3.409  17.096 -0.6449 -0.3991 -0.9975
 9623TIP3   OH250359   4.270   1.245  14.214 -0.0274  0.4256 -0.3883
 9623TIP3    H150360   4.208   1.237  14.142 -0.4168  3.0572 -0.4135
 9623TIP3    H250361   4.221   1.217  14.292 -0.2173 -0.5662 -0.8585
 9624TIP3   OH250362   0.492   0.046   6.209  0.1862  0.0652 -0.8393
 9624TIP3    H150363   0.542   0.086   6.280 -1.0416 -0.0957  0.1465
 9624TIP3    H250364   0.415   0.101   6.200  0.5393  0.3159 -2.3450
 9625TIP3   OH250365   5.193   3.616   2.131  0.0368 -0.3540 -0.1338
 9625TIP3    H150366   5.269   3.624   2.074  1.4995 -0.4127  1.7553
 9625TIP3    H250367   5.196   3.694   2.186 -1.6398 -0.0415 -0.4641
 9626TIP3   OH250368   1.669   1.535  13.261 -0.2093 -0.4565  0.3131
 9626TIP3    H150369   1.703   1.579  13.183 -1.3531 -1.9410 -1.0738
 9626TIP3    H250370   1.605   1.596  13.298 -0.0238  0.0538 -0.2051
 9627TIP3   OH250371   1.120   0.744  17.162 -0.1391 -0.3303 -0.3154
 9627TIP3    H150372   1.119   0.680  17.091 -0.4366 -0.4075 -0.2460
 9627TIP3    H250373   1.087   0.695  17.238 -0.7662  0.0175 -0.3575
 9628TIP3   OH250374   5.966   4.151   5.822 -0.5197 -0.6654  0.4673
 9628TIP3    H150375   5.945   4.081   5.760  1.4238 -1.2357  0.4114
 9628TIP3    H250376   6.045   4.192   5.786 -0.3841  0.1331  1.6417
 9629TIP3   OH250377   3.748   1.278   6.105  0.8217 -0.0620  0.1339
 9629TIP3    H150378   3.833   1.308   6.072  0.5958  1.0137  0.4778
 9629TIP3    H250379   3.767   1.195   6.148  1.7146  0.1809  0.2285
 9630TIP3   OH250380   3.120   2.681  12.995  0.3311 -0.2043 -0.6538
 9630TIP3    H150381   3.091   2.766  13.030  0.0114 -0.3667 -0.5182
 9630TIP3    H250382   3.082   2.617  13.055  0.1234 -0.4683 -1.0704
 9631TIP3   OH250383   4.236   4.386  14.888  0.1411  0.2934 -0.2508
 9631TIP3    H150384   4.171   4.325  14.923 -1.8288  2.3015 -0.3112
 9631TIP3    H250385   4.201   4.413  14.803  0.4887  2.2288  0.1937
 9632TIP3   OH250386   5.271   0.469  12.852 -1.4222  0.1959 -0.0234
 9632TIP3    H150387   5.187   0.431  12.827 -0.9640 -1.4670  0.9088
 9632TIP3    H250388   5.289   0.434  12.939  0.5729 -0.0275 -0.4996
 9633TIP3   OH250389   5.382   3.695  12.624 -0.2289 -0.3388  0.1859
 9633TIP3    H150390   5.453   3.708  12.562  0.3160  0.3665  0.9555
 9633TIP3    H250391   5.420   3.714  12.710 -1.5607  0.9028  0.5322
 9634TIP3   OH250392   3.093   3.985  14.197  0.1417 -0.1293  0.3180
 9634TIP3    H150393   3.017   3.928  14.200  0.1044 -0.0654  0.6404
 9634TIP3    H250394   3.119   3.987  14.105 -1.9303  2.1031 -0.2553
 9635TIP3   OH250395   0.524   3.591   0.535 -0.1110 -0.0682  0.2200
 9635TIP3    H150396   0.587   3.521   0.555  0.7820  0.2691 -1.4067
 9635TIP3    H250397   0.526   3.647   0.612  1.4580 -0.1497  0.2410
 9636TIP3   OH250398   1.129   5.703   4.679 -0.1545 -0.1041  0.1840
 9636TIP3    H150399   1.103   5.731   4.591  3.4428  0.3555 -0.8250
 9636TIP3    H250400   1.131   5.784   4.730  1.4904  0.1910 -0.3416
 9637TIP3   OH250401   3.454   6.132  13.734 -0.1765 -0.0402  0.5075
 9637TIP3    H150402   3.533   6.100  13.690  1.3087  1.9950  1.6372
 9637TIP3    H250403   3.395   6.056  13.735  1.3815 -1.3186 -1.1789
 9638TIP3   OH250404   3.855   1.463   2.837 -0.2586  0.0260  0.0264
 9638TIP3    H150405   3.922   1.404   2.802  1.3898  1.3320  0.8693
 9638TIP3    H250406   3.841   1.527   2.766 -1.8113 -1.1569 -0.7640
 9639TIP3   OH250407   4.248   1.446   2.986  0.0998  0.2091 -0.1061
 9639TIP3    H150408   4.334   1.485   3.000 -0.8539  2.3770 -0.0375
 9639TIP3    H250409   4.266   1.362   2.944  2.3446 -0.4908  2.1756
 9640TIP3   OH250410   4.657   2.346   0.365 -0.0392 -0.0383 -0.4380
 9640TIP3    H150411   4.745   2.316   0.388 -0.9485 -3.2574 -0.9861
 9640TIP3    H250412   4.670   2.403   0.289  1.7530  1.3316  0.8516
 9641TIP3   OH250413   1.223   0.721  14.712  0.4855 -0.2166 -0.0337
 9641TIP3    H150414   1.183   0.675  14.637 -1.7698  1.9127 -0.1858
 9641TIP3    H250415   1.151   0.733  14.773  1.1443  2.6751  0.2169
 9642TIP3   OH250416   6.036   4.482  12.294  0.4816 -0.3370 -0.2251
 9642TIP3    H150417   5.942   4.491  12.278  0.4927 -0.7670 -0.5465
 9642TIP3    H250418   6.048   4.390  12.316  1.1443 -0.8019 -2.4039
 9643TIP3   OH250419   0.970   3.270   0.079 -0.8901 -0.6883 -0.2343
 9643TIP3    H150420   1.022   3.242   0.004  0.0100 -1.0366  0.5198
 9643TIP3    H250421   1.013   3.350   0.110 -1.3770 -0.4335 -0.1997
 9644TIP3   OH250422   0.678   4.997   0.805 -0.8233  0.4691  0.2447
 9644TIP3    H150423   0.651   5.042   0.724 -1.6016  0.4866  0.5078
 9644TIP3    H250424   0.701   5.068   0.864 -1.3678  0.5072  0.4198
 9645TIP3   OH250425   0.924   0.939   5.643 -0.9108 -0.4472  0.5365
 9645TIP3    H150426   0.981   0.868   5.673 -0.1956  0.3035  0.9825
 9645TIP3    H250427   0.870   0.961   5.719 -0.3365  0.2564  0.7430
 9646TIP3   OH250428   2.234   4.102  14.743  0.3842  0.4606  0.3869
 9646TIP3    H150429   2.281   4.181  14.772  1.0434  0.4801 -0.6984
 9646TIP3    H250430   2.219   4.116  14.649 -0.9732  0.0311  0.5299
 9647TIP3   OH250431   0.744   3.375  15.295 -0.2462  0.0759 -0.6616
 9647TIP3    H150432   0.797   3.445  15.335  2.4377 -1.8636 -0.6816
 9647TIP3    H250433   0.667   3.368  15.352  0.7668  1.2102  0.9020
 9648TIP3   OH250434   1.860   2.298  11.703  0.3905 -0.4487  0.0490
 9648TIP3    H150435   1.882   2.351  11.627 -0.4090  0.0245  0.1456
 9648TIP3    H250436   1.907   2.339  11.776 -0.0568 -0.0113  0.0848
 9649TIP3   OH250437   2.108   2.998   5.548  0.8055 -0.5884 -0.1091
 9649TIP3    H150438   2.159   2.991   5.467  0.5280  0.2049 -0.3504
 9649TIP3    H250439   2.108   3.091   5.570  1.8720 -0.9316  1.4470
 9650TIP3   OH250440   1.266   3.980   5.157  0.2089  0.5193  0.1990
 9650TIP3    H150441   1.238   3.897   5.118 -0.1399  1.0835 -0.7809
 9650TIP3    H250442   1.322   3.954   5.230 -0.6256 -0.5876  0.4654
 9651TIP3   OH250443   2.421   0.781  16.255  0.1126 -0.0941  0.3946
 9651TIP3    H150444   2.513   0.767  16.279  0.3323 -1.5200 -1.1745
 9651TIP3    H250445   2.387   0.694  16.237 -0.6650  0.6836 -2.0772
 9652TIP3   OH250446   2.705   3.949   0.561 -0.0412 -0.4457 -0.0148
 9652TIP3    H150447   2.705   3.858   0.592  1.4830  0.0342  1.4833
 9652TIP3    H250448   2.659   3.998   0.629 -0.2432  0.0178 -0.4810
 9653TIP3   OH250449   3.380   1.056  13.599 -0.3026  0.1027 -0.0389
 9653TIP3    H150450   3.347   0.972  13.631 -0.7537  0.3661  0.2009
 9653TIP3    H250451   3.400   1.040  13.507 -2.1238  0.2162 -0.4801
 9654TIP3   OH250452   6.139   1.076   3.396  0.2347  0.2689  0.4198
 9654TIP3    H150453   6.201   1.005   3.409  1.7435  1.5901  0.6860
 9654TIP3    H250454   6.055   1.042   3.428  1.4056 -0.6079  2.6418
 9655TIP3   OH250455   1.890   6.777   1.592 -0.3522 -0.1190  0.5568
 9655TIP3    H150456   1.934   6.728   1.660  0.1461 -1.0658 -0.4352
 9655TIP3    H250457   1.858   6.711   1.531  0.2779  0.7838 -0.7686
 9656TIP3   OH250458   5.500   1.734   4.587  0.2306 -0.6780  1.3329
 9656TIP3    H150459   5.445   1.792   4.639 -0.6819 -2.0139  1.9099
 9656TIP3    H250460   5.439   1.685   4.532  1.1345  0.1842 -0.4658
 9657TIP3   OH250461   6.666   4.940   3.731  0.0082  0.0210  0.2649
 9657TIP3    H150462   6.700   4.851   3.739 -0.2145 -0.3001 -2.0451
 9657TIP3    H250463   6.582   4.938   3.778 -0.1186 -1.0473 -0.0005
 9658TIP3   OH250464   2.303   3.044  13.084 -1.3471 -0.6634  0.0853
 9658TIP3    H150465   2.245   3.078  13.015 -1.6390 -0.0640  0.6215
 9658TIP3    H250466   2.355   3.119  13.111 -1.0179 -0.9699  0.3113
 9659TIP3   OH250467   1.362   3.369   5.861  0.0286  0.5749  0.0802
 9659TIP3    H150468   1.366   3.400   5.951 -0.8023 -0.2327  0.4094
 9659TIP3    H250469   1.349   3.274   5.868  2.0906  0.1858 -0.9047
 9660TIP3   OH250470   3.571   3.432   6.033  0.0118 -0.4318 -0.3569
 9660TIP3    H150471   3.502   3.439   5.967 -0.9238 -1.8250  0.4624
 9660TIP3    H250472   3.529   3.462   6.114  0.6311 -0.4580 -0.0277
 9661TIP3   OH250473   4.202   2.071  15.982 -0.5200 -0.8627  0.0381
 9661TIP3    H150474   4.147   2.058  16.059 -1.6364 -1.0802 -0.7821
 9661TIP3    H250475   4.155   2.026  15.911  0.9258 -1.4325 -0.5882
 9662TIP3   OH250476   0.219   3.858  16.190  0.0689  0.0746  0.2458
 9662TIP3    H150477   0.223   3.945  16.231  0.0610  0.7094 -1.0749
 9662TIP3    H250478   0.311   3.831  16.184 -0.0033 -0.5578  1.7848
 9663TIP3   OH250479   2.358   1.879  15.192 -0.1446  0.1727 -0.1739
 9663TIP3    H150480   2.350   1.952  15.254 -0.1643  0.3632 -0.4003
 9663TIP3    H250481   2.330   1.802  15.242  0.2529  0.2599  0.1863
 9664TIP3   OH250482   4.209   0.415   3.637  0.5260  0.3422  0.0950
 9664TIP3    H150483   4.264   0.346   3.600  2.0263  2.0033 -0.8348
 9664TIP3    H250484   4.236   0.421   3.729  0.0997 -0.5808  0.2817
 9665TIP3   OH250485   1.827   2.824  12.590  0.0888 -0.1839 -0.0234
 9665TIP3    H150486   1.744   2.856  12.624  1.3367  1.4856  1.5810
 9665TIP3    H250487   1.863   2.897  12.540  0.2901 -1.1168 -1.2521
 9666TIP3   OH250488   6.791   3.114   3.093 -0.2856 -0.2058 -0.5091
 9666TIP3    H150489   6.798   3.193   3.147 -1.6499  0.8402 -1.8305
 9666TIP3    H250490   6.876   3.106   3.050  0.2799 -0.1733  0.5932
 9667TIP3   OH250491   2.911   0.602  15.383 -0.2711 -0.2659  0.0789
 9667TIP3    H150492   2.923   0.646  15.299 -1.5621 -0.6852 -0.3431
 9667TIP3    H250493   2.937   0.667  15.449 -0.9709  0.6940 -0.5779
 9668TIP3   OH250494   3.263   4.108   1.486 -0.0690  0.1648 -0.1673
 9668TIP3    H150495   3.293   4.078   1.571  1.7538  1.6249 -0.2623
 9668TIP3    H250496   3.202   4.040   1.456  0.5942 -1.1987  1.5305
 9669TIP3   OH250497   2.092   4.637  10.611  0.8297 -0.3127  0.2288
 9669TIP3    H150498   2.136   4.552  10.604  0.8021 -0.6036  3.1294
 9669TIP3    H250499   1.999   4.616  10.600  0.9740 -0.4006 -0.8557
 9670TIP3   OH250500   4.456   3.009  12.494  0.3063  0.1122  0.2144
 9670TIP3    H150501   4.551   3.003  12.498  0.2383 -0.7358  0.6857
 9670TIP3    H250502   4.429   2.933  12.443 -0.1099  0.4321 -0.0446
 9671TIP3   OH250503   5.897   5.889   5.818  0.0785 -0.3519  0.5039
 9671TIP3    H150504   5.921   5.798   5.835  0.2418 -0.4427 -0.1701
 9671TIP3    H250505   5.921   5.903   5.726 -0.1477  0.3047  0.5398
 9672TIP3   OH250506   3.959   6.069   5.218 -0.2235  0.4523 -0.5641
 9672TIP3    H150507   3.915   6.032   5.295 -0.8944 -0.0028 -1.1592
 9672TIP3    H250508   3.973   5.993   5.161  2.6787  0.3155  0.2433
 9673TIP3   OH250509   2.735   0.476   5.833 -0.3041 -0.1919  0.8131
 9673TIP3    H150510   2.757   0.401   5.887  4.2246  0.7223  0.4210
 9673TIP3    H250511   2.688   0.535   5.892  1.8781 -0.5208  2.9421
 9674TIP3   OH250512   1.739   5.191  16.093  0.2991  0.5159  0.3865
 9674TIP3    H150513   1.717   5.105  16.058  1.0691  0.7108 -0.6159
 9674TIP3    H250514   1.775   5.173  16.180 -0.9404 -0.0376  0.7984
 9675TIP3   OH250515   0.503   5.925   1.014 -0.2790  0.4642  0.2540
 9675TIP3    H150516   0.553   5.851   1.048 -1.2731 -0.6679 -0.7062
 9675TIP3    H250517   0.568   5.995   1.004  0.3589  0.2855  2.7586
 9676TIP3   OH250518   4.720   2.369   1.985 -0.7605  0.4886  0.4419
 9676TIP3    H150519   4.802   2.384   2.032 -0.1254  1.4392 -0.9337
 9676TIP3    H250520   4.651   2.398   2.045 -0.1138 -0.5095  1.6849
 9677TIP3   OH250521   6.145   3.260   6.181 -0.7789  0.3599 -0.4497
 9677TIP3    H150522   6.057   3.298   6.184 -0.1899  1.6146  2.7461
 9677TIP3    H250523   6.147   3.212   6.098 -3.7474  2.0087 -1.5764
 9678TIP3   OH250524   4.794   5.951  16.965 -0.0412  0.1499  0.8150
 9678TIP3    H150525   4.791   5.910  16.878 -2.3647 -1.1882  1.4853
 9678TIP3    H250526   4.861   6.020  16.956  0.8892 -0.9802 -1.5611
 9679TIP3   OH250527   4.840   1.183   2.500  0.3642  0.5824 -0.0464
 9679TIP3    H150528   4.862   1.217   2.586  0.0532 -0.8667  0.6248
 9679TIP3    H250529   4.755   1.220   2.480 -0.0501  0.0801  0.7550
 9680TIP3   OH250530   2.398   1.225   0.517  0.3209  0.2773 -0.4236
 9680TIP3    H150531   2.400   1.308   0.565  0.5475  0.4748 -0.7730
 9680TIP3    H250532   2.466   1.172   0.559  1.3307  0.8765 -1.2879
 9681TIP3   OH250533   5.175   0.673  10.654  0.3351  0.0768  0.1755
 9681TIP3    H150534   5.127   0.620  10.590  0.6871  0.2496 -0.2342
 9681TIP3    H250535   5.234   0.611  10.696  3.1084  0.7240 -2.5913
 9682TIP3   OH250536   6.526   5.150  17.078 -0.2947  0.3425  0.0274
 9682TIP3    H150537   6.612   5.180  17.107  1.0753 -1.3590 -2.0514
 9682TIP3    H250538   6.534   5.144  16.983 -2.7024  0.0743 -0.1905
 9683TIP3   OH250539   0.926   6.428  15.305 -0.3682  0.2532 -0.0818
 9683TIP3    H150540   0.963   6.342  15.285  0.3407  0.9896 -2.1439
 9683TIP3    H250541   0.842   6.430  15.259 -0.0623  0.8974 -0.6372
 9684TIP3   OH250542   3.363   6.358   5.775  0.0386  0.4594 -0.3516
 9684TIP3    H150543   3.377   6.443   5.817  0.0075  0.8201 -1.0585
 9684TIP3    H250544   3.358   6.296   5.847 -0.8746  1.1865  0.2203
 9685TIP3   OH250545   1.463   6.357   3.092 -0.0724  0.4108  0.0857
 9685TIP3    H150546   1.523   6.425   3.123  0.3953 -0.0325  0.1563
 9685TIP3    H250547   1.381   6.374   3.139  0.8990 -0.8334  2.3082
 9686TIP3   OH250548   1.192   4.485   0.528  0.7790 -0.1254 -0.3923
 9686TIP3    H150549   1.123   4.446   0.582  1.4938 -1.6580 -0.5484
 9686TIP3    H250550   1.273   4.448   0.563  1.3462 -0.0633 -1.6108
 9687TIP3   OH250551   0.103   2.908  16.094  0.1308  0.6607  0.2255
 9687TIP3    H150552   0.011   2.914  16.122  0.2102 -1.1382  0.9884
 9687TIP3    H250553   0.098   2.901  15.999 -0.7865 -2.6458  0.4442
 9688TIP3   OH250554   4.557   3.620   2.828  0.1012  0.4392 -0.0172
 9688TIP3    H150555   4.598   3.534   2.819 -1.1067 -0.1543 -0.0363
 9688TIP3    H250556   4.611   3.666   2.892 -0.0548 -0.8635  1.0865
 9689TIP3   OH250557   1.431   1.261  11.292  0.0615 -0.0468 -0.4628
 9689TIP3    H150558   1.464   1.171  11.289 -3.4978 -1.4271 -0.2305
 9689TIP3    H250559   1.431   1.289  11.201 -0.6596 -0.9964 -0.7652
 9690TIP3   OH250560   6.199   1.939  10.989  0.0502 -0.7583  0.0569
 9690TIP3    H150561   6.252   1.871  11.029 -2.6061 -1.0288  3.3494
 9690TIP3    H250562   6.187   2.004  11.057 -2.2413  0.1659 -1.1527
 9691TIP3   OH250563   3.108   0.616   2.747  0.3374 -0.0263 -0.1895
 9691TIP3    H150564   3.161   0.617   2.668 -0.3015 -1.9768 -0.6831
 9691TIP3    H250565   3.022   0.647   2.719  0.8574  1.9299  0.3418
 9692TIP3   OH250566   1.436   3.170   1.835 -0.6631  0.6532 -0.1252
 9692TIP3    H150567   1.355   3.120   1.834 -0.8725  0.9844  0.0042
 9692TIP3    H250568   1.504   3.106   1.855 -0.8035  0.2552 -0.9079
 9693TIP3   OH250569   5.957   1.464   0.674  0.6837 -0.3304 -0.2228
 9693TIP3    H150570   5.929   1.374   0.691  1.9318 -0.3730  1.8075
 9693TIP3    H250571   5.876   1.514   0.668  0.0284 -1.3453  0.1345
 9694TIP3   OH250572   3.557   0.591  12.268 -0.0727 -0.5235 -0.9626
 9694TIP3    H150573   3.622   0.572  12.336 -2.3162  0.4632  1.5277
 9694TIP3    H250574   3.537   0.506  12.229  1.4312 -1.0628 -0.5854
 9695TIP3   OH250575   2.907   5.981  10.591  0.6513 -0.0334 -0.2071
 9695TIP3    H150576   2.850   6.058  10.594 -1.2598 -1.4901  3.4689
 9695TIP3    H250577   2.879   5.934  10.513 -1.8042  0.3448  0.4011
 9696TIP3   OH250578   5.934   3.213  10.818 -1.1532 -0.3337 -0.1214
 9696TIP3    H150579   5.996   3.173  10.758 -0.8694  0.6409 -0.4844
 9696TIP3    H250580   5.933   3.155  10.894  0.7437  0.0305  0.1915
 9697TIP3   OH250581   3.089   5.022  13.601  0.3078 -0.4627  0.0515
 9697TIP3    H150582   3.128   5.049  13.684  0.2424 -0.0864 -0.0416
 9697TIP3    H250583   3.032   5.094  13.576 -1.1280 -1.3883  0.6129
 9698TIP3   OH250584   2.841   2.761  11.879 -0.1655 -0.0601  0.1541
 9698TIP3    H150585   2.763   2.715  11.849  0.5045 -0.3541 -1.1490
 9698TIP3    H250586   2.811   2.810  11.956 -1.9503  0.8560 -1.0752
 9699TIP3   OH250587   3.327   1.806   4.175 -0.3909  0.1530  0.0559
 9699TIP3    H150588   3.303   1.826   4.084  1.2868 -0.6236 -0.5559
 9699TIP3    H250589   3.321   1.891   4.219  1.5596  1.1047 -1.4084
 9700TIP3   OH250590   4.238   4.659  13.349  0.7924 -0.1000 -0.3671
 9700TIP3    H150591   4.291   4.617  13.282 -0.1354 -1.7870 -0.0779
 9700TIP3    H250592   4.231   4.594  13.419  0.3999  1.0215  0.6538
 9701TIP3   OH250593   3.713   0.229   3.318  0.4489  0.6625 -0.2036
 9701TIP3    H150594   3.655   0.299   3.347 -0.1387 -0.9199  2.5946
 9701TIP3    H250595   3.679   0.150   3.360  2.0500 -1.0543 -1.9994
 9702TIP3   OH250596   1.078   3.698  16.466 -0.0374 -0.1267  0.0223
 9702TIP3    H150597   1.104   3.717  16.557 -2.8893  0.2705  0.7854
 9702TIP3    H250598   1.001   3.643  16.474 -1.0485  0.9107 -2.1724
 9703TIP3   OH250599   6.291   4.644  16.867 -0.2589 -0.4350 -0.3446
 9703TIP3    H150600   6.324   4.584  16.933 -0.2416  0.5167  0.5214
 9703TIP3    H250601   6.199   4.656  16.888  0.2402  1.5726  0.8572
 9704TIP3   OH250602   1.403   4.171   1.759 -0.2726  0.0594 -0.0498
 9704TIP3    H150603   1.422   4.256   1.799  1.5292  0.2316 -1.2188
 9704TIP3    H250604   1.489   4.131   1.744 -1.0734 -1.8130  0.1218
 9705TIP3   OH250605   5.713   0.754   4.395 -0.1624 -0.1130  0.0582
 9705TIP3    H150606   5.715   0.836   4.445  0.6428 -0.1062  0.0155
 9705TIP3    H250607   5.794   0.709   4.419  0.6241  0.2405 -1.8456
 9706TIP3   OH250608   0.763   2.888   4.842  0.1253 -0.0108  0.2156
 9706TIP3    H150609   0.780   2.819   4.906  0.3640 -0.1945 -0.0412
 9706TIP3    H250610   0.704   2.948   4.886  0.6723  0.1179  0.7801
 9707TIP3   OH250611   1.196   5.187  15.576  0.3668  0.3270 -0.3382
 9707TIP3    H150612   1.216   5.094  15.574 -0.4135  0.1764 -0.8427
 9707TIP3    H250613   1.243   5.224  15.501 -1.1809 -0.0200 -1.4921
 9708TIP3   OH250614   3.134   1.074   1.304  0.2087  0.1033 -0.2995
 9708TIP3    H150615   3.074   1.139   1.267 -0.8892 -1.1939 -0.8357
 9708TIP3    H250616   3.195   1.125   1.357 -1.0327  1.5053 -0.1940
 9709TIP3   OH250617   4.448   5.482   4.066 -0.1542  0.0603  0.3943
 9709TIP3    H150618   4.455   5.495   3.972  2.9435 -1.2754  0.3525
 9709TIP3    H250619   4.369   5.529   4.092  0.7577  3.3197 -2.3588
 9710TIP3   OH250620   3.331   6.263   5.288 -0.8393 -0.1502 -0.1271
 9710TIP3    H150621   3.321   6.253   5.383  2.1379  1.3256  0.3886
 9710TIP3    H250622   3.307   6.354   5.271 -0.6993 -0.2220 -0.7206
 9711TIP3   OH250623   0.173   2.045  12.555  0.4590 -0.5093  0.3836
 9711TIP3    H150624   0.195   2.117  12.497 -1.4827 -0.5224 -0.4235
 9711TIP3    H250625   0.177   1.967  12.500 -1.5490 -0.5016  0.1708
 9712TIP3   OH250626   4.008   1.446   4.579 -0.6783 -0.0219  0.4735
 9712TIP3    H150627   3.969   1.416   4.497 -2.6510  1.1744  0.9499
 9712TIP3    H250628   4.020   1.540   4.566 -0.0697  0.0043  1.2056
 9713TIP3   OH250629   0.904   5.788  12.533 -0.2778  0.3267  0.3473
 9713TIP3    H150630   0.936   5.703  12.562  1.0676  1.0171  0.9189
 9713TIP3    H250631   0.813   5.792  12.565 -0.1844 -0.6714  0.7548
 9714TIP3   OH250632   4.746   1.285  16.366 -1.0041  0.0160 -0.0109
 9714TIP3    H150633   4.841   1.269  16.368 -1.0280  0.0134  1.9979
 9714TIP3    H250634   4.737   1.379  16.379 -1.2651  0.2165 -1.4581
 9715TIP3   OH250635   0.787   6.541   5.582  0.0793  0.6143 -0.3759
 9715TIP3    H150636   0.828   6.598   5.646  1.6954 -1.1197  0.1880
 9715TIP3    H250637   0.760   6.599   5.511 -0.6770  2.3902  1.3514
 9716TIP3   OH250638   2.559   0.449  14.956 -0.1050 -0.0099  0.6361
 9716TIP3    H150639   2.571   0.538  14.924 -0.1330 -0.7280 -1.4973
 9716TIP3    H250640   2.602   0.447  15.041 -0.0819  2.0245  0.6899
 9717TIP3   OH250641   1.467   0.665  12.590 -0.0440  0.6174 -0.0932
 9717TIP3    H150642   1.560   0.659  12.569  0.2747  1.4476  1.0077
 9717TIP3    H250643   1.444   0.578  12.622  0.2654  0.2965 -0.7420
 9718TIP3   OH250644   1.233   3.326   2.475 -0.2155  0.0372  0.0915
 9718TIP3    H150645   1.235   3.306   2.382 -1.6092 -1.3970  0.3283
 9718TIP3    H250646   1.315   3.292   2.509  0.1992  0.3653 -0.5738
 9719TIP3   OH250647   6.392   2.857   2.900  0.0436  0.0642  0.4637
 9719TIP3    H150648   6.366   2.876   2.990  1.9352  0.9993  0.8394
 9719TIP3    H250649   6.488   2.865   2.900  0.1001 -0.2200 -1.5579
 9720TIP3   OH250650   4.382   4.047   1.193  0.3904  0.2955  0.0772
 9720TIP3    H150651   4.358   4.135   1.165 -1.3838 -0.3295 -0.4458
 9720TIP3    H250652   4.302   4.010   1.229  0.5383 -1.8461 -1.6628
 9721TIP3   OH250653   3.056   5.596  13.384 -0.7233 -0.0821  0.1746
 9721TIP3    H150654   3.100   5.526  13.335  0.8574  0.8486  0.2161
 9721TIP3    H250655   3.035   5.662  13.317 -0.1655  0.3946  0.4603
 9722TIP3   OH250656   3.615   5.972   4.820 -0.2723 -0.0382 -0.3075
 9722TIP3    H150657   3.682   5.932   4.875 -0.4984  1.8069  1.3935
 9722TIP3    H250658   3.535   5.922   4.838 -0.2768  0.3725  0.8602
 9723TIP3   OH250659   5.130   2.633   4.986  0.4174 -0.1333 -0.3533
 9723TIP3    H150660   5.218   2.655   4.956  1.3241 -1.0847  1.4757
 9723TIP3    H250661   5.090   2.717   5.006  1.0956  0.2862 -0.7219
 9724TIP3   OH250662   6.020   5.061   1.581  0.1628  0.6309  0.4085
 9724TIP3    H150663   5.992   5.034   1.494 -0.3710 -0.1720  0.8231
 9724TIP3    H250664   5.941   5.097   1.622  0.0273 -0.4263  1.1080
 9725TIP3   OH250665   5.944   6.433   3.347 -0.6305 -0.5017  0.1013
 9725TIP3    H150666   5.872   6.496   3.349  1.3739  1.9387 -1.7212
 9725TIP3    H250667   5.980   6.435   3.436 -0.7833  0.7679  0.1527
 9726TIP3   OH250668   5.123   1.637  15.045  0.4777 -0.3674  0.0315
 9726TIP3    H150669   5.151   1.709  14.988 -2.2159 -0.7148 -1.8214
 9726TIP3    H250670   5.132   1.558  14.992  2.4828 -1.3340  1.7275
 9727TIP3   OH250671   4.140   2.930  11.973 -0.5257 -0.1431  0.4064
 9727TIP3    H150672   4.109   2.864  11.912  0.8751 -0.5714  0.1574
 9727TIP3    H250673   4.141   2.886  12.058  1.8489 -0.9003 -0.0040
 9728TIP3   OH250674   6.017   4.917   4.640  0.0737  0.5505 -0.1611
 9728TIP3    H150675   5.962   4.981   4.596 -0.7094 -1.0729 -1.6124
 9728TIP3    H250676   6.105   4.932   4.607  0.0782  1.5397  0.2932
 9729TIP3   OH250677   4.544   4.703  14.414 -0.3680 -0.1748 -0.1347
 9729TIP3    H150678   4.531   4.623  14.463  1.2454 -0.9699 -0.9579
 9729TIP3    H250679   4.480   4.765  14.451 -0.0877 -1.1313  2.0519
 9730TIP3   OH250680   6.381   2.284  14.819  0.2121 -0.1186 -0.2253
 9730TIP3    H150681   6.395   2.191  14.803 -0.8225 -0.3965  0.4590
 9730TIP3    H250682   6.409   2.297  14.909  0.6535  0.2961 -0.4231
 9731TIP3   OH250683   0.337   1.034   3.339  0.3006  0.4185  0.5712
 9731TIP3    H150684   0.251   1.058   3.304 -0.9415 -0.7499  2.7045
 9731TIP3    H250685   0.321   0.956   3.391  2.5483  0.5689  1.5590
 9732TIP3   OH250686   0.389   0.013  15.337  0.4530  0.2513 -0.3017
 9732TIP3    H150687   0.323  -0.035  15.386  0.0773  1.7344  0.7046
 9732TIP3    H250688   0.358   0.104  15.338  1.5544  0.6566 -1.4310
 9733TIP3   OH250689   2.561   0.845   2.820 -1.0596  0.6998  0.1248
 9733TIP3    H150690   2.542   0.755   2.794 -0.7403  0.9098 -0.8230
 9733TIP3    H250691   2.654   0.856   2.804 -0.5183  0.3850  2.6996
 9734TIP3   OH250692   6.319   3.418   3.339 -0.8954  0.0151 -0.3533
 9734TIP3    H150693   6.298   3.399   3.248  2.0895  1.1751 -1.3331
 9734TIP3    H250694   6.292   3.510   3.351 -1.5537 -0.2248  0.0241
 9735TIP3   OH250695   6.636   0.294  13.709  0.3704  0.0780 -0.1843
 9735TIP3    H150696   6.552   0.251  13.691  0.4396  0.7698 -2.3223
 9735TIP3    H250697   6.688   0.227  13.752 -0.7718 -0.8494 -0.2061
 9736TIP3   OH250698   5.428   1.952  14.057 -0.5682  0.2241 -0.2815
 9736TIP3    H150699   5.370   2.027  14.066  0.5038  1.1861 -1.2244
 9736TIP3    H250700   5.472   1.966  13.973  1.1946 -0.3699  0.5241
 9737TIP3   OH250701   3.556   1.710   3.942 -0.4369 -0.2249  0.5142
 9737TIP3    H150702   3.554   1.654   3.864 -2.8599  0.0498  0.3465
 9737TIP3    H250703   3.476   1.761   3.937  0.5327  1.5001  1.9838
 9738TIP3   OH250704   5.794   0.519  16.563 -0.2151 -0.8058  0.1746
 9738TIP3    H150705   5.778   0.438  16.611  2.1078 -1.3806  0.0386
 9738TIP3    H250706   5.799   0.587  16.631 -0.4490 -1.0463  0.4315
 9739TIP3   OH250707   5.669   5.096  16.970 -0.5865  0.4135 -0.0875
 9739TIP3    H150708   5.607   5.099  16.897  0.4154  0.0538 -0.9627
 9739TIP3    H250709   5.739   5.156  16.944 -0.2139  0.2666  0.5650
 9740TIP3   OH250710   6.104   4.945  16.435  0.0939 -0.0448 -0.3581
 9740TIP3    H150711   6.063   4.905  16.511 -0.5896 -0.6014 -1.0079
 9740TIP3    H250712   6.040   4.933  16.364 -0.2303  2.3609 -0.5321
 9741TIP3   OH250713   3.463   5.359   5.505  0.0322 -0.3495  0.0207
 9741TIP3    H150714   3.555   5.363   5.479  0.3667 -0.5899  1.1202
 9741TIP3    H250715   3.466   5.344   5.600 -1.1094  2.2241  0.5020
 9742TIP3   OH250716   3.487   4.585  13.203 -0.5515  0.1201 -0.0969
 9742TIP3    H150717   3.463   4.493  13.192  0.8041 -0.2477 -0.0425
 9742TIP3    H250718   3.577   4.590  13.172 -0.0510  1.0963  1.4634
 9743TIP3   OH250719   0.608   6.560   1.224 -0.2350 -0.2649  0.8963
 9743TIP3    H150720   0.672   6.626   1.195  0.4538 -1.9977 -1.7024
 9743TIP3    H250721   0.525   6.607   1.227  0.6128  1.2535  1.2256
 9744TIP3   OH250722   6.535   6.152   1.851  0.4987  0.2399  0.0954
 9744TIP3    H150723   6.577   6.113   1.774  2.3835  1.9241  0.2229
 9744TIP3    H250724   6.478   6.219   1.815 -0.6979 -0.7851  0.0374
 9745TIP3   OH250725   1.580   4.000   6.258  0.0115 -0.8303  0.3319
 9745TIP3    H150726   1.513   3.960   6.313  0.8441 -2.1163  0.4337
 9745TIP3    H250727   1.658   3.947   6.273  1.6676  1.9144  1.8718
 9746TIP3   OH250728   2.581   6.034  13.121  0.1312  0.5160 -0.0257
 9746TIP3    H150729   2.676   6.032  13.134  0.1533  0.1407 -0.2260
 9746TIP3    H250730   2.553   6.114  13.165  0.6567  1.1282 -0.7932
 9747TIP3   OH250731   0.710   0.959  11.510  0.9416  0.2336  0.0140
 9747TIP3    H150732   0.690   0.970  11.603 -1.8621 -0.6750 -0.4244
 9747TIP3    H250733   0.728   0.866  11.500  0.8511  0.2648 -0.4297
 9748TIP3   OH250734   2.211   1.279  14.647 -0.1589  0.4130 -0.3539
 9748TIP3    H150735   2.191   1.347  14.711 -0.3262  0.5102 -0.5103
 9748TIP3    H250736   2.190   1.318  14.563 -0.0233  0.2522 -0.4625
 9749TIP3   OH250737   4.370   4.141   3.855  0.1053 -0.0930 -0.0490
 9749TIP3    H150738   4.387   4.123   3.947 -1.4288 -0.3066  0.2126
 9749TIP3    H250739   4.456   4.154   3.816  0.8358 -1.1721  1.1753
 9750TIP3   OH250740   6.399   1.756  16.224 -0.2590 -0.1227  0.3860
 9750TIP3    H150741   6.447   1.691  16.276 -0.9814 -0.5202  0.5520
 9750TIP3    H250742   6.335   1.793  16.284 -1.2690 -0.7700 -0.2790
 9751TIP3   OH250743   1.521   3.124   6.231  0.3447  0.5876 -0.2909
 9751TIP3    H150744   1.534   3.219   6.220 -0.1523  0.5087 -1.6749
 9751TIP3    H250745   1.455   3.102   6.166 -0.4335 -0.5157  0.8466
 9752TIP3   OH250746   4.988   0.058   5.659  0.1729  0.0621 -0.0178
 9752TIP3    H150747   5.076   0.052   5.621  0.0052  0.4496 -0.4759
 9752TIP3    H250748   4.929   0.045   5.585 -0.1608 -1.1446  0.4485
 9753TIP3   OH250749   5.711   2.259   3.789  0.7043  0.1113 -0.3694
 9753TIP3    H150750   5.734   2.241   3.880 -1.7960 -2.5746 -0.1991
 9753TIP3    H250751   5.781   2.220   3.738  2.4717  2.2261  0.3771
 9754TIP3   OH250752   0.249   1.633   0.940  0.0176  0.4087 -0.3628
 9754TIP3    H150753   0.157   1.635   0.911 -0.5227 -0.4232  1.2766
 9754TIP3    H250754   0.253   1.697   1.011  0.6182  0.1358 -0.1479
 9755TIP3   OH250755   0.903   0.108  15.908  0.0476 -0.2977 -0.3944
 9755TIP3    H150756   0.879   0.198  15.887 -0.3157 -0.4016 -0.4196
 9755TIP3    H250757   0.894   0.060  15.826  1.4602 -0.1049 -0.6795
 9756TIP3   OH250758   1.772   1.467   3.767 -0.1797 -0.1131 -0.0902
 9756TIP3    H150759   1.737   1.430   3.687  0.6673 -1.5797  0.1931
 9756TIP3    H250760   1.867   1.462   3.757 -0.0613  0.1299  0.7987
 9757TIP3   OH250761   6.223   1.205   1.563 -0.4173 -0.4066  0.2311
 9757TIP3    H150762   6.274   1.226   1.642  0.1662  1.2298 -0.5510
 9757TIP3    H250763   6.135   1.190   1.595 -0.2904  0.7295  1.1783
 9758TIP3   OH250764   2.362   3.260  14.894 -0.3829 -0.5681  0.0071
 9758TIP3    H150765   2.434   3.208  14.929 -0.7241 -0.9094  0.1960
 9758TIP3    H250766   2.350   3.227  14.805  1.0451  0.8706 -0.7445
 9759TIP3   OH250767   4.131   3.978  13.389  0.3528  0.2193  0.1301
 9759TIP3    H150768   4.049   4.026  13.372 -0.7445 -1.6451  0.0076
 9759TIP3    H250769   4.152   3.999  13.480 -1.3479 -0.8402  0.7894
 9760TIP3   OH250770   3.050   6.006   0.189 -0.8799 -0.4318 -0.5173
 9760TIP3    H150771   3.131   5.960   0.169 -0.8300 -0.2665 -0.6961
 9760TIP3    H250772   3.008   6.018   0.104 -1.9135 -2.0438 -0.2550
 9761TIP3   OH250773   0.056   5.268  11.346  0.2761 -0.5824  0.6257
 9761TIP3    H150774   0.053   5.332  11.274 -2.3810 -3.3890 -1.9253
 9761TIP3    H250775  -0.030   5.274  11.387  0.3527 -1.7800  0.9901
 9762TIP3   OH250776   6.491   3.456  16.407  0.0634 -0.0352 -0.3738
 9762TIP3    H150777   6.404   3.423  16.386 -0.1641  0.8152 -0.7834
 9762TIP3    H250778   6.546   3.378  16.410 -0.9515 -0.7240  1.1398
 9763TIP3   OH250779   4.662   0.787   0.487  0.2451 -0.5819 -0.0560
 9763TIP3    H150780   4.584   0.772   0.433 -0.3891 -1.0009  0.9640
 9763TIP3    H250781   4.662   0.714   0.549 -0.4229  1.2304  2.1319
 9764TIP3   OH250782   5.265   1.654  16.714  0.1711  0.0428 -0.3499
 9764TIP3    H150783   5.172   1.677  16.711 -0.0030 -0.7036 -0.8955
 9764TIP3    H250784   5.280   1.628  16.805 -0.3858 -0.7573 -0.4791
 9765TIP3   OH250785   3.256   1.966   1.827  0.4794 -0.0447  0.0421
 9765TIP3    H150786   3.338   1.971   1.777  1.7268  1.2745  2.1523
 9765TIP3    H250787   3.206   1.896   1.785  2.2404 -0.1430 -1.9370
 9766TIP3   OH250788   2.980   5.381  11.933 -0.3449  0.0026  0.2024
 9766TIP3    H150789   2.985   5.421  12.020  0.1543  1.3786 -0.4416
 9766TIP3    H250790   2.909   5.428  11.890  0.4181  0.3700 -0.6578
 9767TIP3   OH250791   3.916   4.527  11.114  0.1746  0.0170  0.3319
 9767TIP3    H150792   3.914   4.622  11.124 -2.2647  0.1265 -0.9147
 9767TIP3    H250793   3.933   4.513  11.021 -0.4957 -0.7466  0.3167
 9768TIP3   OH250794   1.035   1.694  15.711  0.0972 -0.1906 -0.2743
 9768TIP3    H150795   1.040   1.694  15.615 -3.5569 -0.9867 -0.5238
 9768TIP3    H250796   0.992   1.612  15.734 -0.8605  0.8593  1.9052
 9769TIP3   OH250797   5.770   1.098   5.327 -0.5588 -0.3850 -0.0476
 9769TIP3    H150798   5.768   1.017   5.276  0.5231 -2.5562  3.1590
 9769TIP3    H250799   5.685   1.102   5.371  0.1631 -0.9459  1.4450
 9770TIP3   OH250800   6.793   3.392   0.941 -0.2321 -0.0633  0.1454
 9770TIP3    H150801   6.857   3.323   0.928 -0.5771 -0.2620 -0.5297
 9770TIP3    H250802   6.751   3.403   0.855 -1.0558  0.1037  0.5590
 9771TIP3   OH250803   5.430   4.801  14.054 -0.0696 -0.4134 -0.1458
 9771TIP3    H150804   5.443   4.887  14.014  2.0913 -1.8183 -2.5863
 9771TIP3    H250805   5.484   4.803  14.133 -1.0337  0.8829  0.5051
 9772TIP3   OH250806   0.640   6.330  12.819  0.6099 -0.0761 -0.2945
 9772TIP3    H150807   0.708   6.277  12.778  1.4250 -0.8418  1.9738
 9772TIP3    H250808   0.649   6.313  12.913 -2.3451  0.2513  0.1057
 9773TIP3   OH250809   4.529   4.887   4.098 -0.7190  0.5570  0.0519
 9773TIP3    H150810   4.477   4.883   4.178 -1.1635  3.3160 -0.0593
 9773TIP3    H250811   4.596   4.953   4.117  2.2973 -2.3316 -0.0960
 9774TIP3   OH250812   1.088   1.596   5.315 -0.1085 -0.6151  0.3244
 9774TIP3    H150813   1.162   1.655   5.328 -1.2078  0.7959  0.3559
 9774TIP3    H250814   1.124   1.521   5.267  1.3221  0.0425  0.3558
 9775TIP3   OH250815   3.044   0.356   6.263  0.9054  0.0721 -0.3809
 9775TIP3    H150816   2.967   0.300   6.265  1.5937 -0.8884  0.0204
 9775TIP3    H250817   3.010   0.445   6.266 -0.1849 -0.3382 -0.3979
 9776TIP3   OH250818   1.439   5.815   2.532 -0.2714  0.1785 -0.0089
 9776TIP3    H150819   1.423   5.838   2.441  1.9974 -1.0704 -0.7583
 9776TIP3    H250820   1.534   5.817   2.542 -0.5436  2.0439  2.8202
 9777TIP3   OH250821   5.385   1.501   0.696 -0.1509  0.1635  0.7713
 9777TIP3    H150822   5.304   1.552   0.702  0.5608  1.3289  0.6023
 9777TIP3    H250823   5.382   1.462   0.608  1.1513  3.1045 -0.6323
 9778TIP3   OH250824   2.195   1.963   5.327  0.6571  0.2233 -0.1637
 9778TIP3    H150825   2.180   1.896   5.260 -0.3415  0.9595 -0.6995
 9778TIP3    H250826   2.217   1.914   5.406  0.3644 -0.7140 -0.6518
 9779TIP3   OH250827   0.978   6.359  15.980 -0.0537 -0.2395  0.1476
 9779TIP3    H150828   1.009   6.305  15.907  0.0662 -0.3874  0.3102
 9779TIP3    H250829   0.911   6.306  16.022  0.6842 -0.6176  0.8455
 9780TIP3   OH250830   3.595   6.143  11.214 -0.4448  0.1765 -0.2271
 9780TIP3    H150831   3.513   6.192  11.221  0.3506  1.4272  0.4211
 9780TIP3    H250832   3.663   6.210  11.211  0.5182 -0.8296 -1.4781
 9781TIP3   OH250833   0.422   1.363   0.551  0.3460 -0.5711 -0.1464
 9781TIP3    H150834   0.396   1.419   0.624  1.2151  0.4952 -0.6362
 9781TIP3    H250835   0.457   1.424   0.486  1.3836 -1.6843 -0.6485
 9782TIP3   OH250836   6.449   5.180   0.063 -0.3546 -0.0074 -0.3346
 9782TIP3    H150837   6.516   5.131   0.111 -0.4750  0.2765  0.1234
 9782TIP3    H250838   6.459   5.151  -0.028 -0.4908 -0.9564 -0.0491
 9783TIP3   OH250839   4.542   4.619  11.642 -0.0884  0.0385 -0.3153
 9783TIP3    H150840   4.514   4.649  11.728  0.6349 -0.5408  0.1265
 9783TIP3    H250841   4.626   4.663  11.627  1.4768 -2.4399  0.7627
 9784TIP3   OH250842   2.650   2.535   0.971 -0.0726 -0.3674 -0.3006
 9784TIP3    H150843   2.630   2.601   1.038  1.2708 -2.5270  2.2757
 9784TIP3    H250844   2.745   2.529   0.970 -0.1650 -1.9591 -0.8598
 9785TIP3   OH250845   1.593   2.157  13.222 -0.2397  0.2424  0.2493
 9785TIP3    H150846   1.647   2.233  13.242 -1.5161  1.0226  0.8147
 9785TIP3    H250847   1.517   2.193  13.176 -0.0821 -0.8835 -0.9364
 9786TIP3   OH250848   5.118   5.395  16.746  0.3382  0.4515  0.3865
 9786TIP3    H150849   5.073   5.311  16.760  0.5080  0.1977 -0.5650
 9786TIP3    H250850   5.190   5.394  16.809 -2.3057  1.8845  3.6377
 9787TIP3   OH250851   2.039   3.691  17.004 -0.3506  0.4763  0.5843
 9787TIP3    H150852   2.007   3.697  17.094 -1.9928  3.1223 -0.1189
 9787TIP3    H250853   2.063   3.781  16.982 -0.9322  0.0264 -1.9799
 9788TIP3   OH250854   6.440   0.011  16.151 -0.2524  0.0539  0.3901
 9788TIP3    H150855   6.503  -0.019  16.086  0.0584  0.0236  0.7031
 9788TIP3    H250856   6.355  -0.006  16.111 -0.0630  1.7225 -0.7731
 9789TIP3   OH250857   3.039   3.642  13.356  0.0943  0.6458 -0.2746
 9789TIP3    H150858   3.124   3.680  13.331  1.4898 -2.0189  0.2044
 9789TIP3    H250859   3.061   3.576  13.422 -2.1642 -1.3314 -1.4235
 9790TIP3   OH250860   3.741   4.065   0.309  0.5194  0.5529  0.0546
 9790TIP3    H150861   3.647   4.055   0.320  0.5497 -1.3799 -1.0664
 9790TIP3    H250862   3.776   4.072   0.398 -0.7010  1.5338  0.4538
 9791TIP3   OH250863   3.516   4.919  16.559  0.0600 -0.4048 -0.5378
 9791TIP3    H150864   3.431   4.887  16.589  0.5682 -0.5453  0.7998
 9791TIP3    H250865   3.496   4.972  16.481 -1.3070  0.0434  0.1024
 9792TIP3   OH250866   3.003   0.227   1.662  0.1605  0.4971  0.1384
 9792TIP3    H150867   3.002   0.235   1.567  0.0516  1.0784  0.1888
 9792TIP3    H250868   3.079   0.278   1.690  0.0779  0.4890  0.3772
 9793TIP3   OH250869   4.614   6.625   0.210 -0.2706  0.1008 -0.5242
 9793TIP3    H150870   4.677   6.668   0.267 -0.5565  0.5261 -0.5256
 9793TIP3    H250871   4.631   6.531   0.221 -0.7925  0.1525  0.7802
 9794TIP3   OH250872   6.473   0.360  16.970 -0.3177 -0.0332  0.5130
 9794TIP3    H150873   6.455   0.323  17.057 -1.8339  0.6341  0.5017
 9794TIP3    H250874   6.411   0.316  16.912  0.4060 -0.1722 -0.1708
 9795TIP3   OH250875   6.618   4.463  10.871 -0.2003 -0.3437 -0.1319
 9795TIP3    H150876   6.665   4.540  10.837 -2.5109  0.6519 -1.1950
 9795TIP3    H250877   6.609   4.405  10.796  0.4317 -1.0807  0.3661
 9796TIP3   OH250878   3.286   3.511  12.737  0.0878  0.2799  0.3072
 9796TIP3    H150879   3.348   3.504  12.664 -2.3048 -1.3153 -1.6610
 9796TIP3    H250880   3.303   3.432  12.790  0.8674  0.7239  0.7354
 9797TIP3   OH250881   4.649   3.262  16.278 -0.0367 -0.4260 -0.6296
 9797TIP3    H150882   4.723   3.276  16.218 -0.2632  1.1768 -0.5677
 9797TIP3    H250883   4.689   3.240  16.362  0.2947 -2.2896 -1.2415
 9798TIP3   OH250884   1.962   2.638  11.978 -0.5151  0.3240  0.5453
 9798TIP3    H150885   1.917   2.663  12.059 -0.4496  0.5269  0.5198
 9798TIP3    H250886   1.894   2.642  11.911 -0.7657 -0.6630  0.7325
 9799TIP3   OH250887   0.600   4.435  15.320 -0.1288 -0.0321  0.1601
 9799TIP3    H150888   0.608   4.487  15.399 -1.6611  1.7092 -0.7937
 9799TIP3    H250889   0.532   4.370  15.340 -0.8184  0.6787  0.1360
 9800TIP3   OH250890   4.343   6.286   3.555  0.1098 -0.1357  0.7007
 9800TIP3    H150891   4.266   6.314   3.505 -0.0499 -2.5779 -0.5246
 9800TIP3    H250892   4.381   6.367   3.588 -1.3175  1.3585 -1.1736
 9801TIP3   OH250893   6.237   4.870   4.167  0.6747  0.0100 -0.2167
 9801TIP3    H150894   6.263   4.859   4.258 -0.0017 -0.6995 -0.1018
 9801TIP3    H250895   6.276   4.953   4.140  2.5211 -0.7249  0.1308
 9802TIP3   OH250896   2.411   6.782  12.851  0.1138 -0.6885  0.0079
 9802TIP3    H150897   2.474   6.743  12.912  0.0070 -1.3588 -0.3025
 9802TIP3    H250898   2.331   6.793  12.902  0.1909 -0.7394  0.1390
 9803TIP3   OH250899   0.558   4.835   1.217 -0.3796  0.6137  1.1384
 9803TIP3    H150900   0.578   4.860   1.307 -1.5757 -0.2846  1.6751
 9803TIP3    H250901   0.497   4.762   1.225  0.6120 -0.4133 -0.4035
 9804TIP3   OH250902   0.128   1.552   5.149  0.4982 -0.4506 -0.9527
 9804TIP3    H150903   0.204   1.575   5.204  0.4582  1.5744 -1.6881
 9804TIP3    H250904   0.058   1.534   5.212  0.3184  2.3232 -0.2620
 9805TIP3   OH250905   4.127   5.400   4.283 -0.2771 -0.1227 -0.1575
 9805TIP3    H150906   4.182   5.429   4.210  0.3801 -0.1005  0.3463
 9805TIP3    H250907   4.049   5.455   4.278 -0.1184  0.0562 -0.6868
 9806TIP3   OH250908   1.544   0.174   0.984 -0.0552 -0.3234  0.2710
 9806TIP3    H150909   1.536   0.229   1.062 -0.6865  1.2401 -0.8909
 9806TIP3    H250910   1.618   0.116   1.004  0.4239  0.7240  1.6388
 9807TIP3   OH250911   0.218   4.164  15.947  0.0631  0.2965 -0.5505
 9807TIP3    H150912   0.191   4.219  15.873  0.8580  1.1130 -0.2423
 9807TIP3    H250913   0.214   4.223  16.022  0.1422 -0.2944 -0.0824
 9808TIP3   OH250914   2.565   2.255  13.022 -0.2545  0.8453  0.1722
 9808TIP3    H150915   2.635   2.190  13.026  1.6533  2.8412  0.2923
 9808TIP3    H250916   2.550   2.281  13.113 -1.9399 -0.3124  0.2680
 9809TIP3   OH250917   1.579   1.975   2.941  0.4682  0.1036 -0.0544
 9809TIP3    H150918   1.528   1.974   3.022  1.2335 -1.0133  0.4243
 9809TIP3    H250919   1.578   2.067   2.913  0.7071  0.6113  1.5483
 9810TIP3   OH250920   1.245   1.482  13.051  0.4450  0.3270  0.3869
 9810TIP3    H150921   1.311   1.541  13.089 -1.5833  1.7023  1.8709
 9810TIP3    H250922   1.162   1.527  13.064 -0.8977 -1.7329 -0.7599
 9811TIP3   OH250923   0.782   6.370   1.848 -0.1336  0.2206  0.0626
 9811TIP3    H150924   0.705   6.425   1.860 -1.7330 -1.7365 -0.8332
 9811TIP3    H250925   0.827   6.407   1.772 -1.3530  0.1087 -0.7124
 9812TIP3   OH250926   1.743   4.146  12.707  0.1901 -0.2617 -0.1101
 9812TIP3    H150927   1.829   4.104  12.698  0.9335  1.7204 -2.9114
 9812TIP3    H250928   1.682   4.085  12.665  0.2915 -1.4205  1.3980
 9813TIP3   OH250929   6.100   2.912   5.552  0.1170  0.5426  0.0210
 9813TIP3    H150930   6.140   2.981   5.499 -1.9384  2.2442  0.5927
 9813TIP3    H250931   6.157   2.904   5.628  0.6071  1.3116 -0.2601
 9814TIP3   OH250932   2.529   1.756  15.799 -0.0166  0.4561 -0.6830
 9814TIP3    H150933   2.463   1.818  15.829 -0.1710 -0.3401  0.6410
 9814TIP3    H250934   2.612   1.791  15.832 -0.0936 -0.0064 -0.0088
 9815TIP3   OH250935   4.035   0.844   1.692  0.0776 -0.4395 -0.2205
 9815TIP3    H150936   4.107   0.813   1.636 -0.0218  1.7832 -1.6481
 9815TIP3    H250937   3.978   0.893   1.633 -0.8476  0.6651  1.5462
 9816TIP3   OH250938   1.978   0.107  11.696 -0.0044  0.2942 -0.0533
 9816TIP3    H150939   1.926   0.058  11.759 -1.7529  2.2146  0.0567
 9816TIP3    H250940   2.037   0.161  11.749  0.6956 -0.3897 -0.1324
 9817TIP3   OH250941   4.907   3.892  14.764 -0.1673  0.0693 -0.4508
 9817TIP3    H150942   4.980   3.931  14.715  1.1054 -1.0870  0.4950
 9817TIP3    H250943   4.880   3.962  14.824 -0.3978  0.7949 -1.3881
 9818TIP3   OH250944   5.053   0.462  14.512 -0.3351  0.2952  0.2153
 9818TIP3    H150945   5.073   0.518  14.587  2.6363 -2.7149  1.7891
 9818TIP3    H250946   5.099   0.502  14.439  0.0328  1.0513  0.8561
 9819TIP3   OH250947   2.739   3.908   3.852  0.1905  0.3624  0.9986
 9819TIP3    H150948   2.730   3.819   3.884 -0.6550 -0.1475 -0.6352
 9819TIP3    H250949   2.663   3.954   3.887  0.6220  0.4490  1.8326
 9820TIP3   OH250950   1.438   5.818   6.382  0.3398  0.3435  0.0139
 9820TIP3    H150951   1.400   5.764   6.451 -0.8752 -0.5859 -1.3579
 9820TIP3    H250952   1.442   5.906   6.419 -2.0717  0.2198  0.5978
 9821TIP3   OH250953   6.414   0.450  13.151  0.1934 -1.2839  0.3120
 9821TIP3    H150954   6.492   0.503  13.135 -1.0993  0.1356 -1.4268
 9821TIP3    H250955   6.381   0.427  13.065 -2.2538 -0.4325  0.9646
 9822TIP3   OH250956   0.955   0.297   3.480  0.8421 -0.2777 -0.1140
 9822TIP3    H150957   0.988   0.386   3.467  2.8884 -1.1298 -1.0368
 9822TIP3    H250958   0.930   0.267   3.393  1.3131 -1.0145 -0.0098
 9823TIP3   OH250959   1.659   5.692   0.912  0.8618  0.2440  0.7339
 9823TIP3    H150960   1.598   5.625   0.944  1.3212  0.4456  2.0913
 9823TIP3    H250961   1.674   5.748   0.988  0.4009  1.9547 -0.4320
 9824TIP3   OH250962   5.243   4.405   2.412  0.8590  0.0494  0.1155
 9824TIP3    H150963   5.273   4.495   2.403  0.5205  0.0548 -1.1001
 9824TIP3    H250964   5.304   4.365   2.475  0.9281  1.1509  0.7590
 9825TIP3   OH250965   6.468   6.049  15.688 -0.3504 -0.2209  0.5924
 9825TIP3    H150966   6.459   6.121  15.625  1.6279  0.0488  0.6034
 9825TIP3    H250967   6.527   6.083  15.755  0.7280 -1.9139  0.5148
 9826TIP3   OH250968   0.758   5.576   6.100  0.3501  0.0850  0.5728
 9826TIP3    H150969   0.844   5.611   6.079 -0.0628  0.9150  0.2247
 9826TIP3    H250970   0.719   5.642   6.158 -0.2200 -0.0717  0.3683
 9827TIP3   OH250971   1.045   4.712  11.783  0.1821  0.0042 -0.8048
 9827TIP3    H150972   1.118   4.773  11.787 -0.6474  0.9272  1.0586
 9827TIP3    H250973   0.967   4.768  11.777 -0.4302 -0.9478 -2.1669
 9828TIP3   OH250974   3.951   5.610   1.097 -0.0605 -0.2491  0.5069
 9828TIP3    H150975   3.901   5.689   1.080  1.6946  0.8653  0.4830
 9828TIP3    H250976   4.038   5.628   1.062 -0.0048 -2.6890 -0.7333
 9829TIP3   OH250977   4.833   0.985   5.007 -0.1182  0.4230  0.0167
 9829TIP3    H150978   4.918   0.943   5.024 -0.0741  0.1990 -0.7542
 9829TIP3    H250979   4.801   1.008   5.094  0.6246  0.2919  0.3364
 9830TIP3   OH250980   1.441   6.784   2.150  0.0324  0.4009 -0.0157
 9830TIP3    H150981   1.445   6.878   2.165  1.5316  0.4706 -0.8054
 9830TIP3    H250982   1.366   6.755   2.201 -0.6277  2.0693 -0.0063
 9831TIP3   OH250983   5.289   1.538  11.747  0.3004 -0.5485 -1.2900
 9831TIP3    H150984   5.208   1.550  11.697 -1.0342 -1.8803  0.5018
 9831TIP3    H250985   5.328   1.626  11.750 -2.5184  0.7332  0.1845
 9832TIP3   OH250986   5.396   2.835  16.440 -0.4592  0.3351  0.0410
 9832TIP3    H150987   5.379   2.747  16.474 -0.6347  0.5478  0.5175
 9832TIP3    H250988   5.450   2.877  16.508 -0.3170  0.5690 -0.2178
 9833TIP3   OH250989   1.047   5.327  12.432  0.0082 -0.7482  0.2062
 9833TIP3    H150990   0.999   5.306  12.352 -1.6240  1.0123  0.6940
 9833TIP3    H250991   1.079   5.242  12.464 -1.0011 -1.6856 -1.2409
 9834TIP3   OH250992   3.512   6.398  17.150  0.3076  0.4377  0.0171
 9834TIP3    H150993   3.591   6.449  17.169  0.4298  0.9082 -1.6543
 9834TIP3    H250994   3.466   6.392  17.233  2.2101 -0.0226  1.0758
 9835TIP3   OH250995   6.374   4.212  14.675  0.1628  0.4557 -0.2746
 9835TIP3    H150996   6.283   4.187  14.691 -0.3587  1.4459 -1.5584
 9835TIP3    H250997   6.414   4.217  14.762 -0.7383 -0.9403  0.2413
 9836TIP3   OH250998   3.108   6.734   2.814 -0.2644 -0.3560 -0.4164
 9836TIP3    H150999   3.201   6.712   2.806  0.5518  2.5929  0.3426
 9836TIP3    H251000   3.064   6.649   2.817  2.5456 -1.8480  1.0215
 9837TIP3   OH251001   4.367   0.696  11.628 -0.1096  1.0359  0.5425
 9837TIP3    H151002   4.319   0.774  11.602 -0.6751  0.5912  0.2495
 9837TIP3    H251003   4.300   0.631  11.646  0.4093 -0.1148 -1.5188
 9838TIP3   OH251004   5.566   3.403  13.093 -0.4105 -0.1571  0.2086
 9838TIP3    H151005   5.604   3.435  13.175 -0.2518  0.5127 -0.1201
 9838TIP3    H251006   5.472   3.395  13.111 -0.2797 -0.6783  0.6658
 9839TIP3   OH251007   5.707   6.671  15.214  0.4467 -0.0268  0.2733
 9839TIP3    H151008   5.740   6.585  15.187 -0.5603  0.1304 -1.5048
 9839TIP3    H251009   5.613   6.668  15.194 -0.1368  0.5263  2.7072
 9840TIP3   OH251010   3.843   4.424  15.729  0.1875  0.4071 -0.2151
 9840TIP3    H151011   3.765   4.380  15.762  0.4301 -2.4372 -3.1974
 9840TIP3    H251012   3.915   4.387  15.779 -0.0247  0.4847  0.1493
 9841TIP3   OH251013   2.621   4.981   1.345  0.2734 -0.1477  0.3693
 9841TIP3    H151014   2.697   5.040   1.343 -0.5206  0.8707 -0.5870
 9841TIP3    H251015   2.589   4.980   1.255  0.3636 -2.2037  0.3367
 9842TIP3   OH251016   4.606   5.337   2.969  0.1825  0.5755 -0.6670
 9842TIP3    H151017   4.560   5.278   3.029  1.6792  0.9597  0.8837
 9842TIP3    H251018   4.640   5.406   3.024  4.7253 -0.9564 -1.3384
 9843TIP3   OH251019   1.656   6.791  15.708  0.2278  0.0327  0.5279
 9843TIP3    H151020   1.569   6.824  15.686 -2.0116 -4.7094  1.7716
 9843TIP3    H251021   1.698   6.775  15.623  0.2266  2.9752 -0.0743
 9844TIP3   OH251022   0.281   5.355  12.030 -0.1607  0.0717 -0.8257
 9844TIP3    H151023   0.274   5.291  12.101 -1.7879  0.3603 -0.7076
 9844TIP3    H251024   0.295   5.303  11.951 -1.9828 -0.4576 -0.8051
 9845TIP3   OH251025   2.465   4.027  17.077  0.1760 -0.1774 -0.1715
 9845TIP3    H151026   2.387   3.972  17.067 -0.3728  0.1163  2.1886
 9845TIP3    H251027   2.529   3.971  17.120  1.7602 -0.8163 -3.2556
 9846TIP3   OH251028   4.992   5.894   3.952 -0.2813  0.5879  0.1296
 9846TIP3    H151029   5.045   5.840   4.010  0.9047  0.5228 -0.9890
 9846TIP3    H251030   4.930   5.937   4.010  1.3073  1.0330  1.5472
 9847TIP3   OH251031   4.952   5.973  12.277 -0.0112 -0.3630  0.3999
 9847TIP3    H151032   4.859   5.981  12.294  0.0748 -0.9082  1.1730
 9847TIP3    H251033   4.967   5.879  12.263  0.2646 -0.1638 -0.6719
 9848TIP3   OH251034   0.934   2.704  15.313  0.1431 -0.3169 -0.2348
 9848TIP3    H151035   0.967   2.764  15.247  0.9025  0.7666  1.0833
 9848TIP3    H251036   0.885   2.638  15.265  0.4476  0.6118 -1.8275
 9849TIP3   OH251037   1.833   2.194   3.804  0.3920 -0.4746  0.4569
 9849TIP3    H151038   1.838   2.099   3.808  1.9530 -0.4789 -0.9811
 9849TIP3    H251039   1.923   2.224   3.821  0.2005  0.6710 -0.4228
 9850TIP3   OH251040   4.576   3.438  16.825 -0.4020 -0.0833  0.0282
 9850TIP3    H151041   4.554   3.474  16.911  0.0084 -0.0736  0.1293
 9850TIP3    H251042   4.660   3.479  16.803 -0.9329  0.5942 -0.7708
 9851TIP3   OH251043   4.985   2.304   5.979 -0.5919  0.0515 -0.4390
 9851TIP3    H151044   4.949   2.390   5.962 -0.3978  0.6582  2.0597
 9851TIP3    H251045   4.912   2.253   6.014 -0.9348 -1.0997 -2.7418
 9852TIP3   OH251046   5.130   2.073   5.966 -0.1589  0.7200 -0.5057
 9852TIP3    H151047   5.071   2.024   6.024 -1.2128  1.1681 -1.1856
 9852TIP3    H251048   5.092   2.161   5.962  0.3680  0.9204 -1.2165
 9853TIP3   OH251049   3.099   1.360   1.352  0.0686  0.1674  0.5660
 9853TIP3    H151050   3.134   1.378   1.439  0.4915 -0.8119  0.6103
 9853TIP3    H251051   3.135   1.428   1.296  3.0059 -1.4454  0.3784
 9854TIP3   OH251052   2.703   5.857   3.061  0.7229 -0.1707  0.0081
 9854TIP3    H151053   2.726   5.797   3.132  1.8937 -0.9858 -1.0318
 9854TIP3    H251054   2.608   5.847   3.051  0.5472 -0.0218  1.4632
 9855TIP3   OH251055   2.640   0.342  13.202 -0.4693 -0.2101  0.5590
 9855TIP3    H151056   2.638   0.357  13.296 -2.0340  1.5005  0.2863
 9855TIP3    H251057   2.730   0.362  13.176 -0.5723  1.4667  1.3909
 9856TIP3   OH251058   0.764   5.782   0.502  0.0490 -0.2616 -0.0110
 9856TIP3    H151059   0.728   5.851   0.448  1.4307  0.4339 -0.0723
 9856TIP3    H251060   0.859   5.792   0.494  0.2668 -1.3927  0.9443
 9857TIP3   OH251061   4.796   6.428  15.005 -0.0946  0.0051  0.1263
 9857TIP3    H151062   4.801   6.516  14.967 -1.2592  1.1930  2.6613
 9857TIP3    H251063   4.769   6.441  15.096  1.5485 -2.8576  1.1063
 9858TIP3   OH251064   3.939   2.128  16.134  0.0496 -0.2116 -0.1657
 9858TIP3    H151065   3.877   2.081  16.189  0.6222  0.4338  1.0435
 9858TIP3    H251066   3.985   2.187  16.194  2.1592 -1.0039 -0.9425
 9859TIP3   OH251067   5.039   5.286  15.047 -0.4617 -0.3651  0.3387
 9859TIP3    H151068   5.127   5.253  15.027 -0.4968  1.0094 -2.2015
 9859TIP3    H251069   5.003   5.221  15.109  1.9516 -1.4496  0.6699
 9860TIP3   OH251070   6.260   5.310  12.575 -0.9843 -0.1743  0.3296
 9860TIP3    H151071   6.284   5.343  12.662 -0.0770  0.7253 -0.2498
 9860TIP3    H251072   6.216   5.226  12.592 -0.3085 -0.2762  1.6171
 9861TIP3   OH251073   5.328   4.302   3.998 -0.3761 -0.1002 -0.5635
 9861TIP3    H151074   5.415   4.269   4.019 -0.5215  1.0998  2.1609
 9861TIP3    H251075   5.327   4.308   3.902  1.7202 -2.2243 -0.7617
 9862TIP3   OH251076   6.425   0.885   2.853 -0.0574 -0.0679  0.7261
 9862TIP3    H151077   6.349   0.912   2.801  0.3579  1.8148  1.0503
 9862TIP3    H251078   6.499   0.888   2.792  0.0455 -0.1783  0.8428
 9863TIP3   OH251079   6.226   3.043  14.350 -1.1919  0.2872 -0.0837
 9863TIP3    H151080   6.154   3.082  14.300 -1.4749  0.7904  0.7073
 9863TIP3    H251081   6.214   2.949  14.338 -1.2015  0.3998 -1.0376
 9864TIP3   OH251082   4.916   0.226   0.787  0.2731 -0.0695 -0.1385
 9864TIP3    H151083   4.933   0.258   0.875  2.8525 -2.4297  0.2731
 9864TIP3    H251084   4.947   0.296   0.729  1.7217  0.0541  0.7852
 9865TIP3   OH251085   0.329   6.749  15.759  0.1411  0.1941  0.4683
 9865TIP3    H151086   0.256   6.775  15.815  0.3617 -0.1139  0.9091
 9865TIP3    H251087   0.293   6.748  15.671 -0.3606  0.1457  0.6721
 9866TIP3   OH251088   2.420   3.369  11.546  0.3273 -0.1108 -0.1574
 9866TIP3    H151089   2.474   3.418  11.483  1.4912 -3.7583 -2.1720
 9866TIP3    H251090   2.330   3.382  11.515  0.6785  0.1443 -1.0949
 9867TIP3   OH251091   1.138   5.128   2.121  0.0624 -0.6179  0.2846
 9867TIP3    H151092   1.093   5.202   2.081 -0.2714 -1.3578 -0.7367
 9867TIP3    H251093   1.230   5.140   2.096 -0.1448 -1.0769 -0.7163
 9868TIP3   OH251094   0.936   2.161   3.210 -0.6059  0.3001  0.1770
 9868TIP3    H151095   0.920   2.147   3.116 -0.9448 -1.8077  0.5281
 9868TIP3    H251096   0.994   2.089   3.235  0.2326  1.3819  1.3975
 9869TIP3   OH251097   6.723   4.785   4.508 -0.2034 -0.1541  0.3050
 9869TIP3    H151098   6.677   4.794   4.591  0.5136  0.1226  0.6670
 9869TIP3    H251099   6.749   4.693   4.505 -0.9974 -0.3792 -0.0211
 9870TIP3   OH251100   6.596   4.980   2.973  0.1566 -0.5572  0.7393
 9870TIP3    H151101   6.574   4.897   3.014  0.4697 -1.4305 -0.8118
 9870TIP3    H251102   6.688   4.972   2.950  0.0327 -0.0357  0.0308
 9871TIP3   OH251103   3.892   0.882  12.298  0.1482  0.1548 -0.3519
 9871TIP3    H151104   3.819   0.942  12.282 -0.5266 -0.1492  1.4955
 9871TIP3    H251105   3.931   0.869  12.211 -3.1550 -1.2403 -1.7148
 9872TIP3   OH251106   6.541   2.445  14.131 -0.2465 -0.0975 -0.6833
 9872TIP3    H151107   6.532   2.473  14.222 -0.6588  0.3013 -0.8451
 9872TIP3    H251108   6.541   2.526  14.080 -0.5370 -0.3399 -1.0808
 9873TIP3   OH251109   4.648   3.692   0.935 -0.1132  0.4863  0.1318
 9873TIP3    H151110   4.639   3.771   0.882 -1.7496  1.7835  2.2499
 9873TIP3    H251111   4.706   3.718   1.007 -1.3187  0.0146  1.2867
 9874TIP3   OH251112   2.871   6.340   0.251 -0.0844 -0.1968  0.2024
 9874TIP3    H151113   2.902   6.425   0.283 -0.2603  0.4315 -1.2089
 9874TIP3    H251114   2.913   6.330   0.166 -1.6522 -0.5659 -0.5542
 9875TIP3   OH251115   2.550   3.629  12.461 -0.0670 -0.2207  0.0366
 9875TIP3    H151116   2.517   3.554  12.411 -1.9313  1.7942 -1.8595
 9875TIP3    H251117   2.550   3.701  12.398 -0.9806  2.0301  2.5356
 9876TIP3   OH251118   5.122   3.556   0.358  0.2716 -0.0843  0.1815
 9876TIP3    H151119   5.123   3.648   0.383  1.2464  0.1756 -0.7865
 9876TIP3    H251120   5.047   3.548   0.298 -1.0511 -0.3606  1.8434
 9877TIP3   OH251121   5.135   2.498   3.082  0.0641  0.2737 -0.1710
 9877TIP3    H151122   5.215   2.534   3.121 -0.2313  0.6335  0.1013
 9877TIP3    H251123   5.071   2.498   3.153  0.1560 -1.1022 -0.0776
 9878TIP3   OH251124   4.135   2.724  14.051  0.3563 -0.6331  0.3350
 9878TIP3    H151125   4.104   2.758  13.967  1.1161 -0.2778  0.1953
 9878TIP3    H251126   4.166   2.635  14.031  1.8329 -0.0456 -0.0481
 9879TIP3   OH251127   6.058   1.484  16.264 -0.1649  0.7811 -0.1555
 9879TIP3    H151128   5.979   1.476  16.211 -1.1331  0.2725  1.3468
 9879TIP3    H251129   6.058   1.575  16.294  0.0925  0.9157 -0.5500
 9880TIP3   OH251130   2.378   2.532   2.788  0.1393  0.2044 -0.5026
 9880TIP3    H151131   2.313   2.562   2.852  0.2536  1.4811 -0.9728
 9880TIP3    H251132   2.428   2.465   2.834 -0.6358  0.1752  0.3079
 9881TIP3   OH251133   3.876   0.818  14.135 -0.1186  0.8586  0.0770
 9881TIP3    H151134   3.839   0.760  14.069  1.7879 -0.0681 -0.1896
 9881TIP3    H251135   3.914   0.760  14.200  0.1835  1.7934  0.7458
 9882TIP3   OH251136   4.282   1.223  11.468  0.1134 -0.7765 -0.9071
 9882TIP3    H151137   4.308   1.131  11.472 -0.6768 -1.0068 -0.9280
 9882TIP3    H251138   4.313   1.253  11.382 -0.5184 -1.3043 -1.3273
 9883TIP3   OH251139   2.241   5.248   5.806 -0.5841 -0.0032  0.3622
 9883TIP3    H151140   2.186   5.326   5.813 -0.7959 -0.1013 -0.1905
 9883TIP3    H251141   2.198   5.183   5.860  0.8309  0.9439  2.7515
 9884TIP3   OH251142   4.879   0.860   0.201  0.0493  0.0953 -0.8258
 9884TIP3    H151143   4.787   0.870   0.178 -0.7737 -0.7345  1.8789
 9884TIP3    H251144   4.906   0.777   0.162 -0.8603 -0.5294 -0.1368
 9885TIP3   OH251145   5.557   4.440   2.458  0.1301  0.7576  0.2416
 9885TIP3    H151146   5.518   4.379   2.521  0.1490  0.7375  0.2346
 9885TIP3    H251147   5.648   4.448   2.487 -0.4899  2.6956  1.6982
 9886TIP3   OH251148   5.662   1.448  12.545  0.5599  0.3054 -0.4193
 9886TIP3    H151149   5.658   1.538  12.578  1.8422 -0.1358  1.0325
 9886TIP3    H251150   5.616   1.396  12.611  0.7249 -0.2446 -0.7293
 9887TIP3   OH251151   5.795   0.397   3.110 -0.7140  0.5722  0.1954
 9887TIP3    H151152   5.795   0.339   3.034 -1.4012 -1.4022  1.6467
 9887TIP3    H251153   5.849   0.471   3.085  0.5987 -0.9526 -1.5359
 9888TIP3   OH251154   0.815   4.573  16.300 -0.0197  0.0419  0.0057
 9888TIP3    H151155   0.749   4.563  16.231 -0.0460 -1.5885  0.2629
 9888TIP3    H251156   0.885   4.512  16.276  0.1797 -0.1993  1.1704
 9889TIP3   OH251157   5.085   4.538   2.925 -0.4610 -0.7439  0.0664
 9889TIP3    H151158   5.129   4.514   3.007  1.9351 -0.6290 -1.1500
 9889TIP3    H251159   5.091   4.633   2.921 -0.2284 -0.7783 -0.4275
 9890TIP3   OH251160   0.750   2.609   5.658  0.7916 -0.1303  0.3179
 9890TIP3    H151161   0.711   2.637   5.741  0.5453  0.8221 -0.1227
 9890TIP3    H251162   0.811   2.540   5.684 -1.5654 -2.0602  0.9510
 9891TIP3   OH251163   2.212   5.459  11.271 -0.4138 -0.4546 -0.0488
 9891TIP3    H151164   2.182   5.537  11.225  1.4088  1.3776  1.8168
 9891TIP3    H251165   2.296   5.438  11.230  0.4170  0.2090  1.2867
 9892TIP3   OH251166   0.912   3.195   5.253  0.4746  0.0243  0.2504
 9892TIP3    H151167   0.874   3.152   5.176  0.0727 -0.4342  0.6999
 9892TIP3    H251168   0.888   3.287   5.243  1.4455  0.1826 -0.7867
 9893TIP3   OH251169   5.632   0.413  11.168 -0.5655 -0.2882 -0.4025
 9893TIP3    H151170   5.589   0.498  11.165  1.1255  0.5746 -0.3632
 9893TIP3    H251171   5.651   0.391  11.077  0.4255  0.1183 -0.3009
 9894TIP3   OH251172   4.099   4.099  14.632  0.0143  0.4120  0.0290
 9894TIP3    H151173   4.011   4.071  14.607  0.1853  0.1312 -0.2734
 9894TIP3    H251174   4.113   4.063  14.719 -0.8401  1.9573  0.8147
 9895TIP3   OH251175   3.407   6.564   2.257  0.0681  0.2911 -0.0465
 9895TIP3    H151176   3.465   6.508   2.206  1.3944  1.8346 -0.2570
 9895TIP3    H251177   3.349   6.604   2.191  0.3218  0.5906 -0.0831
 9896TIP3   OH251178   1.053   6.344  12.820  0.1354 -0.5329  0.3574
 9896TIP3    H151179   1.042   6.413  12.755  0.9822  1.6327  2.4178
 9896TIP3    H251180   1.105   6.277  12.777 -1.9396 -0.6040 -2.1729
 9897TIP3   OH251181   2.116   5.588   4.275 -0.0953  0.3712 -0.2520
 9897TIP3    H151182   2.151   5.674   4.299 -1.2072  0.4831  1.0144
 9897TIP3    H251183   2.092   5.547   4.359  1.3287 -1.5793 -0.7503
 9898TIP3   OH251184   4.442   2.793  16.181  0.4622 -0.9994 -0.2338
 9898TIP3    H151185   4.385   2.717  16.181 -0.6416 -0.1846 -0.0593
 9898TIP3    H251186   4.430   2.833  16.095 -1.9859  1.1821  1.0661
 9899TIP3   OH251187   1.115   3.151  13.402 -0.6217 -0.6263  0.2142
 9899TIP3    H151188   1.094   3.124  13.491  2.5615 -2.3588  0.5164
 9899TIP3    H251189   1.148   3.071  13.360  1.8355  1.0925 -1.2267
 9900TIP3   OH251190   3.178   5.646   4.338  0.3295  0.2618  0.6008
 9900TIP3    H151191   3.132   5.722   4.375  0.4909  0.5029  0.3116
 9900TIP3    H251192   3.230   5.611   4.410  1.9643  1.7449  0.1684
 9901TIP3   OH251193   5.575   2.802   5.764  0.1223 -0.6637  0.1127
 9901TIP3    H151194   5.531   2.837   5.687  0.9201  0.2591  0.0675
 9901TIP3    H251195   5.664   2.838   5.760 -0.0062 -0.1342  1.7661
 9902TIP3   OH251196   0.725   1.036   0.532  0.0721 -0.2986  0.0175
 9902TIP3    H151197   0.736   0.993   0.447 -0.0701 -0.2219 -0.0400
 9902TIP3    H251198   0.716   1.129   0.510  0.1763 -0.2625  0.1271
 9903TIP3   OH251199   1.968   6.765  17.022 -0.2993  0.6521 -0.3681
 9903TIP3    H151200   2.014   6.688  17.057 -0.9093  1.0788  1.3913
 9903TIP3    H251201   1.876   6.742  17.025 -0.4815  1.4393  0.1075
 9904TIP3   OH251202   5.388   2.181   5.978 -0.1689  0.2114  0.5024
 9904TIP3    H151203   5.332   2.103   5.973 -1.5876  1.1998  0.6429
 9904TIP3    H251204   5.329   2.254   5.959  0.5916  1.4613  2.7479
 9905TIP3   OH251205   5.586   5.172  15.976  0.3145 -0.1161  0.0149
 9905TIP3    H151206   5.656   5.110  15.956  0.2553 -0.5720  1.1944
 9905TIP3    H251207   5.508   5.135  15.935  0.1945 -1.0325  1.0574
 9906TIP3   OH251208   1.861   5.894   1.535 -0.1259  0.4426  0.7262
 9906TIP3    H151209   1.845   5.988   1.535 -0.1037  0.4563 -0.8465
 9906TIP3    H251210   1.952   5.885   1.564  1.1376  1.1822 -2.7215
 9907TIP3   OH251211   0.077   0.817  12.415 -0.1670 -0.0939 -0.1416
 9907TIP3    H151212   0.132   0.887  12.451 -0.2541  0.3764 -0.9178
 9907TIP3    H251213   0.097   0.817  12.322 -1.2205 -0.1671 -0.3704
 9908TIP3   OH251214   3.056   6.156  11.645 -0.5768  0.2856 -0.2789
 9908TIP3    H151215   3.079   6.133  11.555 -0.7713  1.2829 -0.5970
 9908TIP3    H251216   3.131   6.206  11.676 -2.0343  3.2082 -1.1852
 9909TIP3   OH251217   6.352   0.295  11.653  0.8617  0.3047 -0.2834
 9909TIP3    H151218   6.432   0.293  11.601  0.3817  0.8432 -1.0593
 9909TIP3    H251219   6.294   0.231  11.610  1.6075 -1.6184  1.5053
 9910TIP3   OH251220   5.820   5.108  11.313  0.3233  0.6086  0.0071
 9910TIP3    H151221   5.893   5.118  11.251 -0.3305  2.5998 -0.4757
 9910TIP3    H251222   5.859   5.124  11.399  0.3874  2.1296 -0.2905
 9911TIP3   OH251223   6.685   4.311   0.307  0.3551 -0.3128  0.3601
 9911TIP3    H151224   6.655   4.274   0.390  0.3220 -2.9575 -0.7759
 9911TIP3    H251225   6.648   4.253   0.240  1.8009  0.7617 -1.4202
 9912TIP3   OH251226   5.399   3.364  14.279  0.1300  0.1059  0.1761
 9912TIP3    H151227   5.344   3.425  14.328  0.2301  1.0348 -0.8358
 9912TIP3    H251228   5.339   3.297  14.247  0.0358 -0.3904  1.3811
 9913TIP3   OH251229   4.195   5.987   4.027 -0.0727  0.6495 -0.0014
 9913TIP3    H151230   4.261   5.955   4.088  0.9689  1.9591 -0.4187
 9913TIP3    H251231   4.242   6.047   3.970 -1.5805  1.4464 -0.4360
 9914TIP3   OH251232   6.226   1.221   0.021  0.2261  0.3182  0.3122
 9914TIP3    H151233   6.270   1.156   0.076 -0.4797 -0.1296  0.3449
 9914TIP3    H251234   6.232   1.303   0.071 -1.7746 -0.4007  1.7825
 9915TIP3   OH251235   0.933   0.103   1.324  0.4309  0.2119 -0.1346
 9915TIP3    H151236   0.856   0.153   1.351 -0.3386 -0.0988 -1.7095
 9915TIP3    H251237   0.917   0.080   1.233  1.6240 -1.3131  0.0035
 9916TIP3   OH251238   4.366   3.277   4.625 -0.4179 -0.0231 -0.0330
 9916TIP3    H151239   4.442   3.332   4.605 -0.4601 -0.6869 -2.0861
 9916TIP3    H251240   4.301   3.338   4.661  0.4906  0.8181  0.1964
 9917TIP3   OH251241   0.289   5.165  14.344  0.3165 -0.3119  0.4291
 9917TIP3    H151242   0.232   5.102  14.300 -1.0075 -1.4697  3.6668
 9917TIP3    H251243   0.371   5.117  14.359 -0.4954 -1.1354  2.3906
 9918TIP3   OH251244   5.835   2.025  11.421 -0.6116 -0.0888 -0.3993
 9918TIP3    H151245   5.757   1.970  11.417 -1.4547  1.0853 -0.4545
 9918TIP3    H251246   5.908   1.964  11.426 -1.5366 -1.2010 -0.4243
 9919TIP3   OH251247   2.659   4.154  12.225 -0.0741 -0.4128  0.1961
 9919TIP3    H151248   2.597   4.227  12.219  0.7806  0.2785 -0.4603
 9919TIP3    H251249   2.745   4.196  12.220  0.4240 -1.5035 -0.5993
 9920TIP3   OH251250   4.020   2.860   2.727 -0.2018 -0.0334 -0.4423
 9920TIP3    H151251   3.989   2.793   2.788 -1.4731  0.3794 -0.6065
 9920TIP3    H251252   3.940   2.903   2.697  0.5630  1.1571 -0.8010
 9921TIP3   OH251253   6.659   1.441   3.675 -0.1923  0.0577 -0.6512
 9921TIP3    H151254   6.679   1.458   3.583  1.2993  0.4998 -0.2578
 9921TIP3    H251255   6.643   1.347   3.679 -0.2512  0.0319 -1.3472
 9922TIP3   OH251256   3.183   2.232  13.383 -0.0295  0.1359 -0.3439
 9922TIP3    H151257   3.199   2.138  13.382 -0.8616 -0.0488  1.2111
 9922TIP3    H251258   3.257   2.270  13.336  1.3759 -1.1398  0.7782
 9923TIP3   OH251259   1.668   5.803  16.337 -0.1309  0.2221  0.2182
 9923TIP3    H151260   1.622   5.754  16.405 -1.2560 -0.7218 -1.1837
 9923TIP3    H251261   1.734   5.742  16.304  0.0460  0.4849  0.0822
 9924TIP3   OH251262   3.412   2.468   3.760  0.2135 -0.5569 -0.4933
 9924TIP3    H151263   3.409   2.521   3.839 -1.9861  1.6028 -1.9482
 9924TIP3    H251264   3.505   2.461   3.739  0.8098 -1.0780  2.1895
 9925TIP3   OH251265   4.919   5.881  14.897 -0.3165 -0.0033  0.1943
 9925TIP3    H151266   4.871   5.800  14.879 -0.8219  0.7380 -1.9139
 9925TIP3    H251267   4.876   5.917  14.975  1.4106 -2.9011  2.6029
 9926TIP3   OH251268   3.543   3.273   1.938  0.1466 -0.0008  0.3138
 9926TIP3    H151269   3.460   3.249   1.980  0.6604  1.2063  2.0512
 9926TIP3    H251270   3.563   3.199   1.881 -3.1952  0.5759 -1.7848
 9927TIP3   OH251271   0.075   0.950  13.139  0.0550 -0.0755 -0.0587
 9927TIP3    H151272   0.083   0.894  13.216 -0.0368 -0.7743 -0.5603
 9927TIP3    H251273   0.004   0.912  13.089 -0.2565  0.7107 -0.2127
 9928TIP3   OH251274   6.037   2.731  15.679  0.3997 -0.2325  0.2901
 9928TIP3    H151275   6.057   2.725  15.585 -0.3165  1.1937  0.0436
 9928TIP3    H251276   6.079   2.812  15.708 -3.1726  1.7049  0.2237
 9929TIP3   OH251277   6.171   1.804  10.766  0.0269 -0.5257 -0.4817
 9929TIP3    H151278   6.095   1.760  10.802 -1.0366  1.4294 -0.2622
 9929TIP3    H251279   6.183   1.881  10.821  2.4309 -1.0202 -0.2553
 9930TIP3   OH251280   0.001   2.052   1.565 -0.0988 -0.4028  0.3511
 9930TIP3    H151281  -0.019   1.989   1.497  1.0573 -1.4706  0.9814
 9930TIP3    H251282  -0.074   2.050   1.624 -0.2012 -0.9475  0.1956
 9931TIP3   OH251283   5.652   0.893   1.947 -0.0372 -0.1997 -0.7317
 9931TIP3    H151284   5.668   0.801   1.969 -0.3096 -0.5841 -2.1069
 9931TIP3    H251285   5.670   0.940   2.028 -0.9677 -1.5799  0.2934
 9932TIP3   OH251286   5.261   1.188   5.392  0.3463 -0.3610 -0.2186
 9932TIP3    H151287   5.200   1.262   5.387  0.0069 -0.6306 -0.0410
 9932TIP3    H251288   5.215   1.115   5.352  1.3794 -0.0283 -2.0812
 9933TIP3   OH251289   5.896   0.230  13.314  0.0927  0.5605  0.1722
 9933TIP3    H151290   5.829   0.287  13.351  1.2549  1.6890  0.5860
 9933TIP3    H251291   5.977   0.282  13.318  0.7554 -0.3025 -1.4663
 9934TIP3   OH251292   5.544   0.778  14.326 -0.3395 -0.0137  0.4493
 9934TIP3    H151293   5.503   0.758  14.242 -1.0585  0.4114  0.6956
 9934TIP3    H251294   5.638   0.774  14.309 -0.4832  0.5927 -0.4956
 9935TIP3   OH251295   2.042   1.187  16.654 -0.0580  0.1680 -0.3174
 9935TIP3    H151296   1.990   1.238  16.716 -0.9406 -0.0396 -0.8901
 9935TIP3    H251297   2.132   1.216  16.670 -0.3366  0.5365  0.6592
 9936TIP3   OH251298   1.643   4.780  16.427 -0.1796 -0.4653 -0.0932
 9936TIP3    H151299   1.551   4.762  16.447 -0.1546  0.2402  0.6773
 9936TIP3    H251300   1.685   4.694  16.432 -0.7956 -0.7979 -0.4860
 9937TIP3   OH251301   0.622   1.863  12.105  0.0184 -0.5069 -0.0281
 9937TIP3    H151302   0.575   1.893  12.182  0.3662 -2.5972  1.0341
 9937TIP3    H251303   0.708   1.838  12.137  0.2741 -1.0994 -1.1414
 9938TIP3   OH251304   5.968   1.322   5.589 -0.4214  0.6426  0.2842
 9938TIP3    H151305   5.992   1.385   5.658 -0.7951  1.8243 -0.6609
 9938TIP3    H251306   5.873   1.310   5.599 -0.0648 -1.3001  1.7201
 9939TIP3   OH251307   5.339   0.984   4.520 -0.4010 -0.5125 -0.7770
 9939TIP3    H151308   5.351   0.914   4.456  3.5819 -1.8449  1.2774
 9939TIP3    H251309   5.413   1.042   4.506  0.0303 -0.3460  1.9529
 9940TIP3   OH251310   6.055   1.339   1.794  0.0977 -0.2506 -0.2277
 9940TIP3    H151311   6.123   1.284   1.831 -0.6980 -0.5088  0.8655
 9940TIP3    H251312   6.097   1.424   1.781  0.3897 -0.1490  1.2875
 9941TIP3   OH251313   2.433   2.570  16.493  0.2545  0.1695  0.0020
 9941TIP3    H151314   2.413   2.556  16.585  0.2203 -0.4894 -0.1056
 9941TIP3    H251315   2.526   2.594  16.491  0.3337 -0.1224  0.1780
 9942TIP3   OH251316   5.298   2.835  14.102  0.1327  0.1378  0.1927
 9942TIP3    H151317   5.355   2.896  14.149 -0.8073  0.6018  0.7302
 9942TIP3    H251318   5.355   2.761  14.083  0.7893  0.3558  1.2174
 9943TIP3   OH251319   6.652   3.424  16.170  0.0161  0.4410  0.1695
 9943TIP3    H151320   6.595   3.443  16.244 -0.7589  1.4250 -0.6558
 9943TIP3    H251321   6.736   3.464  16.192 -0.7550  2.3539 -0.2812
 9944TIP3   OH251322   2.616   0.183  15.033  0.2531  0.2010 -0.1919
 9944TIP3    H151323   2.535   0.223  15.002 -0.9318 -1.7940  0.2273
 9944TIP3    H251324   2.649   0.243  15.100 -1.6985  0.3117  0.7131
 9945TIP3   OH251325   1.439   3.740   0.961 -0.0569 -0.3258 -0.2742
 9945TIP3    H151326   1.460   3.695   1.043  1.5454  1.5784  0.4034
 9945TIP3    H251327   1.346   3.723   0.948 -0.0245 -1.8003  1.2127
 9946TIP3   OH251328   6.344   2.203  15.925 -0.8744  0.2127 -0.0114
 9946TIP3    H151329   6.324   2.190  16.018 -2.9385 -0.2971 -0.4813
 9946TIP3    H251330   6.423   2.151  15.910 -0.6924  0.0590  1.3866
 9947TIP3   OH251331   4.128   3.644  12.200  0.3608 -0.0768  0.4185
 9947TIP3    H151332   4.149   3.701  12.274  0.5871 -1.2373  1.2532
 9947TIP3    H251333   4.171   3.686  12.125  1.3419  0.3341  1.1966
 9948TIP3   OH251334   2.315   4.952  12.299 -0.1493 -0.3555  0.3086
 9948TIP3    H151335   2.389   4.965  12.239 -0.6202 -0.7331 -0.3634
 9948TIP3    H251336   2.354   4.954  12.386  0.5634  0.0891 -0.0111
 9949TIP3   OH251337   5.561   6.424  16.459 -0.2088 -0.0795 -0.7197
 9949TIP3    H151338   5.595   6.483  16.391  0.8432 -0.1892 -0.2962
 9949TIP3    H251339   5.614   6.345  16.451 -0.0315 -0.0620  0.2893
 9950TIP3   OH251340   1.670   0.909  14.803  0.0039 -0.0248  0.6011
 9950TIP3    H151341   1.646   0.971  14.734  1.5021 -0.9547 -0.8018
 9950TIP3    H251342   1.728   0.958  14.860  0.1225  0.2660  0.2350
 9951TIP3   OH251343   0.585   4.054   3.124  0.1176 -0.0324  0.3332
 9951TIP3    H151344   0.651   3.992   3.156 -0.9386 -1.5877 -0.4555
 9951TIP3    H251345   0.533   4.003   3.061 -0.2414  1.9020 -0.9552
 9952TIP3   OH251346   4.367   1.238   0.263  0.3840  0.0242  0.5604
 9952TIP3    H151347   4.441   1.268   0.315 -0.8842  1.5182  1.5211
 9952TIP3    H251348   4.365   1.297   0.188  0.2254 -0.0816  0.4812
 9953TIP3   OH251349   2.051   0.362   4.400 -0.0634  0.5707  0.0452
 9953TIP3    H151350   1.966   0.327   4.375 -0.9622  1.5938  1.5677
 9953TIP3    H251351   2.051   0.452   4.366  0.7096  0.3405 -0.5834
 9954TIP3   OH251352   6.175   3.117   5.949 -0.0164  0.3330  0.0931
 9954TIP3    H151353   6.171   3.192   5.890 -0.9904 -0.8595 -1.3876
 9954TIP3    H251354   6.101   3.063   5.924 -0.4957 -0.1787  2.4681
 9955TIP3   OH251355   5.598   6.063   2.363 -0.2794 -0.5291 -0.7139
 9955TIP3    H151356   5.510   6.036   2.389 -0.3960 -1.1221 -1.7117
 9955TIP3    H251357   5.655   5.993   2.396 -0.2103 -0.3143 -0.3682
 9956TIP3   OH251358   1.328   6.272  16.372 -0.1651  0.1994 -0.0320
 9956TIP3    H151359   1.328   6.177  16.383 -0.4982  0.1039 -0.8584
 9956TIP3    H251360   1.278   6.287  16.292 -1.2953  1.1593  0.8320
 9957TIP3   OH251361   2.595   3.935   6.092  0.3893 -0.4768 -0.8428
 9957TIP3    H151362   2.671   3.943   6.035  0.7597  0.7957 -0.1769
 9957TIP3    H251363   2.563   4.024   6.104 -0.3796 -0.8520 -0.0033
 9958TIP3   OH251364   1.277   6.778   1.507 -0.1749  0.3160 -0.5849
 9958TIP3    H151365   1.280   6.847   1.441  0.1090  0.5869 -0.2860
 9958TIP3    H251366   1.224   6.709   1.466 -1.2788  1.1001 -0.5068
 9959TIP3   OH251367   1.428   4.622   2.056 -0.0129  0.0851 -0.6642
 9959TIP3    H151368   1.512   4.591   2.024 -0.2572 -0.8636 -0.3818
 9959TIP3    H251369   1.411   4.702   2.005  2.6248  2.2008  1.5728
 9960TIP3   OH251370   6.418   1.681   2.601  0.2591 -0.0726 -0.2763
 9960TIP3    H151371   6.326   1.708   2.612  0.2435  0.2573 -1.1744
 9960TIP3    H251372   6.452   1.739   2.533  1.4556  0.5364  0.8248
 9961TIP3   OH251373   3.659   3.726  11.499  0.0733 -0.1858 -0.3052
 9961TIP3    H151374   3.599   3.800  11.486  1.7648  0.9340 -2.0598
 9961TIP3    H251375   3.631   3.661  11.434 -0.2142 -0.3127 -0.0563
 9962TIP3   OH251376   4.838   1.090  15.855 -0.3816  0.7674 -0.4571
 9962TIP3    H151377   4.898   1.017  15.841 -0.7446 -0.1456  2.4480
 9962TIP3    H251378   4.875   1.162  15.803  2.2629 -0.2858 -0.1100
 9963TIP3   OH251379   5.611   0.790   4.129 -0.5851  0.4274 -1.1689
 9963TIP3    H151380   5.632   0.883   4.118 -3.6770  1.2785 -0.4960
 9963TIP3    H251381   5.610   0.777   4.224  1.3384 -0.7007 -1.2778
 9964TIP3   OH251382   0.135   5.446  13.027  0.0897  0.3948 -0.3905
 9964TIP3    H151383   0.051   5.406  13.051  0.5919 -0.1399  0.5091
 9964TIP3    H251384   0.116   5.496  12.948 -0.7970 -0.7650 -0.9269
 9965TIP3   OH251385   5.190   6.496   6.265 -0.0325  0.3024  0.4624
 9965TIP3    H151386   5.226   6.537   6.344  0.2313 -0.5209  0.7781
 9965TIP3    H251387   5.095   6.501   6.276 -0.0095 -1.7536  1.8755
 9966TIP3   OH251388   4.171   6.615  16.107 -0.0963 -0.5900 -0.0590
 9966TIP3    H151389   4.248   6.646  16.155 -1.3169 -0.5633  1.9343
 9966TIP3    H251390   4.178   6.657  16.021  1.7980 -0.1293  0.2999
 9967TIP3   OH251391   5.004   1.362  11.802 -0.0134  0.4724 -0.1800
 9967TIP3    H151392   4.922   1.343  11.757 -0.3785 -1.9716  1.4319
 9967TIP3    H251393   4.997   1.454  11.827 -1.2406  0.9145 -2.1293
 9968TIP3   OH251394   5.661   2.876  13.981  0.0330  0.8036  0.3250
 9968TIP3    H151395   5.567   2.870  13.962 -0.2025  1.4051  1.2625
 9968TIP3    H251396   5.702   2.890  13.895 -0.7324  0.5579 -0.0857
 9969TIP3   OH251397   5.579   1.095   4.379  0.4411  0.0044  0.0067
 9969TIP3    H151398   5.629   1.173   4.404  1.8637 -0.9984  0.3756
 9969TIP3    H251399   5.639   1.045   4.323 -0.3976 -0.8983 -0.1023
 9970TIP3   OH251400   1.453   0.187  13.691  0.6480 -0.2370 -0.1947
 9970TIP3    H151401   1.541   0.156  13.711  1.0948  0.7070 -0.6213
 9970TIP3    H251402   1.464   0.282  13.679  0.0638 -0.4670 -2.8115
 9971TIP3   OH251403   6.805   4.946  14.588 -0.1837  0.0534  0.1589
 9971TIP3    H151404   6.899   4.924  14.588 -0.0979  0.4036  0.4764
 9971TIP3    H251405   6.762   4.865  14.561  0.0032 -1.0822  3.0390
 9972TIP3   OH251406   1.214   0.650   0.592 -0.0662  0.6798  0.4898
 9972TIP3    H151407   1.298   0.674   0.553 -0.6917  0.5886 -0.9199
 9972TIP3    H251408   1.157   0.632   0.518 -0.1137 -3.5087  1.4148
 9973TIP3   OH251409   4.498   5.361   1.167  0.2046  0.3332 -0.3779
 9973TIP3    H151410   4.512   5.337   1.076  3.6444 -2.8317  0.8381
 9973TIP3    H251411   4.586   5.379   1.201 -0.5911 -1.4741  2.9895
 9974TIP3   OH251412   2.356   1.676  14.031 -0.4750 -0.2969  0.2498
 9974TIP3    H151413   2.391   1.645  14.114  1.5745 -1.5293 -1.0332
 9974TIP3    H251414   2.357   1.599  13.974  2.6153  1.5026 -2.3134
 9975TIP3   OH251415   0.631   1.380   2.559 -0.0195  0.1809  0.3963
 9975TIP3    H151416   0.716   1.393   2.602  0.4465  0.3536 -0.5741
 9975TIP3    H251417   0.652   1.370   2.466 -0.7628 -3.2000  0.5505
 9976TIP3   OH251418   3.373   6.736   4.734 -0.0176 -0.0682  0.2909
 9976TIP3    H151419   3.292   6.691   4.759 -0.6126  0.2139 -1.0490
 9976TIP3    H251420   3.398   6.695   4.651  1.4508 -0.4391  0.9133
 9977TIP3   OH251421   5.220   4.628  16.627 -0.3710 -0.3893  0.3438
 9977TIP3    H151422   5.294   4.669  16.583 -1.7563  0.7176 -0.9857
 9977TIP3    H251423   5.240   4.534  16.625  1.8755  0.0305  1.6780
 9978TIP3   OH251424   1.313   5.090   0.050 -0.1063  0.1596  0.3524
 9978TIP3    H151425   1.365   5.171   0.054 -1.4931  1.0743 -0.1257
 9978TIP3    H251426   1.357   5.031   0.112  1.2640  1.0617  0.2598
 9979TIP3   OH251427   4.749   1.253  12.884 -0.0409  0.7130  0.3225
 9979TIP3    H151428   4.787   1.253  12.796 -0.8096  1.9438 -0.0197
 9979TIP3    H251429   4.768   1.340  12.918 -0.9145  0.6905  0.8642
 9980TIP3   OH251430   1.107   3.256   3.079 -0.1635  0.2189  0.0611
 9980TIP3    H151431   1.130   3.175   3.034  0.4179 -0.5768  1.7280
 9980TIP3    H251432   1.056   3.227   3.155 -0.8590  1.4941  0.0850
 9981TIP3   OH251433   2.999   2.649   5.170  0.1446  0.0262  0.2373
 9981TIP3    H151434   3.015   2.689   5.255  1.2911  1.3309 -0.5575
 9981TIP3    H251435   3.066   2.687   5.113 -0.2802 -1.2143 -1.1252
 9982TIP3   OH251436   5.464   4.311  16.676  0.2400 -0.0053 -0.1226
 9982TIP3    H151437   5.476   4.405  16.667  1.3176  0.1563  2.4057
 9982TIP3    H251438   5.435   4.299  16.767 -0.2674 -2.0687 -0.5146
 9983TIP3   OH251439   0.054   3.804  15.119  0.0191 -0.4912  0.0982
 9983TIP3    H151440  -0.002   3.726  15.125  2.3010 -2.4983 -3.2121
 9983TIP3    H251441  -0.006   3.876  15.100 -1.6381 -2.2593 -1.5082
 9984TIP3   OH251442   6.656   3.258  14.388  0.3063  0.4748  0.1715
 9984TIP3    H151443   6.622   3.198  14.454  0.1857 -0.4456 -0.7222
 9984TIP3    H251444   6.728   3.210  14.346  0.1800  0.9266 -0.5737
 9985TIP3   OH251445   0.191   0.040  11.963 -0.0320  0.1255  0.3598
 9985TIP3    H151446   0.171   0.132  11.945 -1.4628 -0.2469  0.0151
 9985TIP3    H251447   0.229   0.007  11.881  1.9897  0.8078  0.9888
 9986TIP3   OH251448   3.841   3.664   3.323  0.7577  0.0952 -0.6504
 9986TIP3    H151449   3.760   3.715   3.318  0.2479 -0.6319  0.0623
 9986TIP3    H251450   3.876   3.667   3.234 -0.3046  0.0154 -1.0900
 9987TIP3   OH251451   6.066   1.148   0.399  0.5314 -0.3975  0.2472
 9987TIP3    H151452   6.038   1.230   0.358 -0.2871 -0.4712  0.6391
 9987TIP3    H251453   6.132   1.113   0.340 -0.7403 -0.5817 -1.1079
 9988TIP3   OH251454   2.247   1.938  16.945  0.4386 -0.0746 -0.3044
 9988TIP3    H151455   2.177   1.990  16.908  0.6504  2.1738  2.2881
 9988TIP3    H251456   2.284   1.891  16.870 -1.5622  1.3428 -2.2599
 9989TIP3   OH251457   6.308   2.699  14.014  0.5476 -0.2458  0.3128
 9989TIP3    H151458   6.263   2.643  14.079  1.4007 -0.0431  1.0904
 9989TIP3    H251459   6.301   2.650  13.932  0.2687 -0.9499  0.7486
 9990TIP3   OH251460   6.113   6.491  13.549 -0.2540  0.5021  0.6243
 9990TIP3    H151461   6.072   6.422  13.601  1.2086 -1.0547 -0.2749
 9990TIP3    H251462   6.075   6.482  13.461  1.2834 -0.3333  0.0355
 9991TIP3   OH251463   5.895   6.446   5.463 -0.2864 -0.2918 -0.0979
 9991TIP3    H151464   5.978   6.474   5.502 -0.6596  0.6643  0.0215
 9991TIP3    H251465   5.893   6.490   5.378 -0.4082 -0.7652 -0.3412
 9992TIP3   OH251466   4.541   2.201  13.676 -0.2540 -0.8185 -0.3413
 9992TIP3    H151467   4.633   2.223  13.682 -0.5925  0.7971 -0.9697
 9992TIP3    H251468   4.523   2.149  13.754  1.1567 -1.0831 -0.1937
 9993TIP3   OH251469   3.332   5.616  12.588  0.5998  0.7269  0.3331
 9993TIP3    H151470   3.294   5.528  12.600 -0.1198  1.0174  0.2394
 9993TIP3    H251471   3.261   5.675  12.610  0.8491  1.2874 -0.3430
 9994TIP3   OH251472   5.406   5.182  15.581  0.1748 -0.0203  0.0538
 9994TIP3    H151473   5.396   5.209  15.490 -2.1798  0.6817  0.4780
 9994TIP3    H251474   5.380   5.090  15.582  0.0193  0.0234  0.0473
 9995TIP3   OH251475   3.528   5.211  12.984  0.0023 -0.1713  0.1949
 9995TIP3    H151476   3.499   5.258  12.906 -0.6857 -1.5565 -0.3904
 9995TIP3    H251477   3.601   5.157  12.955 -0.1427 -0.5629  0.5471
 9996TIP3   OH251478   3.743   0.803  13.164  0.3927 -0.0842  0.2051
 9996TIP3    H151479   3.788   0.852  13.233 -1.1060  1.9191 -0.2030
 9996TIP3    H251480   3.694   0.735  13.211  1.8145 -0.6824  0.8466
 9997TIP3   OH251481   1.986   5.638   0.329  0.2508  0.2207  0.0444
 9997TIP3    H151482   2.010   5.664   0.418  0.7587  0.3390 -0.1290
 9997TIP3    H251483   2.063   5.592   0.295  0.7295  1.7561 -0.9788
 9998TIP3   OH251484   4.586   4.142   4.523 -0.6035  0.1758  0.1840
 9998TIP3    H151485   4.505   4.106   4.486  0.2778 -0.8990 -0.7763
 9998TIP3    H251486   4.595   4.098   4.608  0.8905 -2.6180 -1.3311
 9999TIP3   OH251487   5.316   3.596   5.847  0.2201  0.8785  0.0196
 9999TIP3    H151488   5.387   3.656   5.825  0.7187  0.8612  1.5717
 9999TIP3    H251489   5.290   3.621   5.935 -1.1764  0.3666 -0.2375
10000TIP3   OH251490   0.525   5.041  14.204  0.3700  0.0968 -0.0578
10000TIP3    H151491   0.510   5.037  14.110  0.7490 -1.6657 -0.0559
10000TIP3    H251492   0.570   5.125  14.217  1.0843 -0.0379 -1.5405
10001TIP3   OH251493   5.096   3.031  14.066  0.0886 -0.1676 -0.0624
10001TIP3    H151494   5.168   2.968  14.066 -1.1765 -1.6480  1.8324
10001TIP3    H251495   5.125   3.099  14.128 -0.1419 -0.7873  0.7388
10002TIP3   OH251496   5.360   2.738  15.256 -0.1719  0.2542 -0.4331
10002TIP3    H151497   5.410   2.790  15.319  1.2705  0.3014 -1.5947
10002TIP3    H251498   5.317   2.803  15.200  0.7644  0.1941 -1.2158
10003TIP3   OH251499   4.377   5.823   2.773 -0.1955  0.0496 -0.0495
10003TIP3    H151500   4.292   5.841   2.814  0.1394 -0.0387  0.6971
10003TIP3    H251501   4.404   5.739   2.811  1.1360  1.0251  1.2431
10004TIP3   OH251502   0.775   5.817  11.920 -0.2043 -0.2526  0.0152
10004TIP3    H151503   0.687   5.802  11.953  0.0315 -1.1316  0.2529
10004TIP3    H251504   0.815   5.730  11.916  0.4034  0.0559 -0.7904
10005TIP3   OH251505   2.272   2.155   4.804 -0.0258  0.2007 -0.4990
10005TIP3    H151506   2.324   2.213   4.747  1.1159 -0.6034 -0.2865
10005TIP3    H251507   2.335   2.093   4.839 -0.9620 -0.1193  0.6327
10006TIP3   OH251508   1.924   4.841   2.537  0.1492 -0.0737  0.2337
10006TIP3    H151509   1.972   4.921   2.559  0.9005 -0.0904 -1.2831
10006TIP3    H251510   1.930   4.834   2.442 -2.3343 -0.4493  0.0746
10007TIP3   OH251511   1.835   5.349   3.232  0.7337 -0.1569  0.1423
10007TIP3    H151512   1.925   5.317   3.243  0.2411 -1.1623  1.3011
10007TIP3    H251513   1.793   5.282   3.178  0.6191  0.1968 -0.2056
10008TIP3   OH251514   3.957   5.405  16.601 -0.6183 -0.0572 -0.4671
10008TIP3    H151515   3.937   5.312  16.604 -0.8586 -0.0396 -1.3473
10008TIP3    H251516   4.034   5.415  16.657 -0.2675 -0.8685 -0.8006
10009TIP3   OH251517   5.400   0.175   3.533 -0.7978  0.3992  0.3384
10009TIP3    H151518   5.355   0.124   3.466 -1.3701 -0.6444  1.4918
10009TIP3    H251519   5.365   0.263   3.524  0.2864  0.6493 -1.7629
10010TIP3   OH251520   0.446   1.282   2.898  0.2778 -0.6727 -0.3951
10010TIP3    H151521   0.439   1.222   2.972 -0.8376 -0.1456 -0.0647
10010TIP3    H251522   0.477   1.228   2.826  1.1843 -1.2267  0.4073
10011TIP3   OH251523   5.479   4.005   1.627  0.5841 -0.1039 -0.4041
10011TIP3    H151524   5.448   4.020   1.538 -0.4795  0.0830 -0.0056
10011TIP3    H251525   5.400   3.985   1.678  1.0861  0.5457  0.6545
10012TIP3   OH251526   0.429   3.922  11.391  0.0112 -0.2570  0.0568
10012TIP3    H151527   0.485   3.902  11.466  1.4744  0.6337 -0.7827
10012TIP3    H251528   0.428   4.017  11.386 -0.4417 -0.3010 -0.7746
10013TIP3   OH251529   5.356   6.752  13.726  0.0137 -0.0865  0.0478
10013TIP3    H151530   5.280   6.756  13.668 -0.2805  3.7206  0.5776
10013TIP3    H251531   5.323   6.784  13.810  1.3055 -2.1919  1.4017
10014TIP3   OH251532   2.681   5.569   1.501 -0.3186  0.2080 -0.4634
10014TIP3    H151533   2.625   5.646   1.500 -1.3486 -0.5234 -2.4148
10014TIP3    H251534   2.643   5.512   1.568 -0.7058  0.5673 -0.3792
10015TIP3   OH251535   0.241   2.334   0.999 -0.4104 -0.0375 -0.0099
10015TIP3    H151536   0.236   2.241   1.021  1.1047 -0.8570 -2.7961
10015TIP3    H251537   0.153   2.367   1.014 -0.5889 -1.5357  2.5221
10016TIP3   OH251538   4.461   4.993   1.404 -0.8563 -0.5193 -0.2958
10016TIP3    H151539   4.418   4.912   1.378  0.9876 -0.7515 -2.8090
10016TIP3    H251540   4.490   5.032   1.321  2.0558  0.5553  1.1773
10017TIP3   OH251541   1.832   6.791  17.288  0.2119 -0.2994 -0.5689
10017TIP3    H151542   1.847   6.870  17.234  0.3339  1.0005  1.3235
10017TIP3    H251543   1.778   6.735  17.233 -1.1582  1.7593 -1.4005
10018TIP3   OH251544   2.980   6.232   4.411 -0.1120 -0.1068 -0.1653
10018TIP3    H151545   3.065   6.209   4.372  0.0501 -0.3289  0.3157
10018TIP3    H251546   2.977   6.328   4.404  1.3103  0.1562  2.0608
10019TIP3   OH251547   4.729   1.581  13.840 -0.1294 -0.6238  0.5800
10019TIP3    H151548   4.740   1.487  13.848  3.6871 -0.4109 -1.0197
10019TIP3    H251549   4.808   1.611  13.796  0.6873  3.8556  4.6296
10020TIP3   OH251550   3.147   3.888   0.191  0.5632 -0.4906 -0.3882
10020TIP3    H151551   3.081   3.893   0.260  1.1514  0.1118  0.1375
10020TIP3    H251552   3.231   3.883   0.238  0.8498 -1.9554 -1.0410
10021TIP3   OH251553   0.476   3.122  14.500 -0.7583  0.2650  0.0869
10021TIP3    H151554   0.482   3.202  14.553 -0.8591  0.7388 -0.6120
10021TIP3    H251555   0.560   3.116  14.456 -0.0515 -1.0396  1.5715
10022TIP3   OH251556   3.728   5.709  14.337  0.4714 -0.0178  0.0768
10022TIP3    H151557   3.646   5.724  14.385  1.6505  1.8663  1.5439
10022TIP3    H251558   3.699   5.687  14.248 -1.6261  0.6508  0.5538
10023TIP3   OH251559   1.632   0.743   2.261 -0.1608 -0.1218  0.0600
10023TIP3    H151560   1.668   0.713   2.178  1.3538 -0.9907  1.0025
10023TIP3    H251561   1.539   0.721   2.257  0.5047 -3.2221 -0.0903
10024TIP3   OH251562   2.561   3.405   1.073 -0.1739 -0.2625 -0.1510
10024TIP3    H151563   2.542   3.311   1.066  0.7438 -0.4886  0.2747
10024TIP3    H251564   2.476   3.447   1.074 -0.6313 -1.1969  1.1480
10025TIP3   OH251565   0.875   5.963   2.607  0.3547 -0.1728  0.2322
10025TIP3    H151566   0.918   5.988   2.688  2.5574 -1.6409 -0.4304
10025TIP3    H251567   0.840   5.876   2.624 -0.2229  0.0128 -0.0068
10026TIP3   OH251568   1.262   3.324  10.556 -0.1888  0.1380  0.3003
10026TIP3    H151569   1.289   3.407  10.518 -0.3563  0.3969  0.7513
10026TIP3    H251570   1.184   3.299  10.506  0.1398  0.0069 -0.1586
10027TIP3   OH251571   3.855   1.219  16.236  0.0058  0.1866 -0.3077
10027TIP3    H151572   3.894   1.210  16.149  1.1476  0.4718  0.1687
10027TIP3    H251573   3.897   1.149  16.288 -1.0590 -0.3226 -0.1283
10028TIP3   OH251574   0.631   0.560  15.385  0.3070  0.0075 -0.7684
10028TIP3    H151575   0.695   0.494  15.413  0.4193 -0.4047 -2.0063
10028TIP3    H251576   0.561   0.510  15.345 -1.6751  0.3118  2.1703
10029TIP3   OH251577   0.114   4.994   5.564  0.5604  0.2009 -0.4566
10029TIP3    H151578   0.195   5.015   5.519 -0.4494  1.2915 -1.8377
10029TIP3    H251579   0.072   4.928   5.508  0.3944 -0.1933  0.1299
10030TIP3   OH251580   5.183   0.310   5.302 -0.0830  0.2922 -0.1396
10030TIP3    H151581   5.265   0.277   5.264  0.2352  1.2860 -0.3338
10030TIP3    H251582   5.132   0.232   5.322  1.2822 -0.3764  0.8022
10031TIP3   OH251583   6.273   3.981  15.299 -0.6302 -0.0631  0.2362
10031TIP3    H151584   6.360   4.022  15.301 -0.2493 -0.8590  0.4277
10031TIP3    H251585   6.291   3.890  15.274 -1.3937 -0.2678  0.4346
10032TIP3   OH251586   1.108   6.575  11.878 -0.2366  0.7708  0.0215
10032TIP3    H151587   1.040   6.510  11.896  1.4105 -1.5570 -1.8566
10032TIP3    H251588   1.190   6.529  11.895  0.9512  2.5845 -0.6872
10033TIP3   OH251589   2.222   5.337   2.998  0.7849 -0.4842 -0.3271
10033TIP3    H151590   2.296   5.332   2.938  0.5705  0.3604 -0.6724
10033TIP3    H251591   2.209   5.248   3.028  2.5142 -0.5004  0.4286
10034TIP3   OH251592   6.676   4.921  16.720  0.3342 -0.0688 -0.1610
10034TIP3    H151593   6.716   4.876  16.794  0.5472  0.5522  0.1071
10034TIP3    H251594   6.599   4.869  16.699 -0.1961  0.2192  1.0435
10035TIP3   OH251595   2.528   4.844   0.497  0.0448  0.2557  1.0535
10035TIP3    H151596   2.562   4.882   0.578  2.0917  0.3593  0.1609
10035TIP3    H251597   2.568   4.896   0.427 -1.6007  0.0903 -0.0568
10036TIP3   OH251598   4.804   1.601  14.728  1.0316  0.7080 -0.3115
10036TIP3    H151599   4.796   1.656  14.806 -0.5738 -2.5927  1.9801
10036TIP3    H251600   4.869   1.646  14.673 -0.4017  4.9650  1.2623
10037TIP3   OH251601   0.816   4.179  11.560  0.2957  0.7285 -0.4925
10037TIP3    H151602   0.892   4.211  11.608  0.4639  0.8641 -0.8459
10037TIP3    H251603   0.823   4.219  11.473 -1.4916  2.7335  0.2411
10038TIP3   OH251604   2.895   1.234   5.823  0.2901  0.0417  0.1020
10038TIP3    H151605   2.980   1.264   5.792  1.7204 -2.7287  1.1978
10038TIP3    H251606   2.914   1.185   5.903 -2.4655  0.3614  1.0078
10039TIP3   OH251607   2.277   2.834  13.604 -0.5418  0.4930  0.6573
10039TIP3    H151608   2.305   2.795  13.687  2.5847  0.0492 -0.5330
10039TIP3    H251609   2.276   2.928  13.621  0.0181  0.4012  1.2310
10040TIP3   OH251610   5.004   5.471  12.577  0.8782 -0.5328 -0.1360
10040TIP3    H151611   4.957   5.544  12.535  0.7455  0.2460  1.3388
10040TIP3    H251612   5.090   5.471  12.535  0.3524 -0.5241 -1.2478
10041TIP3   OH251613   1.999   3.369  12.824 -0.4611 -0.4694  0.0504
10041TIP3    H151614   1.990   3.387  12.731 -0.5314  0.0847  0.1586
10041TIP3    H251615   1.910   3.352  12.855 -0.7292  1.5060  0.4343
10042TIP3   OH251616   1.432   6.803  12.274  0.1960  0.3131  0.2490
10042TIP3    H151617   1.437   6.887  12.319  0.4196  0.3374  0.1784
10042TIP3    H251618   1.414   6.739  12.344 -0.8944  0.5396  0.1773
10043TIP3   OH251619   0.680   1.931   4.495 -0.3958  0.3127 -0.3207
10043TIP3    H151620   0.742   1.984   4.544  0.7406  0.5520 -1.9824
10043TIP3    H251621   0.667   1.853   4.549 -0.8024  1.5026  1.3402
10044TIP3   OH251622   4.832   3.056   6.036  0.1559  0.3417  0.2643
10044TIP3    H151623   4.782   3.024   5.961  0.6614  0.1552  0.0032
10044TIP3    H251624   4.862   3.143   6.009  1.3322 -0.1974 -0.2268
10045TIP3   OH251625   5.607   5.226   2.855  0.1920 -0.3730  0.3906
10045TIP3    H151626   5.696   5.260   2.868  0.9198 -1.4848 -1.5411
10045TIP3    H251627   5.565   5.289   2.797  1.1877 -2.1232 -2.3031
10046TIP3   OH251628   6.485   3.153  12.927  0.0588 -0.1470 -0.0828
10046TIP3    H151629   6.500   3.240  12.963  2.2375 -0.4136 -0.2951
10046TIP3    H251630   6.410   3.119  12.976  0.9556  0.7581  1.9617
10047TIP3   OH251631   1.430   1.211   1.422 -0.1769  0.0708  0.0946
10047TIP3    H151632   1.348   1.185   1.464  0.1900 -0.4015  0.5380
10047TIP3    H251633   1.493   1.216   1.494  0.1328  0.6372 -0.2140
10048TIP3   OH251634   4.587   5.695   1.407 -0.7361 -0.1164  0.3016
10048TIP3    H151635   4.555   5.635   1.474  3.0729 -0.9401  1.5174
10048TIP3    H251636   4.602   5.777   1.453 -1.3565  0.3360 -0.2944
10049TIP3   OH251637   4.785   4.125  15.376  0.4687 -0.1070 -0.2974
10049TIP3    H151638   4.707   4.121  15.322  0.3266 -0.8122 -0.0532
10049TIP3    H251639   4.754   4.153  15.462  0.4680 -0.4657 -0.1779
10050TIP3   OH251640   3.767   5.403   5.106  0.3240 -0.1938 -0.1453
10050TIP3    H151641   3.810   5.321   5.128  0.3221 -0.1215  0.1351
10050TIP3    H251642   3.774   5.456   5.185  0.4947  0.1497 -0.3904
10051TIP3   OH251643   6.120   2.220   5.450  0.3229  0.2769 -0.0054
10051TIP3    H151644   6.081   2.204   5.535  0.5611  0.5654  0.1596
10051TIP3    H251645   6.052   2.266   5.400 -0.2408 -0.9358 -0.3710
10052TIP3   OH251646   6.050   6.704   4.949 -0.4116  0.0236  0.6493
10052TIP3    H151647   6.133   6.658   4.936 -0.4632  0.1194 -0.0633
10052TIP3    H251648   6.003   6.652   5.015 -0.8096 -1.4188 -0.7304
10053TIP3   OH251649   4.812   2.581  15.505 -0.4484  0.2444  0.0690
10053TIP3    H151650   4.719   2.583  15.480 -0.4970 -2.5122 -0.1453
10053TIP3    H251651   4.847   2.505  15.458  1.5166  0.2318  1.5202
10054TIP3   OH251652   4.361   5.009   0.982  0.4176  0.1936 -0.5671
10054TIP3    H151653   4.301   5.084   0.987 -0.4601 -0.5787  0.8360
10054TIP3    H251654   4.378   4.987   1.073  0.2820 -1.6148 -0.9688
10055TIP3   OH251655   4.871   5.535   0.211 -0.4676 -0.8150 -0.3090
10055TIP3    H151656   4.963   5.559   0.224 -0.9254  0.3186  0.8825
10055TIP3    H251657   4.874   5.445   0.178  1.1435 -0.1568 -1.9936
10056TIP3   OH251658   1.347   2.883  12.619 -0.3476 -0.1609  0.4411
10056TIP3    H151659   1.371   2.927  12.701  1.9739 -1.0516  0.2977
10056TIP3    H251660   1.287   2.813  12.645 -0.4326  0.2165  1.2519
10057TIP3   OH251661   0.509   3.513  16.890 -0.5750 -0.0516  0.0224
10057TIP3    H151662   0.445   3.466  16.943 -0.7810  0.0646 -0.1227
10057TIP3    H251663   0.460   3.544  16.814 -0.4882  0.5661  0.2124
10058TIP3   OH251664   6.652   3.509   1.439  0.9389 -0.5049  0.0663
10058TIP3    H151665   6.683   3.559   1.514  2.3913 -2.6949  1.0010
10058TIP3    H251666   6.570   3.470   1.469  1.8712 -1.9557  0.8343
10059TIP3   OH251667   6.059   5.883  15.504 -0.2647 -0.0511 -0.3749
10059TIP3    H151668   6.029   5.933  15.428 -0.5481  0.4748  0.0806
10059TIP3    H251669   6.119   5.818  15.467  2.6803  2.6778 -0.6333
10060TIP3   OH251670   0.504   1.582  16.744  0.5193 -0.3331 -0.2422
10060TIP3    H151671   0.561   1.509  16.769  2.2627  1.1155  0.1142
10060TIP3    H251672   0.425   1.570  16.797 -0.8385 -4.0651 -2.9498
10061TIP3   OH251673   2.295   5.424  10.811  0.0563  0.2092 -0.4714
10061TIP3    H151674   2.334   5.457  10.891  1.9653 -0.6359 -1.0266
10061TIP3    H251675   2.369   5.407  10.753 -1.2848  0.9278 -2.4709
10062TIP3   OH251676   0.219   1.537  15.916 -0.2851 -0.3701  0.0785
10062TIP3    H151677   0.266   1.610  15.956 -0.7485 -0.5655  1.0088
10062TIP3    H251678   0.141   1.577  15.878  0.1819 -0.1757 -0.6799
10063TIP3   OH251679   1.615   4.642   1.596 -0.2913 -0.2260  0.6435
10063TIP3    H151680   1.590   4.574   1.533  0.6737  0.2968 -0.3202
10063TIP3    H251681   1.709   4.628   1.610  0.2068  1.7049 -0.5668
10064TIP3   OH251682   2.084   3.687   2.978 -0.2326 -0.0970 -0.2183
10064TIP3    H151683   1.991   3.702   2.965 -0.3082  0.1698  0.5694
10064TIP3    H251684   2.103   3.605   2.932 -0.8190 -0.0738 -0.5020
10065TIP3   OH251685   3.846   4.406  11.407 -0.2801 -0.2785 -0.0419
10065TIP3    H151686   3.873   4.445  11.324 -1.1442 -2.0236 -1.1700
10065TIP3    H251687   3.798   4.475  11.452  0.3920  0.7453 -0.8862
10066TIP3   OH251688   1.442   5.229  14.931  0.5729 -0.1437  0.1285
10066TIP3    H151689   1.502   5.173  14.980  2.3850  0.4402 -1.3497
10066TIP3    H251690   1.441   5.191  14.843  0.6583  1.2612 -0.4913
10067TIP3   OH251691   2.689   0.910   1.717 -0.2308  0.5241  0.7332
10067TIP3    H151692   2.661   0.920   1.626 -0.4117 -0.9914  0.6141
10067TIP3    H251693   2.613   0.934   1.769 -0.0915  1.5045  0.4956
10068TIP3   OH251694   1.707   1.102   3.319 -0.1826 -0.2585  0.3306
10068TIP3    H151695   1.759   1.083   3.241 -1.1595 -0.8989 -0.1652
10068TIP3    H251696   1.732   1.191   3.343  1.3290 -0.6456  0.2438
10069TIP3   OH251697   6.573   5.616   5.270  0.7569 -0.0002 -0.0158
10069TIP3    H151698   6.576   5.586   5.361  0.2560  1.0554  0.3555
10069TIP3    H251699   6.484   5.649   5.258  0.8132 -0.1515 -0.8956
10070TIP3   OH251700   3.350   6.597   1.169  0.4389 -0.4037  0.3711
10070TIP3    H151701   3.435   6.641   1.163  1.0363 -1.5647  0.1145
10070TIP3    H251702   3.289   6.666   1.192  0.9942  0.9405 -2.0696
10071TIP3   OH251703   5.647   5.179   4.343 -0.5678 -0.1345  0.1822
10071TIP3    H151704   5.658   5.263   4.388 -1.8931  0.0028  0.2940
10071TIP3    H251705   5.694   5.116   4.396  0.2768  0.5117  0.2009
10072TIP3   OH251706   2.293   4.380  14.930  0.2800 -0.9441 -0.1993
10072TIP3    H151707   2.235   4.398  15.005  0.2092 -3.7295  0.4690
10072TIP3    H251708   2.359   4.320  14.965  0.9351 -1.3455 -2.0794
10073TIP3   OH251709   3.442   6.680  17.219 -0.3066  0.0225  0.1792
10073TIP3    H151710   3.509   6.707  17.282  0.3186 -0.9267 -0.0611
10073TIP3    H251711   3.460   6.731  17.141 -0.0101 -0.0526  0.1977
10074TIP3   OH251712   6.439   1.572  16.442 -0.6267 -0.0663 -0.7123
10074TIP3    H151713   6.532   1.549  16.436 -0.0146  1.7649  1.2880
10074TIP3    H251714   6.399   1.499  16.490 -0.1286 -0.6332 -1.1645
10075TIP3   OH251715   2.354   5.444   0.750  0.2148 -0.1461 -0.3263
10075TIP3    H151716   2.336   5.527   0.794 -1.9456 -0.0969 -1.2133
10075TIP3    H251717   2.424   5.464   0.688  0.0337  0.9197 -0.2010
10076TIP3   OH251718   0.327   0.029   2.754  0.0067 -0.4347 -0.0095
10076TIP3    H151719   0.237   0.020   2.784 -0.2033  1.6422  0.0447
10076TIP3    H251720   0.336  -0.037   2.685 -1.5526 -0.6234 -0.0521
10077TIP3   OH251721   5.262   0.739  11.511 -0.0830 -0.1420 -0.5916
10077TIP3    H151722   5.356   0.723  11.517 -0.2607 -1.0232 -0.0616
10077TIP3    H251723   5.239   0.777  11.596 -0.0700  0.8253 -1.0138
10078TIP3   OH251724   6.315   4.735   4.913 -0.3857 -0.3130 -0.1293
10078TIP3    H151725   6.382   4.777   4.967  0.3608 -0.1580 -1.1614
10078TIP3    H251726   6.305   4.648   4.950  1.2640 -0.7597 -0.6877
10079TIP3   OH251727   1.970   2.086   1.352  0.5074 -0.1320  0.5368
10079TIP3    H151728   1.944   2.150   1.285 -3.4145 -1.1186  0.9454
10079TIP3    H251729   2.058   2.058   1.326  1.1247  3.2300 -1.2961
10080TIP3   OH251730   4.832   2.007   3.491  0.4823 -0.0348  0.1378
10080TIP3    H151731   4.813   1.978   3.402  3.8914 -0.9294 -0.3878
10080TIP3    H251732   4.855   2.100   3.481  0.1040  0.0651  0.1996
10081TIP3   OH251733   0.091   3.079   1.925  0.4776  0.4540 -0.1514
10081TIP3    H151734   0.090   3.162   1.878 -1.1946  0.7554  0.4063
10081TIP3    H251735   0.045   3.097   2.007 -0.5756 -1.2130 -0.3595
10082TIP3   OH251736   6.142   4.705   0.313 -0.1593  0.5612 -0.1182
10082TIP3    H151737   6.075   4.728   0.377 -1.2053  1.5655 -1.5384
10082TIP3    H251738   6.222   4.695   0.365 -0.8220  2.0914  1.2531
10083TIP3   OH251739   5.969   5.531  11.887 -0.4172 -0.6694 -0.2723
10083TIP3    H151740   5.984   5.506  11.796 -0.1342 -0.1771 -0.3632
10083TIP3    H251741   6.054   5.562  11.918 -0.8995  0.7684 -0.3577
10084TIP3   OH251742   1.052   4.176  11.719 -0.7999 -0.4265 -0.5001
10084TIP3    H151743   1.103   4.095  11.723 -1.3235 -0.7371  0.2394
10084TIP3    H251744   1.014   4.184  11.807 -0.6626  0.6827 -0.5375
10085TIP3   OH251745   5.422   5.464  12.251  0.1334 -0.2151 -0.0965
10085TIP3    H151746   5.377   5.443  12.333 -0.6109  1.3207 -0.0913
10085TIP3    H251747   5.381   5.545  12.221  2.3621  0.7929 -0.4986
10086TIP3   OH251748   1.394   5.519   0.245  0.4861 -0.3097  0.3550
10086TIP3    H151749   1.416   5.576   0.318  2.0527 -1.0957  0.5138
10086TIP3    H251750   1.323   5.564   0.200  0.3787  0.8005  1.6131
10087TIP3   OH251751   2.136   5.352  11.891  0.1550  0.1115 -0.0602
10087TIP3    H151752   2.191   5.401  11.829  1.2003 -1.3038 -0.2740
10087TIP3    H251753   2.141   5.403  11.972 -1.0041  1.8383 -1.0235
10088TIP3   OH251754   6.362   2.637  16.322 -0.4054 -1.0119 -0.8974
10088TIP3    H151755   6.271   2.641  16.294 -0.2134 -0.3923 -1.4553
10088TIP3    H251756   6.359   2.640  16.418 -0.8695  1.3346 -0.9451
10089TIP3   OH251757   2.707   6.472   2.442  0.4156  0.4482 -0.9647
10089TIP3    H151758   2.651   6.475   2.520  0.3955  1.2643 -1.0042
10089TIP3    H251759   2.751   6.557   2.441  2.1568 -0.4351 -0.5714
10090TIP3   OH251760   1.241   3.224  13.916 -0.0389 -0.1091  0.2021
10090TIP3    H151761   1.165   3.252  13.864  0.9543  0.6792 -0.8591
10090TIP3    H251762   1.217   3.137  13.948 -1.4699  0.2122  0.0475
10091TIP3   OH251763   0.063   1.447   6.706 -0.0037  0.3742 -0.7636
10091TIP3    H151764   0.083   1.491   6.623  3.5051 -0.4904 -0.4487
10091TIP3    H251765   0.039   1.358   6.681 -2.8550  1.1620 -1.0684
10092TIP3   OH251766   1.436   2.574   1.543 -0.6045 -0.5504 -0.5457
10092TIP3    H151767   1.487   2.592   1.464 -1.1134  0.2398 -0.6919
10092TIP3    H251768   1.369   2.511   1.515 -1.2361  0.2839 -0.9078
10093TIP3   OH251769   2.014   4.314   4.862 -0.1856 -0.7655 -0.5815
10093TIP3    H151770   2.085   4.250   4.853  0.0111 -0.8722  1.3701
10093TIP3    H251771   2.059   4.398   4.870 -0.1208 -1.0330  2.5718
10094TIP3   OH251772   4.478   1.930  11.414  0.1383  0.2398  0.4847
10094TIP3    H151773   4.558   1.941  11.464 -0.2846  1.8368  0.8221
10094TIP3    H251774   4.503   1.951  11.324 -0.0299  1.2898  0.6817
10095TIP3   OH251775   5.861   5.586   5.185 -0.2880  0.6638  0.1523
10095TIP3    H151776   5.767   5.604   5.179 -0.6143 -0.6208  1.2768
10095TIP3    H251777   5.868   5.491   5.170  1.0509  1.0765 -2.1575
10096TIP3   OH251778   0.459   5.147   0.176 -0.3311  0.5287 -0.0558
10096TIP3    H151779   0.497   5.122   0.091 -0.1053 -0.1466  0.2425
10096TIP3    H251780   0.368   5.169   0.155 -0.6477 -0.9300 -0.2675
10097TIP3   OH251781   5.077   3.054   3.453  0.1404  0.1265 -0.2365
10097TIP3    H151782   5.141   3.029   3.386  0.6581  2.1486 -0.5606
10097TIP3    H251783   5.130   3.099   3.520 -0.4889 -1.1447  1.1296
10098TIP3   OH251784   2.657   6.528  16.630  0.3678 -0.3694  0.4084
10098TIP3    H151785   2.586   6.513  16.568  0.7429  1.8538 -0.5743
10098TIP3    H251786   2.723   6.463  16.606 -0.3425 -0.9027 -0.1521
10099TIP3   OH251787   3.071   2.423  13.114 -0.0932 -0.2362  0.1223
10099TIP3    H151788   3.160   2.406  13.083  0.3487  0.1683  1.1577
10099TIP3    H251789   3.034   2.336  13.131 -0.7594 -0.5482 -2.6111
10100TIP3   OH251790   4.413   1.356   4.529  0.1579  0.2187  0.2362
10100TIP3    H151791   4.348   1.307   4.479  0.5893  1.3195 -1.4559
10100TIP3    H251792   4.482   1.292   4.548 -1.1933 -0.8447  1.6713
10101TIP3   OH251793   1.815   5.229  14.830 -0.4304 -0.3723 -0.1480
10101TIP3    H151794   1.882   5.178  14.876 -0.3422 -0.5079 -0.4219
10101TIP3    H251795   1.803   5.307  14.883 -1.1788 -1.0675  0.7308
10102TIP3   OH251796   5.824   3.316   5.095  0.4789 -0.2035  0.0484
10102TIP3    H151797   5.898   3.286   5.043 -0.2180 -2.6197  0.3744
10102TIP3    H251798   5.750   3.317   5.034  0.0824 -1.1184  0.4957
10103TIP3   OH251799   0.615   5.315   0.311  0.0612 -0.1993 -0.2456
10103TIP3    H151800   0.708   5.303   0.296  0.3796 -0.5234  1.8570
10103TIP3    H251801   0.572   5.260   0.245  1.3258  0.6850 -1.8290
10104TIP3   OH251802   5.118   6.469  12.714  0.5648 -0.2790  0.0679
10104TIP3    H151803   5.066   6.392  12.690  0.5303  0.1406 -1.2264
10104TIP3    H251804   5.069   6.543  12.679  1.0581  0.2695  0.5307
10105TIP3   OH251805   3.291   2.536  11.907 -0.1047 -0.3420 -0.3928
10105TIP3    H151806   3.220   2.585  11.866 -0.4184 -1.2662 -0.9722
10105TIP3    H251807   3.251   2.498  11.986  0.0380  0.0413 -0.1380
10106TIP3   OH251808   1.591   0.019   3.468 -0.2721 -0.3773  0.0187
10106TIP3    H151809   1.499   0.040   3.452 -0.3605 -2.2708 -2.1082
10106TIP3    H251810   1.638   0.060   3.395  0.3337 -1.2754 -0.0962
10107TIP3   OH251811   3.769   0.267  11.002  0.5192 -0.1221 -0.3544
10107TIP3    H151812   3.708   0.219  10.946  0.7527  0.6986 -1.3300
10107TIP3    H251813   3.840   0.292  10.943  3.4104 -3.7755  1.3867
10108TIP3   OH251814   2.674   4.547   0.554  0.1680  0.0930  0.4675
10108TIP3    H151815   2.622   4.618   0.514  0.8580  0.1204 -0.4156
10108TIP3    H251816   2.708   4.585   0.635 -2.0420 -0.2732  1.6098
10109TIP3   OH251817   2.479   4.327  14.315 -0.3065  0.3105  0.2684
10109TIP3    H151818   2.464   4.409  14.269  2.2959  0.8571  0.3325
10109TIP3    H251819   2.519   4.269  14.250 -0.5511 -0.3374  0.6858
10110TIP3   OH251820   0.624   3.572  12.612  0.5852  0.1658 -0.3443
10110TIP3    H151821   0.582   3.503  12.663 -0.3484 -0.8474 -2.3994
10110TIP3    H251822   0.596   3.654  12.653 -2.3702 -0.5351 -0.8772
10111TIP3   OH251823   1.360   2.285  12.868  0.2778  0.1892  0.5761
10111TIP3    H151824   1.308   2.262  12.791 -0.5395 -2.9484  1.9818
10111TIP3    H251825   1.448   2.251  12.849  0.4789  0.8108  0.3872
10112TIP3   OH251826   5.287   1.724  17.252  0.3218 -0.2749 -0.0361
10112TIP3    H151827   5.213   1.667  17.271  0.9418 -1.3068 -0.6725
10112TIP3    H251828   5.262   1.809  17.288  0.0789 -1.3315  2.3438
10113TIP3   OH251829   5.161   6.179   1.783  0.2203  0.5333  0.3045
10113TIP3    H151830   5.249   6.190   1.748  0.5586  0.8467  1.2228
10113TIP3    H251831   5.141   6.263   1.824  0.7555 -0.5122  2.8180
10114TIP3   OH251832   0.603   4.695   6.085  0.1120  0.1117 -0.2643
10114TIP3    H151833   0.646   4.721   6.167  1.4016  0.2835 -0.9865
10114TIP3    H251834   0.512   4.725   6.095  0.4795  0.9144  0.7445
10115TIP3   OH251835   5.443   1.524   0.967 -0.3654  0.2069 -0.3293
10115TIP3    H151836   5.368   1.491   1.017 -0.1978  2.6258  1.5611
10115TIP3    H251837   5.414   1.522   0.876 -1.2582 -2.6668 -0.0513
10116TIP3   OH251838   5.400   4.136   0.560 -0.3449  0.5958  0.0157
10116TIP3    H151839   5.405   4.205   0.494  0.7645 -0.5485 -1.1378
10116TIP3    H251840   5.336   4.074   0.525 -2.3492  1.6729  1.6860
10117TIP3   OH251841   3.971   5.401   3.188  0.1253 -0.0468 -0.0978
10117TIP3    H151842   3.974   5.401   3.284 -2.2187 -2.1095  0.0180
10117TIP3    H251843   4.014   5.319   3.163 -1.3129 -0.6563 -0.6676
10118TIP3   OH251844   6.371   1.490  10.590 -0.4253  0.5132 -0.5403
10118TIP3    H151845   6.332   1.476  10.676 -0.3285  0.5972 -0.4804
10118TIP3    H251846   6.428   1.415  10.576 -0.2607  0.6158 -0.4274
10119TIP3   OH251847   3.668   1.605   4.345  0.0616 -0.3119 -0.0466
10119TIP3    H151848   3.596   1.574   4.289  2.1083 -0.7896 -2.5419
10119TIP3    H251849   3.687   1.693   4.313 -0.1194  0.2487  1.3551
10120TIP3   OH251850   5.075   6.794  12.202  0.0946  0.4323 -0.5212
10120TIP3    H151851   5.127   6.802  12.122  0.3568 -0.3035 -0.4216
10120TIP3    H251852   5.140   6.791  12.272 -0.1460  1.5319 -0.2343
10121TIP3   OH251853   5.678   3.395   3.375  0.0722  0.2773  0.0483
10121TIP3    H151854   5.708   3.460   3.438 -0.2493  2.1459 -1.6881
10121TIP3    H251855   5.691   3.311   3.420 -0.3849  1.5494  2.6862
10122TIP3   OH251856   5.593   0.155   0.727 -0.5875  0.4292 -0.0001
10122TIP3    H151857   5.641   0.177   0.647  0.0264 -0.3621  0.1419
10122TIP3    H251858   5.597   0.235   0.780 -0.5869  0.8034 -0.5617
10123TIP3   OH251859   6.739   5.490   6.110 -0.0623  0.3835 -0.1857
10123TIP3    H151860   6.796   5.489   6.187  0.2500 -1.7441 -0.4213
10123TIP3    H251861   6.666   5.433   6.134 -0.9381  1.2551 -0.7608
10124TIP3   OH251862   1.022   1.896   1.259  0.3239  0.1128  0.3174
10124TIP3    H151863   1.118   1.900   1.265  0.6357 -1.4958 -2.7493
10124TIP3    H251864   0.997   1.825   1.318  1.1442 -0.2434  0.2446
10125TIP3   OH251865   6.411   4.427  13.773 -0.1378  0.2411  0.1104
10125TIP3    H151866   6.402   4.357  13.838 -0.3569 -0.9919 -1.2123
10125TIP3    H251867   6.441   4.382  13.693 -0.3115  1.6545 -0.7778
10126TIP3   OH251868   6.436   4.112   5.881 -0.0017  0.1583  0.4258
10126TIP3    H151869   6.526   4.079   5.870  0.4841  1.5379  0.2104
10126TIP3    H251870   6.426   4.122   5.975  0.0212 -0.0996  0.4580
10127TIP3   OH251871   3.987   2.168   4.387 -0.3108 -0.6603  0.6610
10127TIP3    H151872   4.008   2.100   4.324  0.4654  0.3102 -0.1436
10127TIP3    H251873   3.898   2.148   4.415 -0.3381 -1.6053 -0.0776
10128TIP3   OH251874   3.111   1.294   4.807 -0.2474 -0.0731  0.7669
10128TIP3    H151875   3.129   1.275   4.899  1.3543 -0.0277  0.4651
10128TIP3    H251876   3.067   1.379   4.809  0.3457  0.2218  1.4351
10129TIP3   OH251877   4.408   2.937   3.843  0.0903  0.4534 -0.2141
10129TIP3    H151878   4.368   3.015   3.805 -0.9294 -0.3471 -0.8373
10129TIP3    H251879   4.500   2.941   3.816  0.1360  1.6477  0.1192
10130TIP3   OH251880   5.171   1.009   2.401 -0.2336 -0.3943  0.0197
10130TIP3    H151881   5.085   0.980   2.433 -0.4872 -0.8352 -1.0558
10130TIP3    H251882   5.164   1.005   2.306  1.2813 -1.3372 -0.0662
10131TIP3   OH251883   2.429   1.615  13.395 -0.2903  0.6683 -0.3866
10131TIP3    H151884   2.427   1.566  13.313  2.6951 -1.8556  0.9996
10131TIP3    H251885   2.341   1.604  13.432 -0.0123 -2.6942 -0.6596
10132TIP3   OH251886   2.616   2.266   3.307  0.0383  0.4471  0.1510
10132TIP3    H151887   2.711   2.256   3.320 -0.0871 -1.6363 -0.4062
10132TIP3    H251888   2.603   2.360   3.299  2.0368  0.7724  0.4798
10133TIP3   OH251889   3.963   6.184   5.544  0.3041  0.4204 -0.3697
10133TIP3    H151890   3.888   6.242   5.554 -0.0861 -0.4020  1.6572
10133TIP3    H251891   3.926   6.101   5.513  0.5162  0.3607 -0.4671
10134TIP3   OH251892   6.133   5.805   3.127 -0.7169 -0.2195  0.2831
10134TIP3    H151893   6.126   5.897   3.104 -0.6350 -0.5829 -1.2132
10134TIP3    H251894   6.225   5.783   3.115 -0.9552 -0.7964 -0.4956
10135TIP3   OH251895   2.628   1.966   0.759 -0.1485  0.3531  0.2954
10135TIP3    H151896   2.678   2.028   0.707 -1.4242  0.9944 -0.2068
10135TIP3    H251897   2.585   2.020   0.826  0.2801 -0.2567  1.0634
10136TIP3   OH251898   5.705   2.870  15.700 -0.0137 -0.0446 -0.1395
10136TIP3    H151899   5.744   2.906  15.621  0.9821  1.2309  0.8993
10136TIP3    H251900   5.620   2.914  15.708 -0.5243 -0.8489 -0.9638
10137TIP3   OH251901   5.897   6.761   4.740  0.1156  0.2645  0.1926
10137TIP3    H151902   5.963   6.743   4.807 -0.2363  0.3872  0.5707
10137TIP3    H251903   5.827   6.806   4.787 -0.3762 -0.1516 -0.1515
10138TIP3   OH251904   4.182   3.061   5.774  0.4628  0.4187 -0.1121
10138TIP3    H151905   4.162   3.114   5.697 -2.0255  0.0420  0.2380
10138TIP3    H251906   4.208   3.125   5.840  1.7224  0.8236 -0.9916
10139TIP3   OH251907   5.012   3.149  17.099  0.3131 -0.0828  0.1148
10139TIP3    H151908   4.942   3.214  17.109 -0.2940 -0.7247  0.0669
10139TIP3    H251909   5.054   3.173  17.017  0.4928  0.6348  0.4142
10140TIP3   OH251910   5.495   0.589   4.316 -0.1063 -0.6568 -0.2717
10140TIP3    H151911   5.493   0.514   4.256 -0.2865 -1.9664  1.3478
10140TIP3    H251912   5.583   0.588   4.353 -0.0770  0.0047 -0.3256
10141TIP3   OH251913   1.407   2.016  13.352  0.1707 -0.5190  0.5158
10141TIP3    H151914   1.336   2.061  13.305 -0.4457 -1.4787  0.5125
10141TIP3    H251915   1.487   2.043  13.307 -0.5033 -2.4271 -1.9145
10142TIP3   OH251916   6.472   3.173   4.910 -0.5602 -0.1597  0.3775
10142TIP3    H151917   6.489   3.155   4.818  0.4450  1.6308  0.2092
10142TIP3    H251918   6.520   3.253   4.929 -1.6610  0.1008  2.1799
10143TIP3   OH251919   2.059   5.474   5.284  0.1730 -0.2226 -0.0495
10143TIP3    H151920   2.048   5.509   5.373 -1.1577  0.6368 -0.5508
10143TIP3    H251921   2.079   5.382   5.297  0.3034 -0.0316  1.1600
10144TIP3   OH251922   0.111   3.941   1.310 -0.2053  0.4885 -0.3701
10144TIP3    H151923   0.044   3.873   1.309  0.6793 -0.3804 -1.2241
10144TIP3    H251924   0.179   3.908   1.368  0.0586  0.8026 -0.4954
10145TIP3   OH251925   0.336   5.000   2.799 -0.2583  0.3653  0.3739
10145TIP3    H151926   0.411   5.059   2.796  1.3587 -1.5567  1.8595
10145TIP3    H251927   0.309   5.000   2.891  2.2136 -4.0873  1.2596
10146TIP3   OH251928   4.696   1.655   1.872 -0.0409 -0.6328  0.0086
10146TIP3    H151929   4.637   1.647   1.947  0.1088 -1.6105  0.0286
10146TIP3    H251930   4.777   1.613   1.900  1.3659  2.4508  0.6873
10147TIP3   OH251931   6.156   3.931  11.265  0.0859  0.2111  0.2311
10147TIP3    H151932   6.083   3.975  11.221  0.8574  2.2429  0.9142
10147TIP3    H251933   6.172   3.853  11.214 -0.4565  1.4147 -1.8285
10148TIP3   OH251934   3.989   0.926   4.303 -0.6418 -0.5086 -0.2838
10148TIP3    H151935   3.972   0.877   4.223  3.1590 -3.0859  0.3806
10148TIP3    H251936   4.062   0.880   4.345  0.1748  3.1601  2.6076
10149TIP3   OH251937   5.665   3.383   5.975 -0.1446  0.4654  0.2199
10149TIP3    H151938   5.705   3.297   5.979  1.9898  1.4258  0.1936
10149TIP3    H251939   5.571   3.366   5.965  0.3040 -1.8316 -0.2338
10150TIP3   OH251940   4.874   0.497   2.528 -0.2649  0.6510  0.0835
10150TIP3    H151941   4.962   0.536   2.518 -0.1589  0.7018  1.1419
10150TIP3    H251942   4.815   0.565   2.496  0.1697 -0.1489 -2.5525
10151TIP3   OH251943   3.278   6.102  14.528 -0.8267  0.3093  0.2474
10151TIP3    H151944   3.209   6.168  14.540 -1.1717  0.0785 -0.4076
10151TIP3    H251945   3.249   6.027  14.580 -1.4989 -0.0931 -0.6884
10152TIP3   OH251946   2.299   0.937   2.721  0.6383  0.6013 -0.3714
10152TIP3    H151947   2.274   0.855   2.764  1.1450  1.7905  2.3283
10152TIP3    H251948   2.221   0.963   2.671 -0.0458 -0.7361 -0.0166
10153TIP3   OH251949   2.601   6.492  15.741 -0.3918 -0.1415 -0.0387
10153TIP3    H151950   2.513   6.531  15.744  0.4131  1.6576  1.1637
10153TIP3    H251951   2.656   6.560  15.700  1.0110 -0.0246  1.9690
10154TIP3   OH251952   0.151   5.461   5.440 -0.0173  0.4379 -0.0339
10154TIP3    H151953   0.217   5.395   5.421 -0.5993  0.1317 -1.0346
10154TIP3    H251954   0.183   5.540   5.396  0.5714  0.7687  0.9817
10155TIP3   OH251955   4.282   3.467   2.693  0.2066  0.0077 -0.0705
10155TIP3    H151956   4.333   3.396   2.732  1.2778  0.5504 -0.4651
10155TIP3    H251957   4.210   3.423   2.647  0.5012 -0.7835  0.2187
10156TIP3   OH251958   5.508   5.500   2.406 -0.3077 -0.4156 -0.5741
10156TIP3    H151959   5.435   5.497   2.467 -1.3522  0.4788 -1.7419
10156TIP3    H251960   5.473   5.542   2.328  1.0354 -1.3648 -1.7438
10157TIP3   OH251961   3.877   4.696  15.655 -0.7134 -0.0043 -0.2750
10157TIP3    H151962   3.838   4.614  15.683 -0.5610  0.3265  0.9201
10157TIP3    H251963   3.887   4.747  15.735 -0.9912  1.2594 -1.0309
10158TIP3   OH251964   0.690   1.555  15.975 -0.0008  0.2866 -0.4787
10158TIP3    H151965   0.644   1.471  15.979 -1.8564  1.2753 -0.7780
10158TIP3    H251966   0.686   1.588  16.065 -1.2656  1.0958 -0.8238
10159TIP3   OH251967   6.673   0.532   5.677  0.3426 -0.1308  0.1892
10159TIP3    H151968   6.749   0.474   5.686  1.0957  1.0528  1.5477
10159TIP3    H251969   6.691   0.606   5.735 -1.7600  0.2750  0.3796
10160TIP3   OH251970   0.890   4.280   5.418  0.1361 -0.1629 -0.0397
10160TIP3    H151971   0.950   4.280   5.344 -0.4812  0.4898 -0.5441
10160TIP3    H251972   0.921   4.352   5.474 -1.2288  1.3630 -1.1824
10161TIP3   OH251973   5.945   0.173  11.738  0.1866 -0.4144  0.0292
10161TIP3    H151974   5.947   0.081  11.711  1.9866 -0.5970  0.7177
10161TIP3    H251975   5.934   0.169  11.833  3.0443 -0.0214  0.4211
10162TIP3   OH251976   1.540   5.482  12.807  0.1989  0.2483  0.1504
10162TIP3    H151977   1.467   5.490  12.868  0.4023  1.8346  0.2016
10162TIP3    H251978   1.499   5.454  12.725 -0.3641  0.3099  0.4074
10163TIP3   OH251979   4.370   5.355   4.827 -0.4343  0.7154 -0.6173
10163TIP3    H151980   4.429   5.423   4.794  0.2136 -0.1740 -1.3116
10163TIP3    H251981   4.294   5.404   4.860 -0.1856  1.7558 -1.5329
10164TIP3   OH251982   5.462   6.739   4.596  0.1666  0.0868  0.3583
10164TIP3    H151983   5.387   6.738   4.655 -0.0016 -0.6386  0.1427
10164TIP3    H251984   5.503   6.653   4.607  0.6331  0.2642  0.0532
10165TIP3   OH251985   5.414   1.870  13.117 -0.3058 -0.0698 -0.3807
10165TIP3    H151986   5.338   1.876  13.058 -0.2464 -0.9779 -0.5677
10165TIP3    H251987   5.462   1.793  13.086 -0.2113 -0.4916  0.7835
10166TIP3   OH251988   4.501   0.115   0.178  0.2371 -0.1453  0.1927
10166TIP3    H151989   4.596   0.100   0.184  0.1710  0.2088  3.4698
10166TIP3    H251990   4.464   0.028   0.166  0.8520 -0.6909  2.0076
10167TIP3   OH251991   4.484   1.259   2.661 -0.3387  0.1198 -0.0341
10167TIP3    H151992   4.514   1.274   2.571 -0.5867  1.3962  0.0830
10167TIP3    H251993   4.550   1.303   2.715 -0.0937 -0.8072  0.4155
10168TIP3   OH251994   2.088   3.209  11.049  0.0777  0.1119 -0.2723
10168TIP3    H151995   2.130   3.295  11.044  0.2345  0.1483  1.5409
10168TIP3    H251996   1.996   3.229  11.066 -0.0193 -0.0629 -0.5920
10169TIP3   OH251997   2.001   1.952  10.718 -0.2485  0.4464 -0.2678
10169TIP3    H151998   1.907   1.972  10.713  0.3538  3.7498 -0.0237
10169TIP3    H251999   2.027   1.937  10.627 -0.7409  1.1464 -0.5341
10170TIP3   OH252000   4.219   2.376   2.981 -0.5462  0.1834  0.3472
10170TIP3    H152001   4.177   2.335   3.057 -1.0483  1.4181  0.7483
10170TIP3    H252002   4.258   2.303   2.933 -0.3096 -0.6217  1.7355
10171TIP3   OH252003   6.031   3.188  17.243  0.2962  0.8028 -0.3725
10171TIP3    H152004   6.073   3.180  17.329 -2.9595 -0.4564  1.1735
10171TIP3    H252005   5.979   3.268  17.249  1.0678  1.4072 -1.6477
10172TIP3   OH252006   4.103   6.466   5.447 -0.0016 -0.2120  0.1327
10172TIP3    H152007   4.055   6.471   5.364 -0.1719 -1.0437  0.1789
10172TIP3    H252008   4.039   6.496   5.512 -0.4335 -1.1842  0.1752
10173TIP3   OH252009   1.185   0.196   3.646 -0.3211 -0.8173 -0.4484
10173TIP3    H152010   1.112   0.223   3.590  0.4475  3.5234  0.4391
10173TIP3    H252011   1.149   0.195   3.734  0.6858  1.5990  0.0253
10174TIP3   OH252012   1.441   3.632  11.429 -0.2273  0.0054  0.1851
10174TIP3    H152013   1.356   3.630  11.386  0.5960  2.3538 -1.6249
10174TIP3    H252014   1.483   3.550  11.402 -0.8347  0.1274 -1.1640
10175TIP3   OH252015   0.807   1.081   0.801  0.1046 -0.0729 -0.1993
10175TIP3    H152016   0.791   1.070   0.708  2.6931  0.6323 -0.7548
10175TIP3    H252017   0.813   1.176   0.813 -1.7754 -0.0734  0.9854
10176TIP3   OH252018   4.313   3.893  15.557  0.9513  0.4211  0.1611
10176TIP3    H152019   4.230   3.926  15.523  1.5572  1.0080 -0.7696
10176TIP3    H252020   4.298   3.880  15.651 -0.2333  0.3803 -0.0358
10177TIP3   OH252021   3.713   2.533   4.494  0.1366  0.0340  0.2112
10177TIP3    H152022   3.807   2.534   4.479 -0.1351 -0.4962 -1.7382
10177TIP3    H252023   3.697   2.603   4.558  2.0325 -0.9989  1.8161
10178TIP3   OH252024   5.570   3.585  13.747 -0.3474  0.2790 -0.3620
10178TIP3    H152025   5.573   3.648  13.675 -2.5591  0.2334 -0.5316
10178TIP3    H252026   5.640   3.524  13.728 -1.1064  0.0848 -2.6902
10179TIP3   OH252027   0.595   3.456  17.226 -0.5037  0.1315 -0.1907
10179TIP3    H152028   0.526   3.487  17.285 -0.0014  1.9943 -0.5632
10179TIP3    H252029   0.672   3.447  17.283 -0.6984 -0.6322 -0.0431
10180TIP3   OH252030   0.643   4.547   0.089 -0.4945  0.2925  0.1854
10180TIP3    H152031   0.691   4.583   0.015  0.0126 -1.4744 -0.3606
10180TIP3    H252032   0.560   4.518   0.052 -0.3233 -0.4007  0.3321
10181TIP3   OH252033   2.757   2.925   2.584 -0.2160 -0.2535 -0.0832
10181TIP3    H152034   2.682   2.981   2.603 -1.9907 -1.7051 -2.4783
10181TIP3    H252035   2.806   2.972   2.516 -1.0457 -1.0097 -1.2247
10182TIP3   OH252036   1.029   2.433  17.095  0.0203  0.5087  0.4721
10182TIP3    H152037   0.970   2.369  17.135 -0.0117 -0.1210 -0.5429
10182TIP3    H252038   0.972   2.484  17.037  0.5188 -0.3947 -0.8574
10183TIP3   OH252039   1.905   1.017  13.092  0.3991 -0.2705  0.5391
10183TIP3    H152040   1.837   1.018  13.024 -0.7803  0.5251  1.7064
10183TIP3    H252041   1.912   0.924  13.116 -1.5272 -0.1714  1.6054
10184TIP3   OH252042   3.297   3.299   0.913 -0.0752 -0.7507  0.3741
10184TIP3    H152043   3.313   3.238   0.984 -1.8982 -2.5136 -0.6817
10184TIP3    H252044   3.309   3.385   0.952  1.5714 -1.7292  2.1296
10185TIP3   OH252045   0.033   4.404  13.899  0.4650  0.1518  0.5345
10185TIP3    H152046  -0.010   4.486  13.875 -0.6472 -0.3528  0.8137
10185TIP3    H252047   0.005   4.387  13.989  0.4548 -0.6904  0.3745
10186TIP3   OH252048   2.510   5.562  16.983 -0.0947 -0.4683  0.0216
10186TIP3    H152049   2.471   5.649  16.978 -0.7006 -0.6951  0.7622
10186TIP3    H252050   2.587   5.567  16.926 -0.0327  0.6004  0.1861
10187TIP3   OH252051   1.823   1.498   0.976 -0.0743  0.1862  0.3525
10187TIP3    H152052   1.840   1.484   0.883 -1.1712  1.9217 -0.1404
10187TIP3    H252053   1.731   1.474   0.987  0.0957 -0.1720  1.0316
10188TIP3   OH252054   1.032   3.278   1.075 -0.4595  0.3426  0.0675
10188TIP3    H152055   1.068   3.364   1.097 -0.0178  0.4339 -1.0056
10188TIP3    H252056   0.986   3.251   1.155  1.2186  0.6152  1.1500
10189TIP3   OH252057   5.640   1.817   4.269 -0.7079  0.5072  0.2982
10189TIP3    H152058   5.715   1.788   4.320  0.3904  0.7150 -1.1604
10189TIP3    H252059   5.649   1.912   4.266  0.0978  0.3965 -1.5358
10190TIP3   OH252060   4.677   5.264   5.725 -0.1341  0.3990  0.0328
10190TIP3    H152061   4.649   5.304   5.807  1.1394 -1.7323  1.5688
10190TIP3    H252062   4.609   5.200   5.704  0.4426 -0.3598  0.4339
10191TIP3   OH252063   4.575   0.314  13.721 -0.1601 -0.1447  0.4664
10191TIP3    H152064   4.546   0.325  13.630 -2.5042 -0.0650  1.1687
10191TIP3    H252065   4.496   0.333  13.772  1.2622  0.2397  2.5332
10192TIP3   OH252066   3.179   3.604   3.652  0.1774  0.4283  0.1705
10192TIP3    H152067   3.255   3.559   3.615 -0.8281  0.3518 -1.9006
10192TIP3    H252068   3.191   3.599   3.746  2.4213 -0.1285 -0.1248
10193TIP3   OH252069   6.253   2.435   1.242 -0.0987  0.7665 -0.0864
10193TIP3    H152070   6.204   2.370   1.193  0.4823 -0.7144  1.2503
10193TIP3    H252071   6.207   2.441   1.326  1.4020  0.0711  0.8114
10194TIP3   OH252072   6.777   0.527  15.040  0.6439 -0.1802 -0.7548
10194TIP3    H152073   6.763   0.607  15.091 -1.2313 -0.6114 -0.5567
10194TIP3    H252074   6.843   0.550  14.976 -0.3481  1.7176 -1.1143
10195TIP3   OH252075   6.402   1.220   2.948  0.5941  0.0640  0.2992
10195TIP3    H152076   6.334   1.169   2.994  2.4259 -1.8882  0.9404
10195TIP3    H252077   6.375   1.218   2.856 -1.0002  0.5793  0.7415
10196TIP3   OH252078   6.179   2.559  14.209  0.7622 -0.4323  0.4196
10196TIP3    H152079   6.201   2.502  14.282  0.0488 -1.1043  0.1165
10196TIP3    H252080   6.126   2.505  14.151  0.6124  0.3455 -0.1863
10197TIP3   OH252081   6.760   0.799   1.661  0.0456 -0.3027  0.2263
10197TIP3    H152082   6.703   0.855   1.712  1.8954  0.0192  2.0079
10197TIP3    H252083   6.816   0.860   1.612  1.2251 -0.5804  1.2132
10198TIP3   OH252084   0.838   1.412   1.454  0.0494 -0.5783 -0.1070
10198TIP3    H152085   0.922   1.370   1.435 -0.0180 -0.5645 -0.4254
10198TIP3    H252086   0.840   1.426   1.549  0.3049 -0.7975 -0.0784
10199TIP3   OH252087   6.719   1.482   1.799  0.0117  0.0187  0.3473
10199TIP3    H152088   6.649   1.544   1.820  0.3773  0.7039 -0.4079
10199TIP3    H252089   6.771   1.477   1.879 -0.1365  0.5341  0.4805
10200TIP3   OH252090   5.331   4.953   4.080 -0.5021 -0.5464  0.2143
10200TIP3    H152091   5.281   4.890   4.027 -1.0275 -0.8028  0.9941
10200TIP3    H252092   5.417   4.912   4.090 -0.2840 -0.3235 -0.7490
10201TIP3   OH252093   1.238   0.802   4.908  0.0432  0.0059  0.4217
10201TIP3    H152094   1.277   0.847   4.834 -0.8672  0.7934  0.4193
10201TIP3    H252095   1.177   0.738   4.869  1.8409 -1.7447  0.3986
10202TIP3   OH252096   6.733   0.501   2.050  0.0610  0.9216  0.1470
10202TIP3    H152097   6.764   0.539   1.968 -0.5706  0.6386 -0.2202
10202TIP3    H252098   6.662   0.442   2.025  1.2409 -0.7549  0.6760
10203TIP3   OH252099   2.606   6.369  14.559  0.2227 -0.2376  1.0475
10203TIP3    H152100   2.592   6.287  14.512  1.8341 -0.1270  0.3502
10203TIP3    H252101   2.579   6.350  14.649 -0.9552 -1.0477  0.5365
10204TIP3   OH252102   5.302   6.198   6.290 -0.6486 -0.6324  0.5943
10204TIP3    H152103   5.284   6.239   6.375  0.7595  0.1412  0.5327
10204TIP3    H252104   5.234   6.231   6.232  0.2233  1.3010  0.6547
10205TIP3   OH252105   4.734   0.002  12.810 -0.0391  0.4010  0.0430
10205TIP3    H152106   4.744  -0.029  12.719 -0.3372 -1.3907  0.5999
10205TIP3    H252107   4.670  -0.059  12.848 -0.4006  1.5527  1.2700
10206TIP3   OH252108   5.400   0.325   2.687 -0.0003  0.3065  0.1039
10206TIP3    H152109   5.357   0.240   2.674 -1.8672  1.3603 -0.8142
10206TIP3    H252110   5.440   0.345   2.603  1.0310  0.0320  0.5221
10207TIP3   OH252111   0.551   0.456   0.468 -0.0736 -0.4430 -0.2302
10207TIP3    H152112   0.490   0.508   0.520  1.6335  2.3366 -0.9219
10207TIP3    H252113   0.505   0.441   0.385 -0.1850  0.8320 -0.4041
10208TIP3   OH252114   5.845   1.459   3.739  0.1392 -0.2354  0.0138
10208TIP3    H152115   5.923   1.512   3.721 -0.0504 -0.4391 -1.5073
10208TIP3    H252116   5.862   1.375   3.696 -0.5382 -0.5866  0.4256
10209TIP3   OH252117   4.731   5.495  11.351  0.0497  0.9543 -0.1515
10209TIP3    H152118   4.746   5.455  11.436 -1.9121  0.4469 -0.0130
10209TIP3    H252119   4.811   5.543  11.332  0.7686  0.4967  1.6552
10210TIP3   OH252120   1.839   1.833  12.293  0.4423 -0.7285  0.7526
10210TIP3    H152121   1.884   1.848  12.211 -0.7533  0.5002  0.3022
10210TIP3    H252122   1.874   1.898  12.353 -3.3909  2.8931 -0.6730
10211TIP3   OH252123   4.686   1.966   4.685  0.0599 -0.0708  0.2393
10211TIP3    H152124   4.747   1.913   4.737  1.0345  1.2172  0.4431
10211TIP3    H252125   4.735   2.046   4.665 -1.0380  0.3328 -0.9057
10212TIP3   OH252126   5.625   3.148  10.818  0.8694 -0.8957  0.1837
10212TIP3    H152127   5.664   3.061  10.807 -0.9687 -1.7396  0.1667
10212TIP3    H252128   5.595   3.172  10.730  0.8301 -0.5048  0.3033
10213TIP3   OH252129   5.959   6.716   1.849 -0.4278 -0.3590 -0.0904
10213TIP3    H152130   5.919   6.782   1.906  0.9106  0.6856 -0.3424
10213TIP3    H252131   5.893   6.648   1.842 -1.6799  0.7671  0.5067
10214TIP3   OH252132   0.435   4.710  14.109 -0.1297  0.2615 -0.0280
10214TIP3    H152133   0.414   4.621  14.081  1.1540  0.1394 -0.6343
10214TIP3    H252134   0.530   4.714  14.106 -0.2081  1.8989 -0.7220
10215TIP3   OH252135   0.627   5.517   3.201 -0.2486 -0.6474 -0.6798
10215TIP3    H152136   0.719   5.543   3.205 -0.2842 -0.7839  1.4458
10215TIP3    H252137   0.607   5.486   3.289 -2.9029  1.3550 -0.5208
10216TIP3   OH252138   4.960   5.956   0.305  0.1547 -0.3428 -0.6749
10216TIP3    H152139   4.901   5.909   0.363  0.4513 -1.1637 -1.0329
10216TIP3    H252140   4.961   5.904   0.224  0.6188  0.1812 -1.0083
10217TIP3   OH252141   0.352   1.868   4.665 -0.3693  0.3657  0.4478
10217TIP3    H152142   0.259   1.856   4.644  0.1480 -1.1059 -1.1537
10217TIP3    H252143   0.388   1.914   4.589  0.3589  0.3003  0.7482
10218TIP3   OH252144   5.777   3.435   4.148 -0.4649 -0.2211  0.0649
10218TIP3    H152145   5.714   3.364   4.156 -0.4553 -0.2116  0.2200
10218TIP3    H252146   5.756   3.495   4.220 -0.2403 -0.2472  0.1539
10219TIP3   OH252147   4.711   4.634   4.795  0.7871  0.0878  0.6642
10219TIP3    H152148   4.779   4.674   4.850 -0.2745  2.4456  0.3049
10219TIP3    H252149   4.716   4.682   4.712 -0.6543 -0.4085  0.2786
10220TIP3   OH252150   2.670   4.382  15.155 -0.1132  0.2004  0.3095
10220TIP3    H152151   2.658   4.477  15.159  1.6222  0.6410 -3.0057
10220TIP3    H252152   2.760   4.371  15.125  0.2233 -2.5655  2.1656
10221TIP3   OH252153   1.672   6.639  16.444  0.2011 -0.0079  0.3568
10221TIP3    H152154   1.641   6.570  16.384  0.6779  1.4769 -1.6458
10221TIP3    H252155   1.719   6.700  16.387  1.5732  0.9122  2.4307
10222TIP3   OH252156   6.111   1.679  13.730 -0.3090  0.3049  0.2796
10222TIP3    H152157   6.024   1.719  13.737  0.1044  1.2863 -0.1624
10222TIP3    H252158   6.170   1.743  13.769  0.3754  0.1724 -0.5463
10223TIP3   OH252159   2.163   6.253   1.585 -0.1269 -0.2853  0.0684
10223TIP3    H152160   2.215   6.270   1.663 -0.4187 -0.4504  0.2968
10223TIP3    H252161   2.228   6.232   1.518  0.1042 -0.4549  0.3436
10224TIP3   OH252162   3.527   0.130  13.762  0.2955  0.3312  0.7395
10224TIP3    H152163   3.577   0.197  13.715  2.7353 -1.6988  0.3365
10224TIP3    H252164   3.526   0.055  13.703  0.2122 -1.0070  2.4096
10225TIP3   OH252165   4.456   2.072   3.291  0.5667 -0.2037  0.5656
10225TIP3    H152166   4.448   2.002   3.356  1.0805 -2.9497 -2.1907
10225TIP3    H252167   4.549   2.097   3.294  0.7871 -0.9714  0.2856
10226TIP3   OH252168   4.103   4.084   4.542 -0.4398  0.2956  0.3925
10226TIP3    H152169   4.009   4.102   4.537 -0.4496  0.0190 -0.5390
10226TIP3    H252170   4.124   4.093   4.635 -2.1044 -3.2261  1.2079
10227TIP3   OH252171   2.288   0.210   4.993  0.5558  0.2576 -0.1716
10227TIP3    H152172   2.218   0.234   5.052  0.7124 -0.5019  0.3198
10227TIP3    H252173   2.365   0.255   5.027  0.8413 -0.9051  0.7303
10228TIP3   OH252174   1.352   5.782  16.807 -1.1536 -0.2781  0.6208
10228TIP3    H152175   1.282   5.839  16.776 -2.5681 -0.9881  2.3851
10228TIP3    H252176   1.310   5.727  16.874  0.6909 -1.8748  0.5127
10229TIP3   OH252177   0.600   3.883   4.468 -0.1573  0.2576 -0.2487
10229TIP3    H152178   0.514   3.887   4.425 -0.8312  1.1989  1.1416
10229TIP3    H252179   0.598   3.954   4.533  1.2983 -0.3525  0.4945
10230TIP3   OH252180   4.601   0.137  12.257 -0.0797 -0.4661 -0.5037
10230TIP3    H152181   4.578   0.224  12.224  1.4959  0.1611 -0.0306
10230TIP3    H252182   4.696   0.130  12.240  0.1489 -1.3579  1.1057
10231TIP3   OH252183   4.954   5.717  11.761  0.0834 -0.5555  0.7785
10231TIP3    H152184   5.005   5.641  11.734  2.8765  0.0887  3.9045
10231TIP3    H252185   4.871   5.680  11.791  0.9489 -2.2631  1.1480
10232TIP3   OH252186   0.234   6.792  16.525  0.2828 -0.1888  0.4134
10232TIP3    H152187   0.184   6.857  16.574 -2.3770 -0.7015 -1.4666
10232TIP3    H252188   0.206   6.708  16.561 -0.6213 -0.5003 -0.9464
10233TIP3   OH252189   1.721   0.911  13.502 -0.2962  0.6301 -0.2899
10233TIP3    H152190   1.778   0.935  13.430  0.7597  0.1437  0.3703
10233TIP3    H252191   1.724   0.986  13.562 -1.7509  1.3454 -1.0799
10234TIP3   OH252192   0.187   0.738  16.223 -0.8559  0.1444 -0.2174
10234TIP3    H152193   0.126   0.664  16.233  0.4349 -1.2616 -2.2633
10234TIP3    H252194   0.131   0.812  16.202 -1.9989 -0.8001 -0.5948
10235TIP3   OH252195   6.007   5.088  13.417  0.1948  0.4638 -0.0376
10235TIP3    H152196   5.950   5.094  13.340  1.0263  0.4162 -0.6660
10235TIP3    H252197   6.065   5.164  13.410  0.5195  0.2496  0.3383
10236TIP3   OH252198   0.657   6.441  15.223  0.1167 -0.0419  0.4836
10236TIP3    H152199   0.605   6.459  15.145 -0.2026 -0.7781  0.5292
10236TIP3    H252200   0.624   6.504  15.288 -1.1555 -0.9074  0.7028
10237TIP3   OH252201   5.033   2.789   3.570  0.0081  0.0614  0.2254
10237TIP3    H152202   5.056   2.871   3.527  1.0152 -0.7242 -0.7801
10237TIP3    H252203   4.968   2.750   3.511  1.3223 -0.9744 -0.5733
10238TIP3   OH252204   5.997   5.516   0.323 -0.0557 -0.6595  0.4698
10238TIP3    H152205   5.936   5.461   0.274 -1.9991  1.6287  0.2721
10238TIP3    H252206   6.068   5.534   0.261  0.0166 -1.9286  0.1665
10239TIP3   OH252207   6.457   0.169  13.532 -0.3134 -0.3762 -0.3366
10239TIP3    H152208   6.409   0.215  13.463 -2.3044 -0.5634  0.8930
10239TIP3    H252209   6.397   0.167  13.606  0.4243 -3.3948  0.2210
10240TIP3   OH252210   4.720   3.297   0.159 -0.4248  0.4207 -0.2831
10240TIP3    H152211   4.715   3.202   0.148 -2.1162  0.4178  0.3538
10240TIP3    H252212   4.702   3.312   0.251 -1.9785  1.4710 -0.7311
10241TIP3   OH252213   3.846   0.771   2.172 -0.4805 -0.3191 -0.3889
10241TIP3    H152214   3.933   0.732   2.171 -0.9487 -1.3794 -1.0399
10241TIP3    H252215   3.853   0.845   2.112 -0.0878 -0.5626 -0.6513
10242TIP3   OH252216   6.006   4.185  13.326 -0.3077  0.0252  0.1847
10242TIP3    H152217   6.083   4.208  13.377 -0.0882 -1.5420  0.5732
10242TIP3    H252218   5.942   4.254  13.346  0.3643  0.3439  1.2437
10243TIP3   OH252219   4.213   2.617  12.263  0.0628  0.3927 -0.4430
10243TIP3    H152220   4.142   2.557  12.282 -0.0158  0.6852  0.1953
10243TIP3    H252221   4.219   2.618  12.167 -1.1261  0.7655 -0.5140
10244TIP3   OH252222   1.479   5.574  12.492  0.2252 -0.5340  0.5720
10244TIP3    H152223   1.495   5.566  12.397  0.8280 -1.1818  0.7261
10244TIP3    H252224   1.545   5.638  12.521 -0.8967  0.7575  0.3142
10245TIP3   OH252225   5.458   0.302  13.302 -0.0247  0.1058  0.0874
10245TIP3    H152226   5.521   0.343  13.361  1.4169 -1.7479 -0.1003
10245TIP3    H252227   5.498   0.217  13.281 -1.2192  0.1213 -2.3491
10246TIP3   OH252228   4.697   0.427  15.233  0.4934  0.7220 -0.4433
10246TIP3    H152229   4.629   0.425  15.165 -0.4158 -0.0485  0.4712
10246TIP3    H252230   4.775   0.459  15.188  0.1675 -0.7577 -2.1172
10247TIP3   OH252231   5.427   4.816  16.694  0.1640  0.4464 -0.0786
10247TIP3    H152232   5.363   4.827  16.765 -1.6659 -1.6185 -1.3337
10247TIP3    H252233   5.411   4.890  16.636 -0.4919  0.4313  0.0770
10248TIP3   OH252234   0.248   5.869  12.001 -0.2994  0.4724 -0.5357
10248TIP3    H152235   0.223   5.781  12.027  0.4645  0.1778 -0.7751
10248TIP3    H252236   0.330   5.857  11.952  0.3394  1.3973  0.2733
10249TIP3   OH252237   3.243   1.182   2.649  0.2176  0.3662 -0.1805
10249TIP3    H152238   3.206   1.106   2.694  0.5323  0.4652  0.2556
10249TIP3    H252239   3.204   1.257   2.694  1.2415  0.4740  0.5380
10250TIP3   OH252240   6.549   1.164  13.612  0.4355  0.0116 -0.6323
10250TIP3    H152241   6.454   1.173  13.616  0.4499 -0.6707  1.7063
10250TIP3    H252242   6.568   1.150  13.519 -1.8479 -1.0648 -0.9624
10251TIP3   OH252243   0.524   1.300   1.480 -0.3367  0.2887 -0.0597
10251TIP3    H152244   0.615   1.326   1.494  0.0326 -1.0533  0.1561
10251TIP3    H252245   0.505   1.326   1.390 -0.4542  2.5618  0.6032
10252TIP3   OH252246   6.078   3.545   5.060  0.4228  0.4357 -0.2063
10252TIP3    H152247   6.120   3.537   4.974  0.4852  1.4761 -0.2813
10252TIP3    H252248   5.986   3.563   5.039  0.0159 -1.3403 -0.0438
10253TIP3   OH252249   3.554   4.911   4.815 -0.5342  0.1170 -0.4980
10253TIP3    H152250   3.534   4.998   4.781  1.5093  1.4842  1.5717
10253TIP3    H252251   3.621   4.877   4.757  1.0032  1.3242  0.5049
10254TIP3   OH252252   2.862   6.165  13.745  0.4135 -0.0950  0.7241
10254TIP3    H152253   2.816   6.170  13.829  1.6624 -0.6822  1.4599
10254TIP3    H252254   2.954   6.158  13.769  0.9789  2.1404 -0.7538
10255TIP3   OH252255   4.014   0.224   1.513 -0.3555  0.4993  0.2202
10255TIP3    H152256   4.065   0.168   1.455 -1.3103  0.1042 -0.2464
10255TIP3    H252257   4.004   0.173   1.593  0.7462  0.9436  0.6519
10256TIP3   OH252258   3.170   2.174   1.585 -0.3560  0.1121 -0.0923
10256TIP3    H152259   3.263   2.170   1.608 -0.6030 -0.3365  0.8387
10256TIP3    H252260   3.124   2.156   1.667 -1.3097  3.3792  0.1685
10257TIP3   OH252261   2.782   0.094  12.351  0.5222  0.0706  0.6871
10257TIP3    H152262   2.736   0.112  12.270 -1.1413 -0.3884  1.5077
10257TIP3    H252263   2.835   0.016  12.332  0.5834  0.3102 -0.1180
10258TIP3   OH252264   4.397   5.424  12.203 -0.4114 -0.1897  0.2354
10258TIP3    H152265   4.455   5.501  12.203  0.2583 -0.6868  0.1497
10258TIP3    H252266   4.435   5.366  12.269  0.4944 -1.4871 -1.3881
10259TIP3   OH252267   1.642   3.399   2.418  0.1904 -0.5259 -0.0416
10259TIP3    H152268   1.699   3.396   2.341  1.2174 -0.7296  0.7146
10259TIP3    H252269   1.593   3.317   2.414  0.7862 -0.8863 -0.0687
10260TIP3   OH252270   6.077   1.262  16.395  0.1643 -0.1665  0.2326
10260TIP3    H152271   6.157   1.213  16.376  0.8863  1.0691  0.0697
10260TIP3    H252272   6.088   1.345  16.350  0.2783  1.3764  2.9763
10261TIP3   OH252273   6.444   3.481  15.140 -0.6065 -0.4571 -0.2528
10261TIP3    H152274   6.470   3.451  15.053  2.8157  0.0360  0.5432
10261TIP3    H252275   6.445   3.402  15.194  0.3702 -0.2724  0.0141
10262TIP3   OH252276   2.238   0.940  15.162 -0.2388 -0.0750  0.1618
10262TIP3    H152277   2.207   0.888  15.236 -3.2504  0.7572 -0.4349
10262TIP3    H252278   2.277   1.017  15.201 -0.8264 -0.1613  0.9398
10263TIP3   OH252279   3.726   4.140  16.822  0.2291  0.1222  0.3759
10263TIP3    H152280   3.820   4.138  16.803  0.2682  1.2033  0.4307
10263TIP3    H252281   3.719   4.185  16.906 -0.4322  1.3182 -0.3091
10264TIP3   OH252282   5.828   3.614   3.903 -0.0562 -0.2212 -0.1364
10264TIP3    H152283   5.825   3.638   3.810 -1.3319  0.3936  0.0540
10264TIP3    H252284   5.857   3.693   3.948  1.0105 -0.6561 -0.0566
10265TIP3   OH252285   1.579   4.052   5.851 -0.0364 -0.6530 -0.1111
10265TIP3    H152286   1.569   3.995   5.775 -0.2380 -3.3171  1.8316
10265TIP3    H252287   1.671   4.077   5.851  0.2598 -1.7459 -0.4715
10266TIP3   OH252288   6.191   0.234  16.556 -0.1737  0.4918 -0.4592
10266TIP3    H152289   6.111   0.220  16.505 -0.2382 -1.7044  0.2027
10266TIP3    H252290   6.252   0.168  16.523  0.4606  0.3800  0.9195
10267TIP3   OH252291   6.447   1.496   5.320 -0.3419 -0.1584  0.3626
10267TIP3    H152292   6.470   1.493   5.413 -0.8542  0.8466  0.5295
10267TIP3    H252293   6.397   1.577   5.311  0.9163  0.4728 -1.0705
10268TIP3   OH252294   2.932   4.435   5.720  0.3062 -0.0638 -0.6255
10268TIP3    H152295   2.897   4.369   5.659  0.5002 -0.1409 -0.6532
10268TIP3    H252296   3.026   4.420   5.720  0.1782 -0.9531  0.7327
10269TIP3   OH252297   2.827   0.602   3.277 -0.1285  0.2192  0.1156
10269TIP3    H152298   2.833   0.543   3.353 -1.5275  1.3073  1.0813
10269TIP3    H252299   2.749   0.655   3.293  1.0039  2.2321 -0.8214
10270TIP3   OH252300   6.142   1.110  14.917  0.0186  0.2669  0.2625
10270TIP3    H152301   6.113   1.116  14.826  0.3770  2.5496  0.2639
10270TIP3    H252302   6.061   1.112  14.969 -0.0989  1.2359  0.0592
10271TIP3   OH252303   4.510   3.853   0.334 -0.2452  0.3771  0.4027
10271TIP3    H152304   4.582   3.890   0.385 -0.1981  1.0728 -0.1493
10271TIP3    H252305   4.510   3.904   0.253  1.6471 -2.7387 -1.6302
10272TIP3   OH252306   3.326   0.470  10.520 -0.1594  0.1140 -0.8330
10272TIP3    H152307   3.406   0.420  10.536  1.6080  2.5531 -1.7197
10272TIP3    H252308   3.260   0.404  10.499  1.2388 -2.0518  1.2781
10273TIP3   OH252309   2.981   2.393   4.309  0.5332  0.5864  0.2803
10273TIP3    H152310   2.943   2.477   4.334 -0.2637  0.0561  0.8521
10273TIP3    H252311   2.911   2.349   4.261  0.8680  0.1297  0.2110
10274TIP3   OH252312   5.883   1.384   2.423  0.8640 -0.4688  0.0236
10274TIP3    H152313   5.850   1.305   2.380 -0.1561 -0.0700  0.0638
10274TIP3    H252314   5.931   1.429   2.353 -1.0679  0.3396 -0.8327
10275TIP3   OH252315   4.746   3.130  12.281 -0.6089  0.4681  0.0881
10275TIP3    H152316   4.830   3.129  12.235 -0.0768  0.1313  1.0571
10275TIP3    H252317   4.750   3.055  12.340 -2.0782 -0.2595 -0.7116
10276TIP3   OH252318   3.178   0.363   4.990 -0.2902  0.1028 -0.1697
10276TIP3    H152319   3.246   0.296   4.981 -1.0792 -1.0424  1.9507
10276TIP3    H252320   3.206   0.415   5.066 -0.1409  1.6675 -1.2674
10277TIP3   OH252321   1.555   1.492   1.480  0.1612  0.1380 -0.2849
10277TIP3    H152322   1.533   1.486   1.573 -0.2262 -0.6129 -0.4208
10277TIP3    H252323   1.638   1.540   1.478 -0.6680  1.6322  0.3254
10278TIP3   OH252324   5.972   4.874   0.108  0.1259 -0.4408 -0.2219
10278TIP3    H152325   6.029   4.902   0.180 -1.5867 -0.3211  1.1468
10278TIP3    H252326   6.008   4.916   0.030  0.3732  1.7381  1.0317
10279TIP3   OH252327   4.988   5.338   4.764 -0.7467  0.3076  0.3881
10279TIP3    H152328   4.933   5.388   4.704 -0.9268 -0.4424 -0.0801
10279TIP3    H252329   4.933   5.264   4.791 -0.1673 -0.1377  0.3627
10280TIP3   OH252330   2.611   6.359  11.489 -0.2465 -0.2653  0.3320
10280TIP3    H152331   2.667   6.356  11.411 -0.2058 -1.9410  0.4088
10280TIP3    H252332   2.671   6.343  11.562 -0.2732  1.3784  0.7231
10281TIP3   OH252333   1.367   5.476  13.024 -0.0113 -0.1861  0.0687
10281TIP3    H152334   1.417   5.420  13.082  1.1030 -0.1682 -0.8559
10281TIP3    H252335   1.321   5.537  13.082 -0.1965 -1.2127  1.0029
10282TIP3   OH252336   3.015   4.403   3.749  0.1369  0.4773 -0.4850
10282TIP3    H152337   3.094   4.381   3.799  0.2486 -1.1784 -1.3744
10282TIP3    H252338   2.945   4.408   3.815  0.6252  0.1070  0.0659
10283TIP3   OH252339   4.958   3.701   2.386  0.2756  0.5250 -0.0867
10283TIP3    H152340   4.922   3.774   2.437  0.4962  0.5659  0.0120
10283TIP3    H252341   5.049   3.695   2.415 -0.0085 -0.4193  0.6113
10284TIP3   OH252342   0.792   5.851   4.799  0.7144  0.0082  0.3675
10284TIP3    H152343   0.828   5.939   4.807  0.4628  0.1245  0.2465
10284TIP3    H252344   0.783   5.838   4.705 -0.3290  0.2999  0.4213
10285TIP3   OH252345   3.927   0.933  15.199  0.2930 -0.1117  0.6137
10285TIP3    H152346   3.948   1.015  15.155  0.4208  0.3318  1.4802
10285TIP3    H252347   3.991   0.927  15.270  0.3982 -1.0515  0.4556
10286TIP3   OH252348   0.225   0.807   5.124  0.1214 -0.1397  0.4651
10286TIP3    H152349   0.304   0.800   5.070 -0.3630 -2.0286 -0.0506
10286TIP3    H252350   0.153   0.783   5.065 -0.7985  1.2303  1.0230
10287TIP3   OH252351   6.238   0.113   3.922 -0.0389 -0.3667 -0.2518
10287TIP3    H152352   6.250   0.079   4.010  1.2174  3.5467  1.1739
10287TIP3    H252353   6.143   0.114   3.909 -0.2016 -1.7056  0.6792
10288TIP3   OH252354   4.391   3.739   1.029  0.5898  0.5793 -0.1562
10288TIP3    H152355   4.337   3.665   1.058 -1.8585  1.1473 -2.9214
10288TIP3    H252356   4.460   3.698   0.977  0.3596  0.0946 -0.0897
10289TIP3   OH252357   1.660   6.638  14.694  0.5994 -0.0480  0.9625
10289TIP3    H152358   1.737   6.603  14.739 -0.0030 -0.0932  1.9772
10289TIP3    H252359   1.673   6.733  14.694  1.0429 -0.1092  0.4108
10290TIP3   OH252360   1.810   1.622   1.444  0.0705  1.1525 -0.5470
10290TIP3    H152361   1.776   1.708   1.468  0.4134  1.4402 -1.0757
10290TIP3    H252362   1.901   1.638   1.420  0.6318  0.3739  0.9855
10291TIP3   OH252363   6.571   2.819   4.044 -0.7936 -0.1338 -0.0159
10291TIP3    H152364   6.476   2.805   4.035 -0.4759 -1.8886 -0.8211
10291TIP3    H252365   6.609   2.767   3.974  0.7475  1.1290 -0.1356
10292TIP3   OH252366   0.467   4.309   2.768 -0.0058  0.7695 -0.5342
10292TIP3    H152367   0.552   4.320   2.811 -0.5464  3.5573 -0.1007
10292TIP3    H252368   0.488   4.309   2.675  0.5342  0.9822 -0.4179
10293TIP3   OH252369   4.220   3.222  11.914 -0.0429  0.2173 -0.1068
10293TIP3    H152370   4.172   3.291  11.960 -0.8685 -0.3158 -0.1545
10293TIP3    H252371   4.181   3.140  11.945  0.9095 -0.2293 -0.0743
10294TIP3   OH252372   4.498   4.287  16.999  0.0636 -0.5415  0.4112
10294TIP3    H152373   4.438   4.239  16.942  1.2679 -3.3507  1.4115
10294TIP3    H252374   4.563   4.324  16.939  0.6509 -2.4744 -0.2068
10295TIP3   OH252375   2.016   3.703   0.080 -0.0299 -0.1443  0.7157
10295TIP3    H152376   1.967   3.621   0.078  0.9447 -0.7942  2.6462
10295TIP3    H252377   1.954   3.769   0.110 -0.7551 -0.1861 -0.6318
10296TIP3   OH252378   1.803   2.704  10.881 -0.0212  0.0080 -0.4530
10296TIP3    H152379   1.769   2.635  10.824 -0.0313 -0.6143  0.2872
10296TIP3    H252380   1.725   2.750  10.912 -0.3381 -2.2551  2.2909
10297TIP3   OH252381   1.170   1.512  13.946 -0.2722  0.1941  0.4574
10297TIP3    H152382   1.083   1.478  13.964 -0.0969 -0.7515 -0.4425
10297TIP3    H252383   1.187   1.488  13.855  0.7431  0.7662  0.4880
10298TIP3   OH252384   1.980   4.250  16.776 -0.5387  0.4717  0.1217
10298TIP3    H152385   2.064   4.297  16.779  0.8167 -1.8858  0.4546
10298TIP3    H252386   1.998   4.172  16.724 -1.8433 -1.3690  2.3542
10299TIP3   OH252387   2.145   2.674  16.517  0.3098  0.6102  0.1171
10299TIP3    H152388   2.199   2.612  16.468  0.1430 -0.4733  1.2906
10299TIP3    H252389   2.208   2.738  16.552  0.6778  0.1419  0.3151
10300TIP3   OH252390   4.054   3.558  12.841 -0.0379  0.3983 -0.1351
10300TIP3    H152391   4.116   3.604  12.784  1.2996 -0.1495  0.8379
10300TIP3    H252392   4.068   3.595  12.928  1.5182 -2.1971  0.7990
10301TIP3   OH252393   5.032   5.104   2.573 -0.4512  0.1615 -0.4864
10301TIP3    H152394   4.937   5.114   2.565 -0.4650  0.3733 -0.0371
10301TIP3    H252395   5.069   5.183   2.534 -0.4509 -0.0412 -0.9007
10302TIP3   OH252396   3.673   0.185  12.369 -0.2832 -0.4569  0.0636
10302TIP3    H152397   3.648   0.183  12.276 -1.3240  1.4930  0.2806
10302TIP3    H252398   3.699   0.095  12.388 -1.9416 -1.3409 -1.6117
10303TIP3   OH252399   1.630   2.824   4.403  0.2485 -0.1484  0.1666
10303TIP3    H152400   1.557   2.789   4.454 -0.5605 -0.9249 -1.4685
10303TIP3    H252401   1.705   2.770   4.429  0.1079  0.2226  1.3700
10304TIP3   OH252402   0.065   0.517   4.571  0.1453  0.8899  0.3063
10304TIP3    H152403   0.110   0.455   4.629 -0.4465 -0.2417 -0.4413
10304TIP3    H252404  -0.028   0.501   4.586 -0.0079  1.3696 -0.1314
10305TIP3   OH252405   1.974   1.586  14.138  0.0508 -0.6049  0.3455
10305TIP3    H152406   1.908   1.607  14.071  0.3486 -0.5317  0.0702
10305TIP3    H252407   2.028   1.664  14.143  0.5201 -0.9122  0.0885
10306TIP3   OH252408   2.389   6.477   1.994  0.4257  0.3314  0.8837
10306TIP3    H152409   2.422   6.486   2.083  2.1665  1.2475  0.1882
10306TIP3    H252410   2.349   6.562   1.975  1.1109  0.5486  0.3952
10307TIP3   OH252411   2.258   1.114   3.041  0.2383 -0.3508  0.1104
10307TIP3    H152412   2.170   1.150   3.051  0.8641  1.6242 -1.1466
10307TIP3    H252413   2.298   1.125   3.127 -0.7043 -1.1880  0.6657
10308TIP3   OH252414   6.700   1.539   2.509  0.4560  0.2830  0.4713
10308TIP3    H152415   6.782   1.490   2.511  0.5555  0.4524  3.3271
10308TIP3    H252416   6.709   1.599   2.435  3.4636  1.1977  1.4931
10309TIP3   OH252417   6.305   0.033   5.399  0.0756 -0.5930  0.1652
10309TIP3    H152418   6.267   0.110   5.442  0.0756  0.0726 -1.0007
10309TIP3    H252419   6.398   0.053   5.393  0.2266 -1.1114  0.7210
10310TIP3   OH252420   3.431   2.123   4.783 -0.3467  0.1722 -0.6431
10310TIP3    H152421   3.432   2.081   4.698 -1.7998 -0.2410 -0.4685
10310TIP3    H252422   3.371   2.197   4.773 -2.4822 -1.3244  0.6689
10311TIP3   OH252423   2.843   4.816   1.411  0.4728 -0.1828  0.0228
10311TIP3    H152424   2.747   4.822   1.412  0.5685  1.3766  0.7160
10311TIP3    H252425   2.861   4.727   1.441 -0.6750  0.7051  3.5521
10312TIP3   OH252426   6.090   3.127  13.950  0.0408 -0.1825  1.0624
10312TIP3    H152427   5.997   3.124  13.970  0.2612 -1.6062  1.9287
10312TIP3    H252428   6.127   3.052  13.997  1.2845 -0.8736 -0.9460
10313TIP3   OH252429   6.065   1.717  11.713 -0.5038  0.2250  0.3467
10313TIP3    H152430   6.029   1.735  11.800  0.1127  1.1932  0.4120
10313TIP3    H252431   6.113   1.797  11.690 -0.2722 -0.2003 -0.6865
10314TIP3   OH252432   2.259   3.333   4.836 -0.1053 -0.0288  0.1898
10314TIP3    H152433   2.262   3.372   4.924  2.5232 -1.8954  0.9727
10314TIP3    H252434   2.349   3.337   4.804 -0.8931 -0.0795 -2.1418
10315TIP3   OH252435   0.179   5.251  12.565 -0.1210  0.3531 -0.0864
10315TIP3    H152436   0.227   5.267  12.646 -3.3529  0.3797  1.9089
10315TIP3    H252437   0.168   5.156  12.562  0.5876  0.2883 -0.8874
10316TIP3   OH252438   1.830   5.554   5.115 -0.6907 -0.1451 -0.3725
10316TIP3    H152439   1.833   5.561   5.019 -1.6627 -2.0323 -0.5656
10316TIP3    H252440   1.922   5.549   5.142 -0.3707  1.3629 -1.0965
10317TIP3   OH252441   0.359   0.700   4.351  0.5855 -0.0125  0.0849
10317TIP3    H152442   0.317   0.753   4.418  1.2575 -1.3997  1.6495
10317TIP3    H252443   0.287   0.664   4.298 -0.0730 -0.5269  1.3197
10318TIP3   OH252444   2.232   1.084  17.181  0.3732 -0.2464 -0.3380
10318TIP3    H152445   2.263   0.995  17.164 -0.4043 -0.6770  0.4305
10318TIP3    H252446   2.140   1.082  17.153  0.8297  0.8082 -1.9515
10319TIP3   OH252447   5.933   4.347  16.355 -0.2450  0.2680 -0.3866
10319TIP3    H152448   6.027   4.368  16.353 -0.4121  0.9389 -1.9645
10319TIP3    H252449   5.929   4.252  16.348  0.3193  0.2359 -0.2827
10320TIP3   OH252450   1.885   4.822  15.789 -0.3041  0.0728 -0.1386
10320TIP3    H152451   1.857   4.839  15.699  0.6212  0.1596 -0.4124
10320TIP3    H252452   1.852   4.734  15.807 -0.8582  0.2185 -0.4112
10321TIP3   OH252453   3.657   0.992  12.993 -0.3401 -0.3075  0.1265
10321TIP3    H152454   3.641   1.055  13.063 -0.9474 -0.6734  0.3217
10321TIP3    H252455   3.640   0.907  13.033  0.2612 -0.5847 -0.1980
10322TIP3   OH252456   5.088   6.411   7.033  0.0964  0.0893 -0.4767
10322TIP3    H152457   5.081   6.433   6.940 -0.1585  1.4304 -0.1446
10322TIP3    H252458   5.181   6.390   7.046  0.1377 -0.0667 -1.0234
10323TIP3   OH252459   0.667   3.818   5.135 -0.0009 -0.1688  0.6746
10323TIP3    H152460   0.624   3.766   5.202 -1.1952 -1.6353 -1.1891
10323TIP3    H252461   0.616   3.899   5.131 -0.5637 -0.5129  0.8256
10324TIP3   OH252462   0.287   4.470  14.046 -1.3506  0.0054  0.1507
10324TIP3    H152463   0.205   4.508  14.014 -3.1377 -2.4947  1.5321
10324TIP3    H252464   0.322   4.422  13.972 -1.4590  0.5986 -0.2841
10325TIP3   OH252465   0.166   4.511  15.982 -0.3306 -0.0769 -0.3069
10325TIP3    H152466   0.161   4.606  15.987 -2.7781 -0.2501  1.0954
10325TIP3    H252467   0.245   4.488  16.031 -0.3762  1.1437  0.3321
10326TIP3   OH252468   5.626   1.229  14.916 -0.5114 -0.2385  0.1131
10326TIP3    H152469   5.565   1.159  14.937 -2.0955  0.6872 -1.3068
10326TIP3    H252470   5.580   1.309  14.939  0.9718  0.4015  0.9558
10327TIP3   OH252471   5.855   0.202  15.461  0.0927 -0.0979 -0.4349
10327TIP3    H152472   5.762   0.224  15.453  0.0162  0.2405  1.2932
10327TIP3    H252473   5.856   0.108  15.478  0.1841 -0.5004 -2.4831
10328TIP3   OH252474   1.324   2.217  12.407 -0.2788  0.6405 -0.1333
10328TIP3    H152475   1.233   2.226  12.379 -0.7064 -0.2267  0.9327
10328TIP3    H252476   1.332   2.279  12.480  0.2650  1.4214 -0.8425
10329TIP3   OH252477   5.322   5.790   6.039  0.9687 -0.1117  0.1448
10329TIP3    H152478   5.246   5.816   6.091  0.3453 -0.6698 -0.4622
10329TIP3    H252479   5.317   5.694   6.036  0.2757 -0.0407 -1.9638
10330TIP3   OH252480   5.729   2.755  15.292 -0.4077 -0.2240 -0.4198
10330TIP3    H152481   5.696   2.671  15.321  0.1058 -0.5732 -0.8414
10330TIP3    H252482   5.700   2.762  15.201  1.0627 -0.7404 -0.9462
10331TIP3   OH252483   2.764   4.460  15.885  0.2640  0.3245 -0.4540
10331TIP3    H152484   2.764   4.536  15.826 -1.0620 -0.7869 -1.9492
10331TIP3    H252485   2.702   4.483  15.954  1.5212  1.4778  0.3063
10332TIP3   OH252486   1.782   0.147   1.956  0.3607  0.4894  0.0362
10332TIP3    H152487   1.747   0.207   2.022 -0.8141 -0.0541 -0.0663
10332TIP3    H252488   1.746   0.178   1.873 -0.3402 -0.4004 -0.0039
10333TIP3   OH252489   0.665   3.361  13.032  0.2364  0.4227  0.0601
10333TIP3    H152490   0.740   3.414  13.057  0.5379  0.6411 -1.2828
10333TIP3    H252491   0.594   3.390  13.089  0.7578  1.3172  0.2524
10334TIP3   OH252492   6.700   5.172   0.949  0.2989  0.0942 -0.0537
10334TIP3    H152493   6.721   5.108   0.881  1.5433 -0.8748  1.2141
10334TIP3    H252494   6.785   5.205   0.978 -0.2970  1.6563 -0.0575
10335TIP3   OH252495   5.032   3.910  10.957 -0.5699  0.3838 -0.6369
10335TIP3    H152496   5.011   4.003  10.968 -0.6573  0.5193 -1.9413
10335TIP3    H252497   5.109   3.897  11.013 -1.0943  1.0197  0.2608
10336TIP3   OH252498   6.647   0.309  14.953 -0.1363 -0.5715 -0.5822
10336TIP3    H152499   6.697   0.282  14.876  0.0152 -0.3664 -0.5591
10336TIP3    H252500   6.691   0.389  14.983  1.0518 -1.7363  0.8845
10337TIP3   OH252501   3.182   2.202  11.975 -0.1753 -0.1039  0.4185
10337TIP3    H152502   3.208   2.124  12.025  0.1539 -0.1867  0.1201
10337TIP3    H252503   3.171   2.270  12.041  0.0705 -0.2626  0.6223
10338TIP3   OH252504   5.406   6.259   0.718 -0.0007 -0.2409 -0.2810
10338TIP3    H152505   5.325   6.307   0.703 -0.6297 -1.7460 -1.8125
10338TIP3    H252506   5.459   6.318   0.772 -1.7073  1.1564 -0.0937
10339TIP3   OH252507   6.301   2.056   0.904 -0.0191 -0.4800 -0.1355
10339TIP3    H152508   6.354   1.995   0.955 -0.6579 -0.8366  0.1169
10339TIP3    H252509   6.273   2.005   0.828 -0.4043 -0.4484 -0.0155
10340TIP3   OH252510   1.174   2.294  10.878 -0.0517 -0.3328  0.5585
10340TIP3    H152511   1.218   2.213  10.904 -0.4364 -0.2986  1.3203
10340TIP3    H252512   1.230   2.331  10.810 -0.0141 -1.3868 -0.0068
10341TIP3   OH252513   5.033   5.112  13.095  0.1824  0.4465  0.4934
10341TIP3    H152514   5.091   5.187  13.107 -1.4533  1.6032  1.3810
10341TIP3    H252515   5.024   5.075  13.183 -0.3976  0.2695  0.3616
10342TIP3   OH252516   4.646   6.304  13.442  0.6789 -0.0288 -0.1468
10342TIP3    H152517   4.728   6.352  13.450  1.5082 -0.7109 -3.5661
10342TIP3    H252518   4.671   6.217  13.413 -1.1386 -0.7931  0.5108
10343TIP3   OH252519   0.700   6.440   2.470 -0.2007  0.6742 -0.3994
10343TIP3    H152520   0.722   6.512   2.530 -1.7879 -0.4316  1.5670
10343TIP3    H252521   0.785   6.403   2.445  0.5931  2.6039 -0.6862
10344TIP3   OH252522   6.693   5.327   3.484  0.8097  0.1945 -0.0695
10344TIP3    H152523   6.784   5.340   3.508  0.6555 -1.8818  1.7588
10344TIP3    H252524   6.647   5.401   3.523  1.6873  1.2377 -0.9910
10345TIP3   OH252525   1.561   2.120  12.762 -0.6852  0.2928  0.7221
10345TIP3    H152526   1.607   2.051  12.811  0.5741 -1.2956 -2.5832
10345TIP3    H252527   1.629   2.163  12.710 -1.6308  3.4683  1.9920
10346TIP3   OH252528   2.916   5.151  14.761  0.4483  0.2097  0.4063
10346TIP3    H152529   2.914   5.070  14.711  1.9116  0.1539  0.4224
10346TIP3    H252530   2.894   5.125  14.850  0.2115 -0.0543  0.2722
10347TIP3   OH252531   1.574   0.586  15.652 -0.0487  0.3289 -0.1318
10347TIP3    H152532   1.654   0.535  15.664 -0.1744 -0.1869 -1.4637
10347TIP3    H252533   1.540   0.597  15.741  0.0903 -1.7536  0.2128
10348TIP3   OH252534   3.076   1.889   6.029 -0.2717 -0.3176 -0.4025
10348TIP3    H152535   3.029   1.818   6.071  1.0406 -0.6261  0.5646
10348TIP3    H252536   3.011   1.959   6.020 -0.6406 -0.3236  1.9378
10349TIP3   OH252537   4.262   4.405  17.131  0.2337 -0.2472 -0.0079
10349TIP3    H152538   4.326   4.445  17.073  1.6472  0.3080  1.8776
10349TIP3    H252539   4.299   4.319  17.153 -1.1379 -1.2039 -1.2998
10350TIP3   OH252540   5.883   5.192   1.156  0.1187  0.6252  0.2470
10350TIP3    H152541   5.827   5.122   1.190  0.1080  0.0882 -0.8437
10350TIP3    H252542   5.937   5.218   1.230 -1.0270  0.5934  1.0947
10351TIP3   OH252543   3.771   6.617  13.129 -0.4371  0.3527 -0.3949
10351TIP3    H152544   3.759   6.616  13.034 -0.7091  0.6458 -0.3622
10351TIP3    H252545   3.749   6.528  13.156  1.3264 -0.2376 -0.8092
10352TIP3   OH252546   1.976   6.534   5.187 -0.0501 -0.4608 -0.0282
10352TIP3    H152547   2.017   6.452   5.213 -1.2376 -0.0235  3.4622
10352TIP3    H252548   1.932   6.513   5.105  2.7735 -2.2790 -1.1678
10353TIP3   OH252549   4.520   6.482  13.284 -0.0277  0.0013 -0.2400
10353TIP3    H152550   4.552   6.398  13.316 -1.9543  0.1989  2.3790
10353TIP3    H252551   4.527   6.476  13.189  1.5771 -2.4015 -0.0024
10354TIP3   OH252552   3.467   0.194  13.380  0.7437 -0.4944 -0.5396
10354TIP3    H152553   3.475   0.176  13.287  2.7265 -0.6930 -0.3538
10354TIP3    H252554   3.506   0.117  13.423  0.9008  0.1029  0.4083
10355TIP3   OH252555   4.785   4.200   4.759 -0.3138  0.2762 -0.4148
10355TIP3    H152556   4.880   4.207   4.749 -0.3681  2.3076  0.1877
10355TIP3    H252557   4.753   4.192   4.669  0.5823 -3.4853 -0.4812
10356TIP3   OH252558   6.557   1.094   4.411  0.2358 -0.0913 -0.1981
10356TIP3    H152559   6.579   1.001   4.402  0.0190 -0.3428  1.7143
10356TIP3    H252560   6.462   1.096   4.414  0.0671  0.5762 -3.9534
10357TIP3   OH252561   0.763   4.453   2.296 -0.9077 -0.1534  0.1519
10357TIP3    H152562   0.740   4.512   2.368 -1.4627  1.9424 -1.6796
10357TIP3    H252563   0.859   4.452   2.295 -0.8901 -1.0168  1.5483
10358TIP3   OH252564   5.430   6.071   6.072  0.1031  0.5866 -0.3253
10358TIP3    H152565   5.386   6.056   6.155 -0.9882  0.1745 -0.9636
10358TIP3    H252566   5.454   6.164   6.074 -2.7585  1.4019 -0.8557
10359TIP3   OH252567   4.369   4.244   5.062 -0.0875  0.2073  0.4718
10359TIP3    H152568   4.321   4.297   5.125 -1.2248  0.6491 -0.7477
10359TIP3    H252569   4.307   4.177   5.034  0.8051 -0.7523  0.7351
10360TIP3   OH252570   2.619   6.660   5.714 -0.3037  0.4036  0.1375
10360TIP3    H152571   2.545   6.636   5.770  0.0157  0.2497  0.4962
10360TIP3    H252572   2.624   6.756   5.721 -1.1653  0.5093 -0.7691
10361TIP3   OH252573   1.867   6.088   1.893  0.2120 -0.2198  0.2784
10361TIP3    H152574   1.804   6.029   1.934  0.9660 -1.4519 -0.3051
10361TIP3    H252575   1.871   6.163   1.952  1.0279 -1.8096  2.3014
10362TIP3   OH252576   4.075   1.543   6.480  0.2506  0.2302 -0.0760
10362TIP3    H152577   4.147   1.481   6.491 -0.0649 -0.2403 -0.6828
10362TIP3    H252578   4.006   1.493   6.438 -0.0962  0.9284 -0.3465
10363TIP3   OH252579   5.299   2.001  15.136 -0.3201 -0.6210  0.5406
10363TIP3    H152580   5.212   2.040  15.139 -0.1038  0.1970 -2.1312
10363TIP3    H252581   5.302   1.955  15.052  1.9217 -0.3596  0.4350
10364TIP3   OH252582   5.782   0.745  15.653 -0.2969 -0.2626  0.2407
10364TIP3    H152583   5.773   0.840  15.645  0.2178 -0.2375 -0.0439
10364TIP3    H252584   5.693   0.714  15.665 -0.3055  0.4337  2.2611
10365TIP3   OH252585   4.783   6.636   3.841  0.0055  0.4923  0.4153
10365TIP3    H152586   4.751   6.564   3.896  0.2851  0.2590  0.2726
10365TIP3    H252587   4.719   6.706   3.855  0.0822  0.4413  1.0552
10366TIP3   OH252588   6.269   0.803   0.328  1.2301  0.1701  0.5178
10366TIP3    H152589   6.249   0.727   0.273 -0.0156  0.9406 -0.1135
10366TIP3    H252590   6.365   0.805   0.332  1.2961 -3.5919  3.5937
10367TIP3   OH252591   5.284   0.198   0.215 -0.6188 -0.8531  0.2071
10367TIP3    H152592   5.307   0.105   0.206 -0.8625 -0.8630 -0.3231
10367TIP3    H252593   5.367   0.244   0.203 -0.2489 -1.0613  1.8021
10368TIP3   OH252594   0.963   1.769  16.777 -0.9592  0.5626  0.0751
10368TIP3    H152595   1.054   1.776  16.747 -0.4112 -0.2924  1.4909
10368TIP3    H252596   0.940   1.858  16.805  0.1713  0.3704  1.6973
10369TIP3   OH252597   2.974   4.251   1.214 -0.5172 -0.6487  0.1632
10369TIP3    H152598   2.954   4.202   1.134  0.1324  0.2724 -0.5770
10369TIP3    H252599   3.069   4.263   1.212 -0.4957 -0.6278  1.0780
10370TIP3   OH252600   1.354   3.408   3.125 -0.0174 -0.1560  0.4897
10370TIP3    H152601   1.277   3.351   3.122 -1.6023  1.7951  2.4061
10370TIP3    H252602   1.375   3.414   3.218  1.6092  0.4543  0.0875
10371TIP3   OH252603   1.031   5.290  16.635  0.0896  0.0553 -0.2809
10371TIP3    H152604   1.072   5.204  16.630 -1.0089 -0.4563 -0.6435
10371TIP3    H252605   0.987   5.301  16.551 -0.2424  0.7369 -0.0240
10372TIP3   OH252606   2.456   2.301  13.297  0.0032  0.2487 -0.2879
10372TIP3    H152607   2.536   2.348  13.320 -0.8080  1.5346 -0.0078
10372TIP3    H252608   2.386   2.359  13.326 -1.0283  0.2273 -2.6460
10373TIP3   OH252609   3.321   5.533   0.275  0.2456  0.2771 -0.5795
10373TIP3    H152610   3.330   5.553   0.182  2.7454  1.9100 -0.0073
10373TIP3    H252611   3.369   5.602   0.320 -0.3710 -0.8644  1.9137
10374TIP3   OH252612   6.644   2.275   2.416  0.1398 -0.6337 -0.2021
10374TIP3    H152613   6.627   2.252   2.507 -3.0251 -0.7376 -0.7634
10374TIP3    H252614   6.578   2.227   2.366  1.5873 -0.2967 -2.5335
10375TIP3   OH252615   5.669   1.390   2.958 -0.6299 -0.2633 -0.6962
10375TIP3    H152616   5.659   1.353   3.045  0.6864  0.8823 -0.0429
10375TIP3    H252617   5.607   1.463   2.954  1.8466  1.9922  0.6169
10376TIP3   OH252618   1.781   4.255  13.515  0.1211 -0.1877  0.2020
10376TIP3    H152619   1.707   4.291  13.466 -0.3022  0.8390  1.5471
10376TIP3    H252620   1.852   4.317  13.500  0.1277 -0.1219  0.5112
10377TIP3   OH252621   5.007   2.962   2.477  0.0678  0.1809  0.2676
10377TIP3    H152622   5.023   3.041   2.529  0.1341  0.1074  0.3610
10377TIP3    H252623   5.021   2.989   2.387 -0.9774  0.5461  0.2069
10378TIP3   OH252624   6.533   5.877  14.236  0.0792  0.2119 -0.3354
10378TIP3    H152625   6.446   5.860  14.198  0.1860 -0.8362 -0.1151
10378TIP3    H252626   6.519   5.871  14.331  0.0586  1.6644 -0.2368
10379TIP3   OH252627   5.419   3.328  11.323  0.4678 -0.4577  0.3728
10379TIP3    H152628   5.391   3.345  11.232  2.5768  2.0314  0.1230
10379TIP3    H252629   5.353   3.373  11.376 -1.5134 -3.0093  0.1938
10380TIP3   OH252630   6.216   6.631   1.615 -0.1743 -0.2517  0.4845
10380TIP3    H152631   6.121   6.641   1.605  0.1255  3.4438  0.6530
10380TIP3    H252632   6.226   6.567   1.686 -2.5289 -0.9995  0.1874
10381TIP3   OH252633   6.551   0.600  10.923 -0.0230  0.2252  0.2094
10381TIP3    H152634   6.489   0.545  10.972  1.1775 -1.1105  0.2921
10381TIP3    H252635   6.635   0.583  10.966  0.9112 -0.3288 -1.7811
10382TIP3   OH252636   1.947   4.205   1.938  0.8617  0.3389 -0.5789
10382TIP3    H152637   2.032   4.198   1.981  1.1094  1.4256 -0.8737
10382TIP3    H252638   1.926   4.298   1.941 -0.8256 -0.0494  0.4560
10383TIP3   OH252639   4.163   1.615  14.822 -0.0157  0.4475  0.4661
10383TIP3    H152640   4.116   1.532  14.813  0.4678  0.2946 -0.7497
10383TIP3    H252641   4.254   1.593  14.804 -0.0420  1.4251 -0.8955
10384TIP3   OH252642   5.182   5.362  15.347  0.2847  0.3979  0.6898
10384TIP3    H152643   5.123   5.337  15.418  0.1518 -2.0100 -0.2294
10384TIP3    H252644   5.125   5.394  15.277  0.2901  1.0411  0.9799
10385TIP3   OH252645   6.742   3.414  11.082 -0.4225  0.4665 -0.0223
10385TIP3    H152646   6.701   3.330  11.063 -0.5771  0.4712  0.2937
10385TIP3    H252647   6.831   3.393  11.107  0.2724  0.5628 -2.2610
10386TIP3   OH252648   0.094   5.738   3.477  0.3709 -0.2286 -1.0637
10386TIP3    H152649   0.115   5.750   3.569  0.8725  0.5436 -1.2768
10386TIP3    H252650   0.176   5.755   3.431 -0.3596  1.4325 -1.7964
10387TIP3   OH252651   1.470   5.323  11.047 -0.3195 -0.7418  0.2074
10387TIP3    H152652   1.462   5.383  10.973  0.5500 -1.6088 -0.6101
10387TIP3    H252653   1.543   5.265  11.024 -0.3309 -1.3192  1.5354
10388TIP3   OH252654   4.453   0.769  11.890 -0.2997 -0.1114 -0.2033
10388TIP3    H152655   4.364   0.734  11.893 -0.4385  0.2447 -0.1463
10388TIP3    H252656   4.472   0.779  11.797  1.2447 -4.1433 -0.3988
10389TIP3   OH252657   2.014   4.953   4.773  0.3044 -0.6016  0.0501
10389TIP3    H152658   1.989   4.949   4.866 -1.5988 -2.7989 -0.5111
10389TIP3    H252659   2.102   4.989   4.774  0.2128 -0.3060  2.7071
10390TIP3   OH252660   3.475   1.897  14.998  0.0195  0.7071 -0.3075
10390TIP3    H152661   3.399   1.949  14.971 -0.9769 -0.5348  0.0578
10390TIP3    H252662   3.441   1.837  15.063  1.3787  0.2802  0.0264
10391TIP3   OH252663   1.387   2.790  10.582 -0.3919  0.6324 -0.0087
10391TIP3    H152664   1.408   2.704  10.545  0.1513  0.1603  1.3818
10391TIP3    H252665   1.468   2.818  10.625 -1.6421  0.1568  2.7879
10392TIP3   OH252666   5.778   4.589   5.814 -0.3694  0.1581 -0.4257
10392TIP3    H152667   5.703   4.567   5.869  0.2562  0.6059  0.6428
10392TIP3    H252668   5.809   4.673   5.849  1.5699 -0.7699  0.1718
10393TIP3   OH252669   3.882   6.659  14.915  0.2508  0.4827 -0.5108
10393TIP3    H152670   3.875   6.597  14.842  0.6849 -0.1612 -0.0148
10393TIP3    H252671   3.799   6.706  14.914 -0.6275 -1.0223 -0.0834
10394TIP3   OH252672   2.415   5.155   1.829  0.0353 -0.2253  0.1035
10394TIP3    H152673   2.453   5.208   1.758 -0.1938 -0.7949 -0.4510
10394TIP3    H252674   2.488   5.101   1.859  0.3221  0.5554  0.8125
10395TIP3   OH252675   0.697   5.519  16.498 -0.1261  0.1848 -0.3037
10395TIP3    H152676   0.722   5.445  16.555  0.2315  0.6529  0.1548
10395TIP3    H252677   0.604   5.506  16.481 -0.6575  1.0306  1.8690
10396TIP3   OH252678   0.596   5.836   2.851 -0.2826 -0.0363 -0.1588
10396TIP3    H152679   0.595   5.814   2.944  0.5269 -1.1937 -0.4015
10396TIP3    H252680   0.537   5.911   2.843 -1.1179 -0.5252  1.1357
10397TIP3   OH252681   6.725   2.592  16.759 -0.5422  0.0305 -0.2190
10397TIP3    H152682   6.805   2.541  16.747 -0.7587 -0.0097 -1.5507
10397TIP3    H252683   6.711   2.636  16.675 -3.1767 -1.7937 -0.7866
10398TIP3   OH252684   2.219   3.763   0.347 -0.0524  0.2695  0.4164
10398TIP3    H152685   2.249   3.699   0.412  2.1911  1.0299  0.2033
10398TIP3    H252686   2.135   3.793   0.380  0.4191 -0.3627  2.2712
10399TIP3   OH252687   4.927   3.395   1.160 -0.2203 -0.0959 -0.1714
10399TIP3    H152688   4.966   3.325   1.213 -0.8572 -0.0611  0.3416
10399TIP3    H252689   4.989   3.468   1.168  0.8564 -0.8466 -1.3458
10400TIP3   OH252690   4.920   0.299   1.766 -0.6558  0.1404  0.7376
10400TIP3    H152691   4.839   0.255   1.793 -0.4534 -0.3287  0.5868
10400TIP3    H252692   4.907   0.320   1.674 -1.4567  1.9915  1.2391
10401TIP3   OH252693   4.882   5.382   5.043  0.2858  0.2148  0.2348
10401TIP3    H152694   4.869   5.465   4.998  2.1013  0.8414  0.7901
10401TIP3    H252695   4.961   5.396   5.095  1.3921 -2.2563 -0.6756
10402TIP3   OH252696   0.710   0.998  13.197 -0.1121 -0.2154  0.4723
10402TIP3    H152697   0.753   1.080  13.221  0.9735 -0.4643 -0.6053
10402TIP3    H252698   0.697   0.953  13.281 -3.5428  2.3541  1.4812
10403TIP3   OH252699   0.471   1.151   3.140  0.3390  0.0755  0.6448
10403TIP3    H152700   0.456   1.110   3.225  3.4925  0.7828  1.6466
10403TIP3    H252701   0.539   1.097   3.099 -0.3091  0.4183 -0.9318
10404TIP3   OH252702   6.034   0.783   3.697 -0.8960 -0.4675  0.0640
10404TIP3    H152703   5.987   0.849   3.645 -1.1824  0.7790  1.8628
10404TIP3    H252704   5.985   0.779   3.779  1.1998 -0.3171  1.3377
10405TIP3   OH252705   5.692   4.658   5.557 -0.1407  0.1650 -0.3806
10405TIP3    H152706   5.686   4.636   5.650  1.4044  0.3534 -0.2234
10405TIP3    H252707   5.771   4.613   5.526  0.1531  1.2541 -1.2662
10406TIP3   OH252708   1.012   5.148  14.130 -0.3613  0.3553 -0.3012
10406TIP3    H152709   1.105   5.144  14.155 -0.4840 -1.6208 -0.1220
10406TIP3    H252710   1.011   5.205  14.053  1.0503  0.1045 -0.5299
10407TIP3   OH252711   5.561   0.246  15.415 -0.9972  0.1498 -0.8766
10407TIP3    H152712   5.522   0.331  15.436 -0.8395  0.4927 -1.9131
10407TIP3    H252713   5.499   0.181  15.449 -1.0150  0.6758  0.1105
10408TIP3   OH252714   2.410   0.770   3.592  0.3502  0.0763  0.7070
10408TIP3    H152715   2.389   0.687   3.550 -0.3635 -0.7712  2.6613
10408TIP3    H252716   2.491   0.753   3.640 -0.0587  0.3637  1.5031
10409TIP3   OH252717   0.013   5.164  10.633 -0.0860  0.3882 -0.3529
10409TIP3    H152718  -0.061   5.224  10.639 -0.0100  0.2938  2.0669
10409TIP3    H252719  -0.024   5.079  10.656  0.8046  0.3950  1.1984
10410TIP3   OH252720   3.530   3.901   3.468  0.1750  0.2106  0.7131
10410TIP3    H152721   3.557   3.972   3.409 -1.5076 -0.1971 -0.5935
10410TIP3    H252722   3.435   3.909   3.472  0.0460 -1.4702  1.2179
10411TIP3   OH252723   3.284   5.555  11.979  0.2362 -0.1299  0.0286
10411TIP3    H152724   3.238   5.578  11.898  2.2002  1.7355 -0.6209
10411TIP3    H252725   3.235   5.598  12.048 -0.0417  0.3352 -0.4526
10412TIP3   OH252726   0.204   3.355  14.416 -0.0501  0.7610 -0.3186
10412TIP3    H152727   0.203   3.441  14.375  1.6606  0.8009 -0.3155
10412TIP3    H252728   0.252   3.368  14.497 -0.5981 -0.0060  0.1303
10413TIP3   OH252729   1.494   0.990   5.214 -0.3272  0.0863 -0.1569
10413TIP3    H152730   1.525   1.048   5.283 -0.1843  0.5353 -0.5925
10413TIP3    H252731   1.420   1.036   5.174  0.2850  0.3350 -1.0212
10414TIP3   OH252732   5.805   6.201   1.305  0.2231  0.1726 -0.3370
10414TIP3    H152733   5.798   6.263   1.232  1.0631  0.7949  0.0892
10414TIP3    H252734   5.893   6.164   1.296 -0.1425 -0.6771 -0.3695
10415TIP3   OH252735   0.298   3.465   5.822  0.5973 -0.2901 -0.0834
10415TIP3    H152736   0.388   3.432   5.818  0.3777 -1.1576  1.4471
10415TIP3    H252737   0.288   3.494   5.913 -0.8972 -0.8671 -0.0483
10416TIP3   OH252738   4.046   4.438  12.154  0.2095  0.6565  0.9716
10416TIP3    H152739   4.099   4.375  12.105  1.1982  1.4236  1.0306
10416TIP3    H252740   4.071   4.523  12.118 -2.3036  0.9091 -0.2141
10417TIP3   OH252741   1.086   2.839  16.399  0.2886 -0.7511  0.0017
10417TIP3    H152742   1.070   2.778  16.327  0.2192  0.4389 -1.0188
10417TIP3    H252743   1.040   2.919  16.373 -0.7031 -0.6614  1.9153
10418TIP3   OH252744   0.341   2.735   0.304  0.4196 -0.1430 -0.3923
10418TIP3    H152745   0.392   2.669   0.258 -1.3483 -0.4941 -1.8966
10418TIP3    H252746   0.351   2.814   0.252  0.9316  0.2703  0.3284
10419TIP3   OH252747   0.937   3.329  14.535 -0.0509  1.0431 -0.0447
10419TIP3    H152748   0.867   3.384  14.501  0.1395  1.1273 -0.2975
10419TIP3    H252749   0.996   3.390  14.579  1.1507  1.2990 -1.9448
10420TIP3   OH252750   3.368   4.731  13.418  0.4710 -0.2368  0.6275
10420TIP3    H152751   3.427   4.689  13.355 -1.4552 -0.4471 -1.0712
10420TIP3    H252752   3.324   4.799  13.368 -2.1316 -1.3276  1.3483
10421TIP3   OH252753   3.886   5.550   4.276  0.2226  0.0197  0.0273
10421TIP3    H152754   3.891   5.613   4.348 -2.2947 -0.3424  0.5893
10421TIP3    H252755   3.834   5.594   4.209  0.1459 -0.6932 -0.3844
10422TIP3   OH252756   0.889   3.179  17.019  0.2953  0.2404  0.2813
10422TIP3    H152757   0.905   3.089  16.991 -1.2253 -0.3594  1.2830
10422TIP3    H252758   0.822   3.211  16.959  1.8187  1.1842 -0.9467
10423TIP3   OH252759   2.525   1.613  16.938  0.0424 -0.6468  0.5664
10423TIP3    H152760   2.602   1.650  16.981 -0.2743 -0.0339  0.6128
10423TIP3    H252761   2.461   1.604  17.009 -0.6662  0.8634  0.1370
10424TIP3   OH252762   1.186   4.266   0.213 -0.3286 -0.1584  0.7149
10424TIP3    H152763   1.239   4.224   0.281 -0.0512  0.0737  0.6473
10424TIP3    H252764   1.178   4.200   0.144 -0.6827 -0.4231  1.0125
10425TIP3   OH252765   4.380   6.140  12.914  0.7279 -0.1958 -0.2796
10425TIP3    H152766   4.300   6.142  12.861  0.0515 -0.4475  0.7253
10425TIP3    H252767   4.349   6.126  13.003  1.9044 -0.3815  0.1017
10426TIP3   OH252768   5.708   2.724   1.077 -0.2590  0.2022  0.2358
10426TIP3    H152769   5.692   2.760   0.990  0.3272  2.0342  0.8681
10426TIP3    H252770   5.797   2.752   1.099 -0.3496 -0.3582  1.3700
10427TIP3   OH252771   6.575   5.349  14.644 -0.1150 -0.1144 -0.0347
10427TIP3    H152772   6.481   5.341  14.663  0.4174 -0.0220  2.9349
10427TIP3    H252773   6.590   5.287  14.574 -2.4860  0.1889 -0.8805
10428TIP3   OH252774   2.426   2.379  10.743  0.2962 -0.4768 -0.7973
10428TIP3    H152775   2.476   2.360  10.823 -1.3136  0.3220  0.4246
10428TIP3    H252776   2.458   2.315  10.679  1.7897 -0.9681  0.3929
10429TIP3   OH252777   4.949   3.349   4.746 -0.0154  0.7832 -0.3348
10429TIP3    H152778   4.873   3.375   4.695  1.3989  1.9654 -1.9017
10429TIP3    H252779   4.943   3.253   4.750 -0.7534  0.7492 -1.8039
10430TIP3   OH252780   1.543   4.048  14.667 -0.4405  0.0941 -0.8015
10430TIP3    H152781   1.597   4.125  14.686  0.9194 -0.2626 -3.0909
10430TIP3    H252782   1.559   3.990  14.741  2.9971 -0.3456 -1.7879
10431TIP3   OH252783   1.405   6.610   3.598 -0.2363 -0.3934  0.1209
10431TIP3    H152784   1.416   6.703   3.618 -1.2210  0.6978 -3.9551
10431TIP3    H252785   1.494   6.575   3.598  0.3992  1.1869 -1.0726
10432TIP3   OH252786   2.280   6.010   4.031  0.6325  1.0047  0.0766
10432TIP3    H152787   2.306   5.928   3.988 -2.5686  0.5822 -1.1299
10432TIP3    H252788   2.302   6.078   3.968 -0.1524  0.7555 -0.4640
10433TIP3   OH252789   3.150   4.549  13.936  0.8486  0.4205 -0.1801
10433TIP3    H152790   3.098   4.570  13.859  2.1188  1.4751 -0.7730
10433TIP3    H252791   3.201   4.472  13.911  2.2057  1.5144 -0.8704
10434TIP3   OH252792   6.394   4.037  11.782 -0.0655 -0.1646 -0.6829
10434TIP3    H152793   6.356   4.124  11.793 -0.9092 -0.7024  0.9408
10434TIP3    H252794   6.352   4.002  11.703 -1.5599 -0.0225  0.0254
10435TIP3   OH252795   6.333   6.080  13.295 -0.0046  0.0920 -0.0058
10435TIP3    H152796   6.343   6.153  13.234  0.6686  0.8210  0.9622
10435TIP3    H252797   6.420   6.069  13.334 -0.7980  0.6852  1.9860
10436TIP3   OH252798   5.484   2.024  12.450 -0.1623  0.1725  0.5973
10436TIP3    H152799   5.464   2.082  12.523  1.3006  0.2512  0.9326
10436TIP3    H252800   5.411   1.961  12.449 -0.7549  0.8377  1.4231
10437TIP3   OH252801   2.038   1.583  12.827 -0.4568 -0.0027 -0.0950
10437TIP3    H152802   1.954   1.567  12.871  0.7844 -2.1889  1.5993
10437TIP3    H252803   2.031   1.535  12.744 -0.6556 -0.7188  0.3311
10438TIP3   OH252804   2.599   2.464  12.700 -0.0459  0.0498 -0.1006
10438TIP3    H152805   2.523   2.446  12.756 -0.5059 -1.8776 -1.2963
10438TIP3    H252806   2.562   2.498  12.619  0.4454  0.2992 -0.2218
10439TIP3   OH252807   4.506   5.258  12.387  0.5283  0.6856  0.4322
10439TIP3    H152808   4.443   5.193  12.418 -1.1594  2.1179  0.0968
10439TIP3    H252809   4.534   5.305  12.466  0.4484  0.6771  0.4649
10440TIP3   OH252810   6.594   2.258  11.352  0.1698  0.1415 -0.5308
10440TIP3    H152811   6.576   2.295  11.266  2.1666 -1.0277 -1.4860
10440TIP3    H252812   6.676   2.209  11.341 -0.0852 -0.8832  1.7689
10441TIP3   OH252813   6.275   1.040   0.230  0.3582  0.0959 -0.5425
10441TIP3    H152814   6.266   0.957   0.276 -0.2543  0.2687 -0.3482
10441TIP3    H252815   6.350   1.083   0.271  0.1034  0.0450 -0.0245
10442TIP3   OH252816   1.647   4.328   5.398 -0.3663 -0.4488  0.1364
10442TIP3    H152817   1.649   4.404   5.456  0.3141 -0.5599  0.2644
10442TIP3    H252818   1.716   4.271   5.430 -0.0343 -0.5495 -0.7244
10443TIP3   OH252819   6.445   1.070   6.604  0.7566  0.0762 -0.3629
10443TIP3    H152820   6.509   1.047   6.671  1.7608  1.5507 -0.8065
10443TIP3    H252821   6.444   0.995   6.545 -0.3859 -1.3899  1.4612
10444TIP3   OH252822   3.408   4.470   3.732 -0.0503 -0.4434 -0.7201
10444TIP3    H152823   3.472   4.405   3.760 -0.7679 -0.8591  0.0082
10444TIP3    H252824   3.338   4.463   3.797  0.3330  1.7812 -0.0204
10445TIP3   OH252825   0.128   3.662   3.288 -0.1902 -0.1163  0.1908
10445TIP3    H152826   0.097   3.724   3.222 -0.8984  0.0544  0.6807
10445TIP3    H252827   0.049   3.633   3.333  0.3858  0.6011  1.7025
10446TIP3   OH252828   1.669   4.009  13.209 -0.0029  0.7433  0.2435
10446TIP3    H152829   1.659   3.976  13.298  0.2292  0.4297  0.1550
10446TIP3    H252830   1.738   4.074  13.214  1.3128 -0.6150 -0.0503
10447TIP3   OH252831   3.183   0.227   3.772  0.0218  0.7028  0.1625
10447TIP3    H152832   3.273   0.215   3.803  0.1374  1.8469  0.2797
10447TIP3    H252833   3.169   0.321   3.776 -1.3280  0.4910  0.5436
10448TIP3   OH252834   0.401   1.263  10.640 -0.5653 -0.0742 -0.2832
10448TIP3    H152835   0.400   1.167  10.646 -0.0337 -0.1208 -0.8384
10448TIP3    H252836   0.309   1.288  10.632 -0.8387 -0.4241  1.4953
10449TIP3   OH252837   5.778   6.068   2.093  0.2078 -0.6335  0.1748
10449TIP3    H152838   5.767   6.100   2.003  0.6763 -0.5016  0.1637
10449TIP3    H252839   5.745   6.140   2.148 -2.8216 -1.8399  0.0607
10450TIP3   OH252840   4.927   4.593   3.967 -0.0691  0.1619  0.6427
10450TIP3    H152841   4.969   4.660   3.913  3.2310 -1.0349  1.5965
10450TIP3    H252842   4.998   4.532   3.988 -2.1042 -1.3894  3.2221
10451TIP3   OH252843   1.922   4.950   3.255  0.1304 -0.0157  0.3934
10451TIP3    H152844   1.865   5.020   3.224  1.5851  1.1851  0.3669
10451TIP3    H252845   1.863   4.889   3.300 -1.2619  0.8296 -0.2464
10452TIP3   OH252846   1.640   4.263   6.468 -0.2837  0.2275  0.4420
10452TIP3    H152847   1.638   4.182   6.519  0.4182 -0.9792 -1.4052
10452TIP3    H252848   1.731   4.291   6.471  0.2205 -1.0512 -1.9582
10453TIP3   OH252849   3.672   2.791   0.158 -0.1691  0.4846 -0.3466
10453TIP3    H152850   3.749   2.845   0.143 -0.5348  0.7717 -1.2319
10453TIP3    H252851   3.636   2.776   0.071 -0.4037 -0.7041 -0.0542
10454TIP3   OH252852   0.606   1.034  13.697  0.9709  0.4954  0.1152
10454TIP3    H152853   0.565   0.958  13.656 -0.3519  1.2079  0.0716
10454TIP3    H252854   0.662   0.997  13.765 -1.0717 -0.4706  1.3348
10455TIP3   OH252855   2.697   0.070  10.796 -0.3530  0.5045 -0.2417
10455TIP3    H152856   2.718  -0.010  10.844 -1.7543  0.0519 -0.3799
10455TIP3    H252857   2.713   0.048  10.705  0.2649  0.7130 -0.1874
10456TIP3   OH252858   6.678   3.724  13.072 -0.9766 -0.0064  0.1003
10456TIP3    H152859   6.631   3.640  13.068  0.1324 -0.7808  2.6023
10456TIP3    H252860   6.613   3.786  13.105 -0.9104 -0.5775  1.3274
10457TIP3   OH252861   4.115   4.621   5.895 -0.3406  0.1857 -0.0356
10457TIP3    H152862   4.128   4.540   5.944 -1.7220 -0.8017 -1.2608
10457TIP3    H252863   4.138   4.691   5.957  0.8451 -1.1284  1.0313
10458TIP3   OH252864   2.998   4.983   1.574  0.5300 -0.5455  0.3836
10458TIP3    H152865   3.045   5.054   1.530  0.1958  0.0261  0.9361
10458TIP3    H252866   2.947   4.941   1.505  2.2931 -1.5467 -0.3394
10459TIP3   OH252867   2.314   6.286   4.912  0.0863  0.0720  0.8582
10459TIP3    H152868   2.232   6.248   4.944  0.1721 -0.0835  0.8980
10459TIP3    H252869   2.290   6.333   4.833  0.0797 -0.5927  0.4620
10460TIP3   OH252870   1.944   0.396   2.354 -0.0238  0.1136 -0.6321
10460TIP3    H152871   1.997   0.366   2.428 -1.1896 -1.8770 -0.5747
10460TIP3    H252872   1.904   0.478   2.385  2.1170  1.0613 -0.2961
10461TIP3   OH252873   4.403   6.525  16.652 -0.1014 -0.3331 -0.3818
10461TIP3    H152874   4.466   6.569  16.595 -0.2791 -1.0238 -1.1215
10461TIP3    H252875   4.434   6.542  16.741  1.2161 -0.7962 -0.7481
10462TIP3   OH252876   4.340   3.923  14.919 -0.3335 -0.3712 -0.7872
10462TIP3    H152877   4.296   3.838  14.917 -2.3688  0.6420 -0.0416
10462TIP3    H252878   4.362   3.941  14.827  0.3298 -1.7972 -0.9192
10463TIP3   OH252879   2.953   3.450  11.059 -0.1839 -1.0905 -0.4239
10463TIP3    H152880   2.955   3.362  11.097 -1.5772 -0.7540  0.4864
10463TIP3    H252881   2.916   3.437  10.972 -1.3197 -1.2949  0.0781
10464TIP3   OH252882   3.656   5.513  16.461  0.1629  0.0857  0.0224
10464TIP3    H152883   3.734   5.567  16.473  0.5302  0.0416 -1.9629
10464TIP3    H252884   3.667   5.441  16.523  2.5484 -0.8404 -1.3881
10465TIP3   OH252885   3.604   1.890   3.744  0.1796  0.1440  0.2236
10465TIP3    H152886   3.649   1.899   3.828 -1.3628 -0.1176  1.1031
10465TIP3    H252887   3.641   1.810   3.706  0.0953 -0.3533  1.1719
10466TIP3   OH252888   5.994   4.378   6.614  0.1522  0.2013 -0.2557
10466TIP3    H152889   6.085   4.360   6.636  0.0179 -0.7026 -0.4305
10466TIP3    H252890   5.969   4.450   6.672  0.9062  0.2993 -0.0481
10467TIP3   OH252891   6.165   3.534  15.735 -0.1721  0.1626  0.3446
10467TIP3    H152892   6.126   3.621  15.741  3.6281  2.0201 -0.8137
10467TIP3    H252893   6.198   3.517  15.823 -1.6771 -0.5347  0.7962
10468TIP3   OH252894   3.256   5.399  14.545 -0.0975  0.4366 -0.3319
10468TIP3    H152895   3.219   5.367  14.628 -0.3967  1.5417 -0.0335
10468TIP3    H252896   3.334   5.345  14.531 -1.5312 -1.5845 -0.7023
10469TIP3   OH252897   0.690   6.768  10.810  1.0357  0.0315 -0.4250
10469TIP3    H152898   0.652   6.747  10.725  0.7730 -1.3480  0.0146
10469TIP3    H252899   0.784   6.756  10.798  1.1714  1.6365 -1.0126
10470TIP3   OH252900   3.903   5.106  13.014  0.0794  0.2454  0.1027
10470TIP3    H152901   3.979   5.048  13.022 -0.1840  0.0038  0.9032
10470TIP3    H252902   3.912   5.145  12.928 -1.1557 -3.0586 -1.6296
10471TIP3   OH252903   6.702   2.907  17.016  0.1576  0.3057 -0.0539
10471TIP3    H152904   6.667   2.846  17.081  0.5561 -0.7158 -0.7817
10471TIP3    H252905   6.776   2.949  17.061  0.7255 -0.7408  0.0003
10472TIP3   OH252906   1.188   2.659  16.917 -0.0186  0.3032 -0.7393
10472TIP3    H152907   1.264   2.691  16.866 -0.3117  0.8447 -0.8441
10472TIP3    H252908   1.126   2.630  16.850 -0.6485  1.5702 -0.7264
10473TIP3   OH252909   3.905   2.565  16.985  0.3686 -0.4647 -0.2556
10473TIP3    H152910   3.917   2.612  17.068 -3.9369  0.2107  0.0630
10473TIP3    H252911   3.941   2.623  16.919  0.7648  0.4806  0.7706
10474TIP3   OH252912   2.515   1.018   3.503 -0.1851  0.1212 -0.1774
10474TIP3    H152913   2.533   0.924   3.503  0.9043  0.2423 -3.6493
10474TIP3    H252914   2.460   1.032   3.580  0.5909 -3.1425  1.0728
10475TIP3   OH252915   0.411   6.590  12.507  0.1102  0.3641  0.1107
10475TIP3    H152916   0.489   6.594  12.563 -0.2134 -1.2170  0.6832
10475TIP3    H252917   0.338   6.577  12.569 -0.3341 -0.6200 -0.6167
10476TIP3   OH252918   1.688   3.278   5.789 -0.0808 -0.3864  0.1050
10476TIP3    H152919   1.638   3.244   5.714 -0.8036  0.0516  0.3882
10476TIP3    H252920   1.759   3.215   5.800 -0.0456 -0.5346 -0.8659
10477TIP3   OH252921   5.743   1.757   1.559 -0.3117 -0.1151 -0.0887
10477TIP3    H152922   5.761   1.813   1.635 -0.4480  0.2725 -0.3425
10477TIP3    H252923   5.648   1.761   1.548 -0.0659  1.7320 -1.7303
10478TIP3   OH252924   2.447   1.391  16.126 -0.8336  0.1217  0.0206
10478TIP3    H152925   2.473   1.448  16.200 -1.0118  0.0370  0.1473
10478TIP3    H252926   2.529   1.358  16.091 -0.7771 -0.3818  0.6136
10479TIP3   OH252927   5.454   3.043   4.782 -0.3674 -0.1305  0.3630
10479TIP3    H152928   5.547   3.064   4.778 -0.8863  2.4922  1.4017
10479TIP3    H252929   5.413   3.102   4.719 -1.3877 -1.0533  0.1332
10480TIP3   OH252930   5.870   0.736  15.262  0.0318  0.6375  0.0029
10480TIP3    H152931   5.821   0.676  15.319 -0.9630  0.7527 -0.7158
10480TIP3    H252932   5.811   0.811  15.250 -0.4061 -0.0494 -2.3796
10481TIP3   OH252933   2.715   1.084   3.242  0.6521  0.3042  0.7471
10481TIP3    H152934   2.692   1.033   3.319  0.0908 -0.9421 -0.2473
10481TIP3    H252935   2.693   1.029   3.168  0.1458  1.9392 -0.3479
10482TIP3   OH252936   3.733   0.689   1.749 -0.1690 -0.1551  0.4738
10482TIP3    H152937   3.686   0.692   1.666 -1.8793  0.6937  1.4353
10482TIP3    H252938   3.811   0.636   1.731 -1.0006 -0.7841 -1.4029
10483TIP3   OH252939   3.193   5.880  10.476  0.9714  0.6430 -0.8732
10483TIP3    H152940   3.100   5.860  10.466  1.4372 -2.0709 -0.3393
10483TIP3    H252941   3.198   5.975  10.472 -2.0599  0.9515  0.9278
10484TIP3   OH252942   3.406   2.764  16.032  0.0123  0.2567 -0.5200
10484TIP3    H152943   3.501   2.773  16.040 -0.0739  0.6602  0.0908
10484TIP3    H252944   3.371   2.845  16.068 -0.5356  0.5523 -1.6918
10485TIP3   OH252945   2.945   0.699  13.032 -0.4495  0.3576  0.1793
10485TIP3    H152946   2.867   0.750  13.050 -0.0897  0.3316  1.9876
10485TIP3    H252947   2.981   0.737  12.952 -1.6960  1.0995 -0.0440
10486TIP3   OH252948   3.967   0.019   5.343  0.4506  0.0458 -0.4104
10486TIP3    H152949   3.936   0.064   5.264  0.5910  1.3376  0.2560
10486TIP3    H252950   3.972  -0.073   5.318 -1.0151  0.2311 -1.4258
10487TIP3   OH252951   0.200   4.346  15.730  0.3498 -0.1585  0.8574
10487TIP3    H152952   0.278   4.391  15.762  0.9414 -0.4844 -0.0817
10487TIP3    H252953   0.127   4.402  15.755  0.9161  0.3289  1.4279
10488TIP3   OH252954   5.258   6.087   3.990  0.4870  0.0173  0.6452
10488TIP3    H152955   5.198   6.089   4.065 -0.0371  0.5050  0.2116
10488TIP3    H252956   5.211   6.132   3.920  0.8721 -0.6512 -0.0582
10489TIP3   OH252957   2.398   1.940  11.516  0.5472  0.4818  0.1968
10489TIP3    H152958   2.388   1.901  11.429 -0.2448  0.8843  0.1069
10489TIP3    H252959   2.321   1.995  11.527  0.6314  0.4127  1.1692
10490TIP3   OH252960   4.115   1.577  15.146 -0.1453 -0.4947 -0.5329
10490TIP3    H152961   4.202   1.539  15.133 -0.0148 -0.2863 -0.2756
10490TIP3    H252962   4.112   1.598  15.239 -0.7191 -1.1179 -0.4037
10491TIP3   OH252963   3.862   1.736   3.845  0.0827 -0.3283  0.3538
10491TIP3    H152964   3.927   1.666   3.837  0.9238  0.3490  1.1074
10491TIP3    H252965   3.822   1.741   3.758  3.6389  1.7148 -1.2826
10492TIP3   OH252966   2.320   2.825   5.073  0.2412  0.1984  0.9490
10492TIP3    H152967   2.293   2.911   5.042 -0.0335  0.2947  1.4472
10492TIP3    H252968   2.245   2.769   5.056  1.0726 -0.3596 -1.0533
10493TIP3   OH252969   3.262   2.065   3.688  0.0715 -0.2738 -0.2299
10493TIP3    H152970   3.356   2.084   3.693 -0.2901  1.6397 -0.1562
10493TIP3    H252971   3.220   2.149   3.704 -1.6434 -0.8376 -1.5622
10494TIP3   OH252972   3.708   1.327  17.242  0.3140 -0.2723  0.1450
10494TIP3    H152973   3.749   1.241  17.233 -0.0767 -0.3032 -1.4552
10494TIP3    H252974   3.622   1.308  17.278  1.5181 -0.2333  3.2209
10495TIP3   OH252975   3.010   6.161   1.402 -0.0296 -0.4423 -0.1708
10495TIP3    H152976   3.094   6.208   1.403 -0.0053 -0.4820 -0.4832
10495TIP3    H252977   3.026   6.085   1.345  0.3872 -1.6498  1.5020
10496TIP3   OH252978   5.954   3.025   5.804 -0.1796  0.5425 -0.3144
10496TIP3    H152979   5.920   2.945   5.842  0.1936 -0.3220 -1.7545
10496TIP3    H252980   5.965   3.005   5.711 -0.9929  2.5653 -0.8831
10497TIP3   OH252981   6.341   1.712   3.021 -0.1231 -0.0244  0.0575
10497TIP3    H152982   6.274   1.709   2.953  0.6993 -2.8101 -0.7159
10497TIP3    H252983   6.365   1.620   3.035  0.6946  0.5748  3.1539
10498TIP3   OH252984   0.335   0.910  11.177 -0.4013 -0.1812  0.0708
10498TIP3    H152985   0.252   0.868  11.154 -0.0439 -0.3003 -1.0541
10498TIP3    H252986   0.381   0.918  11.094 -0.1317  1.7393  0.3889
10499TIP3   OH252987   4.869   0.871  13.699 -0.1387  0.2564  0.1551
10499TIP3    H152988   4.788   0.828  13.672  0.1920 -0.6516  0.5510
10499TIP3    H252989   4.868   0.955  13.655 -0.3938 -0.5274 -1.3780
10500TIP3   OH252990   2.068   6.371  16.050 -0.3781  0.0507  0.1809
10500TIP3    H152991   2.154   6.388  16.011 -0.0062 -0.4155  0.7837
10500TIP3    H252992   2.031   6.300  15.997 -0.3707  0.2191 -0.0503
10501TIP3   OH252993   1.221   0.173  12.918 -0.0741  0.2467 -0.4521
10501TIP3    H152994   1.253   0.082  12.918 -1.9605 -0.4438 -1.1766
10501TIP3    H252995   1.177   0.183  13.002 -1.2937 -0.0624 -1.0332
10502TIP3   OH252996   3.164   2.841   0.542  0.6276 -0.4578 -0.4506
10502TIP3    H152997   3.072   2.843   0.568  0.4363  1.4322 -1.2495
10502TIP3    H252998   3.187   2.748   0.544 -1.1399 -0.8990  0.2737
10503TIP3   OH252999   5.412   2.223   3.122 -0.0666  0.9596  0.2463
10503TIP3    H153000   5.430   2.213   3.216  0.6122 -0.7108 -0.0538
10503TIP3    H253001   5.420   2.135   3.086 -0.4888  1.5608 -1.3685
10504TIP3   OH253002   0.977   1.596   6.576  0.2353 -0.4974  0.5642
10504TIP3    H153003   1.065   1.630   6.592 -0.2929  1.1987 -0.0300
10504TIP3    H253004   0.953   1.553   6.658  0.5053  1.5543  1.7759
10505TIP3   OH253005   0.967   0.945   2.217 -0.2383  0.4585 -0.6653
10505TIP3    H153006   1.040   0.997   2.183  0.1020  0.0670 -0.5464
10505TIP3    H253007   0.894   0.966   2.159 -0.8086  3.0249  0.9444
10506TIP3   OH253008   0.616   0.786   1.841  0.1618  0.6787  0.2101
10506TIP3    H153009   0.677   0.844   1.795  0.3805  0.7034  0.5301
10506TIP3    H253010   0.648   0.784   1.931 -0.1768  0.5090  0.3280
10507TIP3   OH253011   3.690   3.573   5.251 -0.4814  0.0092 -0.3263
10507TIP3    H153012   3.769   3.535   5.290 -0.0870  0.6514 -0.4753
10507TIP3    H253013   3.630   3.585   5.325 -1.0814 -2.0213 -0.4679
10508TIP3   OH253014   0.473   4.211  10.442  0.0366  0.6397  0.1176
10508TIP3    H153015   0.513   4.257  10.368 -1.7831 -1.4098 -2.2583
10508TIP3    H253016   0.395   4.263  10.463 -0.9989 -0.2724 -1.3370
10509TIP3   OH253017   5.144   1.661  14.111  0.2804 -0.3429 -0.3342
10509TIP3    H153018   5.114   1.709  14.188  0.8307  0.7696 -0.7931
10509TIP3    H253019   5.066   1.617  14.078 -0.2704  0.3400  0.0366
10510TIP3   OH253020   4.044   1.222   4.153  0.4491  0.2323  0.0758
10510TIP3    H153021   4.013   1.304   4.192  0.6643 -1.0906  3.1920
10510TIP3    H253022   3.970   1.162   4.161  0.6575 -0.1943 -1.1742
10511TIP3   OH253023   1.177   5.616  13.460 -0.5349  0.0399  0.5398
10511TIP3    H153024   1.160   5.630  13.553  1.0139 -0.9485  0.9935
10511TIP3    H253025   1.210   5.526  13.455  0.5528  0.5057 -0.8112
10512TIP3   OH253026   1.385   6.151   1.956 -0.1012 -0.5455 -0.0570
10512TIP3    H153027   1.348   6.199   1.882  0.9474  0.0556 -0.2112
10512TIP3    H253028   1.443   6.086   1.917 -0.5921 -1.1513  0.1986
10513TIP3   OH253029   2.679   1.386   5.604  0.0711 -0.4816 -0.2298
10513TIP3    H153030   2.642   1.474   5.616  0.8958  0.2669 -2.7453
10513TIP3    H253031   2.773   1.399   5.614  0.1720 -1.1300 -0.3219
10514TIP3   OH253032   1.687   6.471   4.477  0.5539 -0.0355  0.3395
10514TIP3    H153033   1.626   6.424   4.420  0.1308 -2.2356  2.4931
10514TIP3    H253034   1.773   6.458   4.436 -0.0331  0.5246 -1.0994
10515TIP3   OH253035   0.945   3.837   4.451  0.5728 -0.2917 -0.1595
10515TIP3    H153036   0.922   3.831   4.544 -1.7787 -0.2337 -0.7128
10515TIP3    H253037   0.924   3.927   4.427 -0.7326 -0.8722 -1.2286
10516TIP3   OH253038   0.899   0.447  10.892 -0.3492 -0.0399  0.4057
10516TIP3    H153039   0.834   0.378  10.908  1.4137 -2.0057 -0.6984
10516TIP3    H253040   0.867   0.492  10.814 -1.0423 -0.1902  0.6004
10517TIP3   OH253041   1.954   3.824   4.129  0.3153  0.0881 -0.0408
10517TIP3    H153042   1.996   3.789   4.208  0.1666 -0.0262 -0.0114
10517TIP3    H253043   1.876   3.769   4.118  0.6372 -0.2565 -0.5869
10518TIP3   OH253044   3.120   0.410  13.986  0.3145 -0.0124 -0.7709
10518TIP3    H153045   3.162   0.393  13.902  2.8043 -1.0521  0.6341
10518TIP3    H253046   3.115   0.505  13.992  1.2956  0.0885 -1.5503
10519TIP3   OH253047   4.538   2.927  14.919  0.0112  0.8289 -0.3130
10519TIP3    H153048   4.602   2.932  14.849  1.3776  2.1088  0.9955
10519TIP3    H253049   4.482   3.004  14.907 -1.4859 -0.4259 -1.6110
10520TIP3   OH253050   2.515   5.353   5.719 -0.1893 -0.8617 -0.4465
10520TIP3    H153051   2.517   5.413   5.793 -3.1193  1.6999 -2.3187
10520TIP3    H253052   2.451   5.286   5.743 -1.4185  0.1789 -0.7931
10521TIP3   OH253053   3.090   5.096   5.192  0.0015 -0.1056  0.4602
10521TIP3    H153054   3.097   5.186   5.224 -1.5094 -0.2117  1.1469
10521TIP3    H253055   3.169   5.082   5.140  0.3796  1.5224  0.5892
10522TIP3   OH253056   1.495   5.130   4.268 -0.8170  0.2789 -0.3020
10522TIP3    H153057   1.410   5.171   4.284  0.7514  3.1568  1.2239
10522TIP3    H253058   1.543   5.194   4.215  1.4302  0.0776  1.3915
10523TIP3   OH253059   4.164   4.234  15.316 -0.4537 -0.1272 -0.4854
10523TIP3    H153060   4.116   4.252  15.397 -0.5783 -2.1025 -0.0892
10523TIP3    H253061   4.252   4.211  15.345 -1.1485 -3.2856 -0.6735
10524TIP3   OH253062   1.092   2.692  11.821  0.5985  0.0733  0.6104
10524TIP3    H153063   1.122   2.759  11.760 -0.4562 -1.0079 -1.1474
10524TIP3    H253064   1.055   2.741  11.895  1.1164  1.4074 -0.0136
10525TIP3   OH253065   5.400   2.153   2.070  0.0292  0.5162  0.1463
10525TIP3    H153066   5.351   2.096   2.128 -0.9276  0.9210 -0.2607
10525TIP3    H253067   5.389   2.113   1.983 -0.4970  1.2188 -0.1102
10526TIP3   OH253068   4.913   1.864  12.114  0.1175  0.2926 -0.2084
10526TIP3    H153069   4.910   1.897  12.204 -2.9925  0.0389 -0.1853
10526TIP3    H253070   4.933   1.771  12.123  0.8452  0.4756  0.1437
10527TIP3   OH253071   3.289   2.080  14.523 -0.4682 -0.5907 -0.0276
10527TIP3    H153072   3.368   2.026  14.515 -0.5973 -0.5784 -1.6539
10527TIP3    H253073   3.312   2.162  14.479 -1.6768 -0.9242 -1.3260
10528TIP3   OH253074   6.813   2.424  12.156  0.0046  0.4099  1.2606
10528TIP3    H153075   6.855   2.363  12.095 -0.6516  1.0190  0.1923
10528TIP3    H253076   6.824   2.510  12.115  0.0831  0.8960  2.2911
10529TIP3   OH253077   1.621   0.453   4.807 -0.2631 -0.3340 -0.2615
10529TIP3    H153078   1.641   0.422   4.895 -1.7785  1.7946  0.8774
10529TIP3    H253079   1.528   0.435   4.796  0.1728 -1.6761 -1.9112
10530TIP3   OH253080   2.519   6.775   2.548 -0.0879  0.3082  0.5034
10530TIP3    H153081   2.511   6.783   2.643  1.2999  1.1874  0.5628
10530TIP3    H253082   2.607   6.809   2.528 -1.2881  2.4719 -1.3521
10531TIP3   OH253083   4.527   3.830  11.982 -0.5243 -0.3985  0.2143
10531TIP3    H153084   4.609   3.877  11.993 -0.1039 -1.2446  0.7573
10531TIP3    H253085   4.489   3.867  11.902 -0.1913  0.8171  0.6037
10532TIP3   OH253086   5.719   6.005  12.454 -0.3323  0.1620  0.6924
10532TIP3    H153087   5.723   5.938  12.522 -0.5758  2.3938  2.9494
10532TIP3    H253088   5.748   6.085  12.497  0.5242  1.4276 -2.1151
10533TIP3   OH253089   0.224   4.390   4.087 -0.0142  0.4050  0.0548
10533TIP3    H153090   0.182   4.305   4.076 -1.6533  1.1906  0.1250
10533TIP3    H253091   0.293   4.374   4.152  1.1199 -1.3343 -1.5195
10534TIP3   OH253092   4.284   4.378  13.232 -0.0826  0.0155 -0.3107
10534TIP3    H153093   4.218   4.387  13.300 -0.2063 -1.4722 -0.2127
10534TIP3    H253094   4.354   4.326  13.274 -1.7521 -4.0768 -2.3689
10535TIP3   OH253095   2.271   6.268   1.143 -0.0319  0.0018  0.3604
10535TIP3    H153096   2.329   6.342   1.125 -0.8771  0.7325  0.5738
10535TIP3    H253097   2.270   6.218   1.062 -0.7991  1.1744 -0.3661
10536TIP3   OH253098   4.350   1.284   0.873 -0.1690 -0.1146  0.0078
10536TIP3    H153099   4.271   1.231   0.862 -0.2092  0.0446 -0.5098
10536TIP3    H253100   4.333   1.363   0.821 -0.1669  0.4663  0.8921
10537TIP3   OH253101   4.875   4.891   0.334 -0.2788 -0.1743  0.4923
10537TIP3    H153102   4.792   4.908   0.379 -0.9941 -2.5804  0.2043
10537TIP3    H253103   4.887   4.796   0.343  1.4751 -0.1227 -1.1227
10538TIP3   OH253104   5.132   5.952   4.323  0.2290  0.7228  0.3187
10538TIP3    H153105   5.130   5.893   4.248 -1.1119 -0.5253  1.3090
10538TIP3    H253106   5.104   5.898   4.397  0.9258  2.0900  1.6061
10539TIP3   OH253107   1.287   0.396  11.578  0.4793 -0.5026 -0.4719
10539TIP3    H153108   1.243   0.342  11.513  0.7640  0.5870 -1.5788
10539TIP3    H253109   1.363   0.431  11.532 -0.5474  2.1098 -0.2458
10540TIP3   OH253110   1.670   5.076   0.193 -0.4738  0.3353  0.1359
10540TIP3    H153111   1.640   5.046   0.279 -1.1880  0.7345  0.0317
10540TIP3    H253112   1.644   5.006   0.133  2.2029 -1.0895  0.5760
10541TIP3   OH253113   0.090   5.463   0.323  0.0561  0.4535 -0.1316
10541TIP3    H153114   0.026   5.461   0.394  1.0491 -0.9176  0.7440
10541TIP3    H253115   0.159   5.520   0.356 -0.1908  1.0325 -0.6185
10542TIP3   OH253116   6.021   2.721   5.333 -0.1218 -0.1400  0.0303
10542TIP3    H153117   5.985   2.652   5.389 -0.9340 -0.1990 -0.5480
10542TIP3    H253118   6.074   2.775   5.391  0.5956 -1.3183  0.4649
10543TIP3   OH253119   3.202   4.754  11.570  0.0630  0.3696 -0.0620
10543TIP3    H153120   3.125   4.709  11.535  0.0371  0.3647  0.0020
10543TIP3    H253121   3.271   4.687  11.570  0.3571  0.6684 -1.1472
10544TIP3   OH253122   0.206   2.754  12.807  0.4252  0.6694 -0.0095
10544TIP3    H153123   0.153   2.687  12.763  0.6412 -0.0985  0.8698
10544TIP3    H253124   0.159   2.773  12.888  0.7230  1.0646  0.0713
10545TIP3   OH253125   0.142   4.219   3.564 -0.5127  0.2206  0.0874
10545TIP3    H153126   0.165   4.240   3.654  0.7233  3.1260 -0.8269
10545TIP3    H253127   0.214   4.165   3.532 -0.7634 -0.4846  0.7084
10546TIP3   OH253128   2.802   0.940   0.941  0.2667 -0.2267  0.6370
10546TIP3    H153129   2.742   1.010   0.963  1.2337  0.1806  2.0338
10546TIP3    H253130   2.788   0.924   0.847 -2.1102 -0.2748  0.9907
10547TIP3   OH253131   2.739   1.764  13.067 -0.4543 -0.5135 -0.0853
10547TIP3    H153132   2.705   1.733  13.151 -0.5176  2.3694  0.9820
10547TIP3    H253133   2.787   1.688  13.032 -0.7498 -1.8779  2.3541
10548TIP3   OH253134   6.459   2.027  14.778 -0.0639  0.4507 -0.0537
10548TIP3    H153135   6.379   1.975  14.774  0.0652  0.2351  0.1442
10548TIP3    H253136   6.524   1.967  14.815  0.9911 -0.4338 -3.1402
10549TIP3   OH253137   2.105   6.380  10.663  0.1274  0.5007 -0.1826
10549TIP3    H153138   2.176   6.396  10.601  1.9051 -1.0130  1.4054
10549TIP3    H253139   2.058   6.304  10.628  0.5305  0.2519 -0.1834
10550TIP3   OH253140   0.418   5.033   4.336 -0.2005  0.2907  0.1660
10550TIP3    H153141   0.432   5.128   4.342 -0.1225  0.2810  0.1542
10550TIP3    H253142   0.507   4.996   4.338 -0.2372  0.2116  0.2812
10551TIP3   OH253143   5.187   6.543  16.086  0.4821 -0.3236  0.0291
10551TIP3    H153144   5.158   6.484  16.016  2.6110 -0.5164 -0.7271
10551TIP3    H253145   5.141   6.511  16.164 -1.7121 -0.2832 -1.1875
10552TIP3   OH253146   4.007   3.635   2.420 -0.2546  0.2891  0.5613
10552TIP3    H153147   3.929   3.656   2.471  0.8220  0.4936  2.1429
10552TIP3    H253148   4.034   3.549   2.451  0.8145  0.7202  0.8299
10553TIP3   OH253149   0.883   5.041  12.188 -0.0846 -0.3208 -1.0047
10553TIP3    H153150   0.802   4.994  12.207 -1.2717  1.5719 -1.3465
10553TIP3    H253151   0.944   4.972  12.161 -1.2089 -1.8965  0.3783
10554TIP3   OH253152   5.243   4.195   5.490  0.3839 -0.2038  0.6907
10554TIP3    H153153   5.316   4.163   5.438 -0.5430  0.0967 -0.8438
10554TIP3    H253154   5.283   4.246   5.560  1.7399 -2.2561  1.4306
10555TIP3   OH253155   2.004   1.921   4.423 -0.5203 -0.2009  0.5520
10555TIP3    H153156   1.993   1.831   4.391 -1.6045  0.4666 -0.9717
10555TIP3    H253157   2.095   1.943   4.402 -0.9334 -0.1206 -1.2118
10556TIP3   OH253158   1.271   1.455  12.759  0.6041  0.0437 -0.1573
10556TIP3    H153159   1.256   1.487  12.848  0.0816 -0.2420 -0.1406
10556TIP3    H253160   1.219   1.514  12.703  0.5806 -0.0475 -0.2324
10557TIP3   OH253161   1.552   4.099   0.564 -0.0177 -0.3662  0.1198
10557TIP3    H153162   1.556   4.013   0.607  1.2857  0.4120  1.6246
10557TIP3    H253163   1.508   4.082   0.481  2.1637 -2.8975 -0.5958
10558TIP3   OH253164   6.434   0.274  15.139  0.4190 -0.5567  0.0077
10558TIP3    H153165   6.390   0.354  15.112  1.2644 -0.1001 -0.0253
10558TIP3    H253166   6.491   0.251  15.066  0.3081 -1.1012  0.0824
10559TIP3   OH253167   6.243   3.546  17.151 -0.0948 -0.5425  0.3355
10559TIP3    H153168   6.155   3.519  17.125 -1.2041  0.9096  2.3685
10559TIP3    H253169   6.255   3.508  17.238  0.2968  1.2679  1.1016
10560TIP3   OH253170   4.458   5.047  17.249 -0.7975  0.2169 -0.2421
10560TIP3    H153171   4.503   5.005  17.322 -1.2430  1.1949  0.5925
10560TIP3    H253172   4.370   5.009  17.249 -1.0951  0.9072  0.3069
10561TIP3   OH253173   6.109   6.288  14.224  0.0307 -0.3813  0.5785
10561TIP3    H153174   6.188   6.342  14.218 -0.0815 -0.2721  0.0871
10561TIP3    H253175   6.103   6.266  14.317  0.2902  0.1334  0.7225
10562TIP3   OH253176   4.920   6.641  14.819 -0.4515  0.0693 -0.0711
10562TIP3    H153177   4.879   6.602  14.743 -1.6172  1.3642 -0.1267
10562TIP3    H253178   5.001   6.679  14.786 -0.3834 -0.3808 -0.4266
10563TIP3   OH253179   4.383   6.087  15.037 -0.7550 -0.6803  0.5982
10563TIP3    H153180   4.414   6.177  15.025 -0.8047 -0.8059 -0.5234
10563TIP3    H253181   4.367   6.080  15.131 -0.2622  0.3234  0.7671
10564TIP3   OH253182   1.004   3.121  11.543 -0.0437  0.1429 -0.2364
10564TIP3    H153183   0.962   3.101  11.627 -0.0457 -1.6791 -0.6684
10564TIP3    H253184   0.945   3.085  11.477  1.3519 -0.9318 -0.9099
10565TIP3   OH253185   3.893   1.268  13.736  1.0978  0.1507 -0.3140
10565TIP3    H153186   3.816   1.225  13.698  1.0839  0.6514 -0.8674
10565TIP3    H253187   3.965   1.244  13.677  0.9475  1.5085 -1.0711
10566TIP3   OH253188   5.579   3.704  15.862  0.2209 -0.1889 -0.2512
10566TIP3    H153189   5.616   3.672  15.944 -0.5875 -1.7053 -0.4512
10566TIP3    H253190   5.511   3.766  15.888 -1.7880 -2.5656  0.3471
10567TIP3   OH253191   4.728   4.390  11.730 -0.3500  0.1424  0.7803
10567TIP3    H153192   4.671   4.465  11.714  1.4544  1.3739 -0.0730
10567TIP3    H253193   4.807   4.409  11.679 -0.0910 -2.6261  0.0422
10568TIP3   OH253194   3.235   4.782   1.256 -0.4320 -0.0399  0.0641
10568TIP3    H153195   3.269   4.863   1.219 -0.1501 -0.5441 -0.7894
10568TIP3    H253196   3.309   4.721   1.251 -0.8137 -0.5163  0.1888
10569TIP3   OH253197   1.144   5.835  15.899  0.3088 -0.1822 -0.0699
10569TIP3    H153198   1.114   5.757  15.945 -2.7771  0.8090 -0.3073
10569TIP3    H253199   1.137   5.813  15.806  0.1475  0.1068 -0.1285
10570TIP3   OH253200   6.106   4.218   0.368  0.4065  0.1114 -0.1776
10570TIP3    H153201   6.116   4.134   0.323 -1.3797 -1.1485  1.7019
10570TIP3    H253202   6.040   4.265   0.317 -0.9886 -0.9633  0.6168
10571TIP3   OH253203   3.004   0.548  11.286  0.8476  0.0854  0.2854
10571TIP3    H153204   2.986   0.627  11.338  1.9638  0.7380 -0.2949
10571TIP3    H253205   3.092   0.521  11.312  1.5212  0.5590 -1.4102
10572TIP3   OH253206   1.846   2.540   3.563  1.4180 -0.2805 -0.4275
10572TIP3    H153207   1.790   2.469   3.530  1.8561  0.3271 -2.5419
10572TIP3    H253208   1.807   2.620   3.528  2.1065  0.3602  0.2549
10573TIP3   OH253209   3.178   5.046   2.798  0.2544 -0.3032  0.0472
10573TIP3    H153210   3.202   5.008   2.713  0.9732 -1.3020  0.6846
10573TIP3    H253211   3.261   5.050   2.846  0.3322  2.6853 -0.2242
10574TIP3   OH253212   1.356   2.475   1.896 -0.9028  0.3579  0.6647
10574TIP3    H153213   1.398   2.557   1.920  0.4087 -0.1746  0.2567
10574TIP3    H253214   1.342   2.430   1.979 -1.2269  0.7988  0.8525
10575TIP3   OH253215   6.748   5.663   3.880  0.4981 -0.8155 -0.4311
10575TIP3    H153216   6.746   5.590   3.943 -1.0650 -1.1673 -0.8761
10575TIP3    H253217   6.713   5.737   3.929 -0.7635 -1.1010 -0.8855
10576TIP3   OH253218   0.157   1.359   0.300  0.1514 -0.0287 -0.3879
10576TIP3    H153219   0.143   1.314   0.383 -0.0342 -2.1289 -1.5080
10576TIP3    H253220   0.250   1.346   0.281 -0.1053 -0.7422 -1.1695
10577TIP3   OH253221   6.475   0.642  11.979 -0.4533  0.2884  0.1491
10577TIP3    H153222   6.505   0.586  11.908 -2.4901 -1.0316  0.3093
10577TIP3    H253223   6.403   0.594  12.019 -1.0171  2.1887  1.4706
10578TIP3   OH253224   3.734   5.317   4.125  0.3988 -0.3332 -0.3069
10578TIP3    H153225   3.799   5.247   4.113  1.8280  0.9440 -0.1769
10578TIP3    H253226   3.785   5.398   4.121 -1.2270  0.7106 -0.3801
10579TIP3   OH253227   1.743   4.542  13.868  0.5351  0.3371 -0.1745
10579TIP3    H153228   1.782   4.480  13.930  0.3251 -0.3051 -0.6695
10579TIP3    H253229   1.815   4.598  13.841  0.8174  0.0501 -0.0245
10580TIP3   OH253230   2.796   6.320  13.012 -0.1052 -0.3848  0.0297
10580TIP3    H153231   2.858   6.301  13.082 -0.1652  1.4379  0.6005
10580TIP3    H253232   2.719   6.354  13.057 -0.3501  0.2802 -0.8847
10581TIP3   OH253233   2.388   6.687  14.089 -0.0584 -0.1023 -0.0690
10581TIP3    H153234   2.397   6.709  14.182 -0.8902  0.6305 -0.1540
10581TIP3    H253235   2.478   6.678  14.057  0.2603  1.0489  0.4877
10582TIP3   OH253236   6.508   0.669   0.946 -0.2003 -0.2749 -0.1464
10582TIP3    H153237   6.435   0.695   0.890 -0.5527  1.4980  1.0744
10582TIP3    H253238   6.487   0.707   1.032  1.4148 -1.0207  0.6095
10583TIP3   OH253239   2.696   1.258   3.554 -0.4470 -0.0299  0.2151
10583TIP3    H153240   2.719   1.306   3.474  1.9551 -2.4896 -0.6459
10583TIP3    H253241   2.634   1.191   3.525  1.3302 -1.6930  0.1080
10584TIP3   OH253242   0.698   2.296   0.511  0.1516 -0.2244  0.1945
10584TIP3    H153243   0.713   2.202   0.524  3.4275  0.3693  1.3995
10584TIP3    H253244   0.659   2.325   0.593  1.8812 -0.0734  1.0009
10585TIP3   OH253245   5.742   1.171  15.709  0.5831 -0.1924  1.1697
10585TIP3    H153246   5.833   1.148  15.691  0.5236  0.3354  0.0952
10585TIP3    H253247   5.746   1.264  15.734  0.3031 -0.0484  0.6933
10586TIP3   OH253248   3.039   0.142  16.284 -0.3720 -0.3940 -0.2482
10586TIP3    H153249   3.021   0.234  16.269  0.4605 -0.0987  0.5430
10586TIP3    H253250   3.062   0.137  16.377 -0.7848 -1.4521 -0.1935
10587TIP3   OH253251   4.166   6.358   0.551 -0.3826 -0.3586 -0.9960
10587TIP3    H153252   4.183   6.267   0.579  0.1183  0.1727  0.5102
10587TIP3    H253253   4.232   6.375   0.484  0.6163 -0.5775 -0.0949
10588TIP3   OH253254   0.402   1.921   3.897  0.0886 -0.6007 -0.5734
10588TIP3    H153255   0.367   1.834   3.920 -1.1147 -0.1051 -0.4711
10588TIP3    H253256   0.459   1.944   3.971  0.0240 -1.0900 -0.3656
10589TIP3   OH253257   1.868   5.907  14.789 -0.0985 -0.0347  0.4302
10589TIP3    H153258   1.805   5.979  14.785 -0.8646 -0.5957  2.1796
10589TIP3    H253259   1.919   5.924  14.868 -0.2371 -1.3848  0.8146
10590TIP3   OH253260   3.564   0.815   3.587  0.1687  0.4856 -0.0086
10590TIP3    H153261   3.599   0.726   3.585 -1.6374 -0.2564  0.0266
10590TIP3    H253262   3.638   0.871   3.563  1.2849 -1.0341 -0.1828
10591TIP3   OH253263   6.603   2.475   0.203 -0.4163 -0.2519 -0.4476
10591TIP3    H153264   6.595   2.569   0.185 -1.2851  0.0968  1.6369
10591TIP3    H253265   6.560   2.463   0.287 -2.7088 -2.9874 -1.9291
10592TIP3   OH253266   1.732   0.650  11.547  0.4687 -0.1320  0.5065
10592TIP3    H153267   1.719   0.556  11.544  2.3333 -0.4774  2.0431
10592TIP3    H253268   1.666   0.686  11.488 -0.3873 -2.3751  0.0682
10593TIP3   OH253269   2.872   0.825  12.050 -0.1402  0.0123  0.6353
10593TIP3    H153270   2.940   0.890  12.032 -0.1606  0.0068  0.5424
10593TIP3    H253271   2.800   0.876  12.087  0.6961 -0.2423  2.7000
10594TIP3   OH253272   5.622   3.323   3.761  0.2044 -0.0606  0.2673
10594TIP3    H153273   5.589   3.395   3.814  0.5553 -0.0666  0.4911
10594TIP3    H253274   5.685   3.363   3.701 -1.7483  0.3099 -1.6086
10595TIP3   OH253275   2.016   3.073  14.900 -0.2741 -0.4105 -0.6639
10595TIP3    H153276   2.096   3.121  14.877 -0.6084 -0.1425 -1.2898
10595TIP3    H253277   1.948   3.141  14.905 -0.3288 -0.5447  0.5585
10596TIP3   OH253278   4.505   4.073  13.587  0.0124 -0.0988  0.0410
10596TIP3    H153279   4.469   4.012  13.522 -2.2408 -0.6967  1.7508
10596TIP3    H253280   4.577   4.025  13.627  0.4603 -0.3007 -1.0056
10597TIP3   OH253281   1.162   3.656   1.696  0.0901 -0.1493  0.8027
10597TIP3    H153282   1.236   3.696   1.743  0.1035  0.5514  0.1919
10597TIP3    H253283   1.101   3.729   1.682  0.2086 -0.3044 -0.5023
10598TIP3   OH253284   4.908   2.596   6.318  0.0008 -0.1232 -0.3835
10598TIP3    H153285   4.985   2.653   6.327  2.0498 -2.1546 -3.8701
10598TIP3    H253286   4.835   2.657   6.305  1.4232  1.7769  0.2939
10599TIP3   OH253287   2.354   0.839  13.025 -0.6685 -0.4364 -0.2433
10599TIP3    H153288   2.319   0.764  13.073 -0.6989 -0.8591 -0.9146
10599TIP3    H253289   2.412   0.882  13.088 -0.8340 -0.8837  0.2247
10600TIP3   OH253290   4.658   4.283   4.109  0.2668  0.1984 -0.5783
10600TIP3    H153291   4.734   4.282   4.050  0.1605 -0.6493 -0.7046
10600TIP3    H253292   4.598   4.345   4.069  1.4556  1.9066  0.2356
10601TIP3   OH253293   2.244   1.614  15.284  0.1452 -0.4232  0.0335
10601TIP3    H153294   2.290   1.583  15.362  1.1133 -3.3688 -1.6499
10601TIP3    H253295   2.152   1.614  15.309  0.5205 -0.3764  1.4808
10602TIP3   OH253296   5.133   3.523   5.656 -0.6261 -0.4112  0.3460
10602TIP3    H153297   5.175   3.527   5.743 -0.3276  2.5973  0.0954
10602TIP3    H253298   5.160   3.603   5.613 -0.7461 -1.9003 -2.5976
10603TIP3   OH253299   6.626   5.462   3.008  0.0404 -0.3815  0.1732
10603TIP3    H153300   6.683   5.415   3.069  0.1275 -2.2006 -1.2724
10603TIP3    H253301   6.639   5.554   3.030  0.5709 -0.9603  2.4517
10604TIP3   OH253302   4.293   2.436  13.231  0.1488  0.1706  0.1829
10604TIP3    H153303   4.316   2.445  13.139  0.3860  1.9458  0.4058
10604TIP3    H253304   4.206   2.476  13.239  0.0965 -0.0408  0.7237
10605TIP3   OH253305   4.908   3.377  14.656 -0.2845 -0.2752 -0.5239
10605TIP3    H153306   4.836   3.433  14.626 -0.8058 -0.6254  0.0630
10605TIP3    H253307   4.954   3.430  14.721 -1.3493 -0.8655  0.7350
10606TIP3   OH253308   0.489   4.150   0.608 -0.0232  0.0613  0.0550
10606TIP3    H153309   0.494   4.215   0.537  0.2849  1.2051  1.0991
10606TIP3    H253310   0.532   4.072   0.572  2.0893  1.3253 -0.2693
10607TIP3   OH253311   2.604   1.952  12.338 -0.2459 -0.1492  0.0003
10607TIP3    H153312   2.529   1.982  12.286 -0.4886  1.4263  1.2430
10607TIP3    H253313   2.576   1.961  12.429  0.2241 -2.8033  0.4406
10608TIP3   OH253314   0.701   4.817   3.674 -0.2806  0.4741  0.5621
10608TIP3    H153315   0.669   4.750   3.735 -0.7740  0.8899  0.7606
10608TIP3    H253316   0.777   4.855   3.718 -1.1926  1.4247  1.3535
10609TIP3   OH253317   5.445   2.584  15.914  0.4867 -0.4355  0.0156
10609TIP3    H153318   5.439   2.509  15.973 -0.5085 -0.9295 -0.7032
10609TIP3    H253319   5.454   2.545  15.827 -2.3426  0.2487 -0.6190
10610TIP3   OH253320   5.750   5.095   2.290 -0.2664 -0.1471 -0.4371
10610TIP3    H153321   5.667   5.127   2.325  0.4095  0.0728  0.9699
10610TIP3    H253322   5.796   5.174   2.261  0.4664 -0.0349  1.0046
10611TIP3   OH253323   6.279   6.441   5.100  0.4325  0.4583  0.7682
10611TIP3    H153324   6.214   6.400   5.156 -0.9371  2.3587  0.6119
10611TIP3    H253325   6.353   6.460   5.159 -0.1685  0.5687  1.4917
10612TIP3   OH253326   5.419   2.416   2.150 -0.8004 -0.1330 -0.4361
10612TIP3    H153327   5.497   2.437   2.100  0.4478 -0.6188  1.2712
10612TIP3    H253328   5.392   2.330   2.118  1.5468 -1.6671  1.5297
10613TIP3   OH253329   6.559   5.314   1.319 -0.3778  0.5266  0.2010
10613TIP3    H153330   6.595   5.278   1.238 -1.0352 -0.9989  0.5793
10613TIP3    H253331   6.626   5.375   1.350  1.5803 -1.6992  0.4833
10614TIP3   OH253332   0.592   2.449  16.208  0.6445  0.3237  0.0567
10614TIP3    H153333   0.542   2.379  16.167  2.8508 -0.6947 -1.0046
10614TIP3    H253334   0.589   2.521  16.145 -1.1024  0.9750  0.8692
10615TIP3   OH253335   0.998   1.369   4.349 -0.4086  0.0529 -0.4328
10615TIP3    H153336   1.066   1.394   4.288  0.9093  1.0255  1.3946
10615TIP3    H253337   0.946   1.449   4.362 -1.0186 -0.2960 -0.7214
10616TIP3   OH253338   2.620   4.452   5.285 -0.2736  0.0470  0.1401
10616TIP3    H153339   2.649   4.382   5.227 -0.8024 -1.4179  1.6277
10616TIP3    H253340   2.602   4.525   5.226  1.1053 -0.7790 -1.3400
10617TIP3   OH253341   1.354   6.450  13.963 -0.0181  0.2958 -0.5003
10617TIP3    H153342   1.371   6.359  13.937  0.8544  0.4726 -0.5600
10617TIP3    H253343   1.365   6.500  13.882 -2.0170  0.2781 -0.8015
10618TIP3   OH253344   5.792   0.392  15.715  0.0382 -0.3268 -0.0818
10618TIP3    H153345   5.866   0.449  15.736 -0.5031  0.5334 -0.4674
10618TIP3    H253346   5.832   0.310  15.686  0.8352  0.0790 -0.1478
10619TIP3   OH253347   5.049   2.214   3.448 -0.5917  1.0098 -0.2685
10619TIP3    H153348   5.076   2.158   3.376 -0.8971  3.1160 -2.0659
10619TIP3    H253349   5.127   2.267   3.469  0.2004 -1.1071  2.4933
10620TIP3   OH253350   1.369   1.306   1.159  0.1498 -0.4009 -0.7135
10620TIP3    H153351   1.375   1.333   1.250  0.0784 -1.0467 -0.5226
10620TIP3    H253352   1.403   1.217   1.157  0.0349 -0.4338 -1.2958
10621TIP3   OH253353   0.807   1.136  13.487  0.1691  0.3823 -0.2621
10621TIP3    H153354   0.764   1.220  13.473 -1.2732 -0.2508  0.2496
10621TIP3    H253355   0.736   1.076  13.507  1.0531 -1.2344 -1.8083
10622TIP3   OH253356   1.493   2.381  10.776 -0.0139 -0.1540  0.1724
10622TIP3    H153357   1.572   2.394  10.724 -0.3394  0.5495 -0.1458
10622TIP3    H253358   1.420   2.391  10.714 -0.3014 -3.3770 -0.0684
10623TIP3   OH253359   3.830   4.562   2.905  0.5070  0.5042  0.2047
10623TIP3    H153360   3.736   4.559   2.917  0.4097  2.1478 -0.0053
10623TIP3    H253361   3.853   4.475   2.872 -0.6929 -0.4328  1.7828
10624TIP3   OH253362   0.642   0.383   2.473  0.5444  0.0671 -0.4547
10624TIP3    H153363   0.583   0.383   2.549  2.9500 -2.0884  1.4909
10624TIP3    H253364   0.639   0.292   2.442  0.8099  0.5753 -1.9586
10625TIP3   OH253365   4.189   4.079  16.512  0.1474  0.0261  0.4385
10625TIP3    H153366   4.125   4.041  16.452 -1.8762  1.0280  1.8990
10625TIP3    H253367   4.263   4.018  16.511 -0.7133 -1.0372 -1.4469
10626TIP3   OH253368   6.110   6.588   5.984 -0.1651 -0.0317  0.4487
10626TIP3    H153369   6.155   6.512   5.947  0.1636  1.4362 -2.2921
10626TIP3    H253370   6.168   6.619   6.053  1.4107 -0.1679 -0.7915
10627TIP3   OH253371   6.443   4.122  14.420 -0.2884 -0.2907 -0.0674
10627TIP3    H153372   6.423   4.156  14.507 -0.0691 -1.5098  0.4817
10627TIP3    H253373   6.361   4.082  14.390 -0.3580  0.1080 -0.4072
10628TIP3   OH253374   4.329   0.324   0.888 -0.6071 -0.2641 -0.2830
10628TIP3    H153375   4.314   0.237   0.924 -1.0349  0.3287  1.0168
10628TIP3    H253376   4.417   0.348   0.918 -1.3162  0.5989  1.1795
10629TIP3   OH253377   0.326   0.770   7.209 -0.4197  0.0700  0.2387
10629TIP3    H153378   0.392   0.834   7.183  0.5740 -0.8336  0.5171
10629TIP3    H253379   0.304   0.723   7.129  0.3810 -0.6407  0.4345
10630TIP3   OH253380   1.094   6.185  13.903 -0.0861  0.2523 -0.0994
10630TIP3    H153381   1.108   6.096  13.869 -1.5070 -0.0375  0.0438
10630TIP3    H253382   1.135   6.242  13.838  0.4706 -0.4792 -0.4011
10631TIP3   OH253383   4.825   1.738  15.599 -0.4141  0.7614 -0.1778
10631TIP3    H153384   4.869   1.687  15.667 -1.7358 -0.0032  0.1206
10631TIP3    H253385   4.878   1.818  15.591  2.3362 -1.1226 -1.4379
10632TIP3   OH253386   3.144   6.532   0.406 -0.2224  0.7482  0.3020
10632TIP3    H153387   3.171   6.442   0.386  0.0098  0.8598  0.1125
10632TIP3    H253388   3.225   6.582   0.407 -0.4541  1.1457 -0.5692
10633TIP3   OH253389   3.536   1.981   1.068 -0.0125  0.1804 -0.2550
10633TIP3    H153390   3.505   1.891   1.079 -0.6478  0.3050 -1.0343
10633TIP3    H253391   3.632   1.974   1.073 -0.0395 -0.6098 -0.8115
10634TIP3   OH253392   1.575   6.615   0.004 -0.0477  0.3680  0.2512
10634TIP3    H153393   1.498   6.665   0.032 -0.5206  0.3816 -1.0818
10634TIP3    H253394   1.571   6.535   0.057 -0.3688  0.8470  0.9679
10635TIP3   OH253395   0.302   2.822  13.392 -0.0132 -0.1653 -0.0853
10635TIP3    H153396   0.306   2.854  13.482  1.3984 -0.3673 -0.0591
10635TIP3    H253397   0.356   2.743  13.393  0.1808 -0.0479 -1.1558
10636TIP3   OH253398   4.188   3.741  11.374  0.2912 -0.3494 -0.7916
10636TIP3    H153399   4.153   3.766  11.288  0.3659 -1.2313 -1.0816
10636TIP3    H253400   4.130   3.784  11.437 -2.7465 -3.5876 -1.2141
10637TIP3   OH253401   2.324   3.122   5.091  0.5357 -0.3263  0.3031
10637TIP3    H153402   2.239   3.164   5.102  0.4197 -0.4237 -0.1955
10637TIP3    H253403   2.388   3.192   5.099  0.3360 -0.0173 -0.6915
10638TIP3   OH253404   5.362   2.849  16.023  0.2379  0.5682 -0.7091
10638TIP3    H153405   5.322   2.847  16.109  1.4820  0.6114 -0.1110
10638TIP3    H253406   5.362   2.758  15.994  0.6435  0.4192 -0.2578
10639TIP3   OH253407   4.791   2.329   1.134 -0.1112  0.1497  0.0299
10639TIP3    H153408   4.750   2.325   1.047 -0.7571  0.0592  0.3356
10639TIP3    H253409   4.735   2.275   1.189  0.0241  0.6042  0.6166
10640TIP3   OH253410   2.708   1.708   0.664  0.0207 -0.0481  0.2211
10640TIP3    H153411   2.692   1.799   0.686  1.3477  0.6230 -1.4664
10640TIP3    H253412   2.803   1.701   0.655 -0.1559 -1.2296 -1.0837
10641TIP3   OH253413   0.362   5.116   1.085 -0.1676 -0.3015  0.6828
10641TIP3    H153414   0.411   5.194   1.062  0.9038 -1.2238 -0.1968
10641TIP3    H253415   0.429   5.050   1.104 -1.0509 -1.6509 -0.8062
10642TIP3   OH253416   2.252   2.826  14.161 -0.2185 -0.2475 -0.0955
10642TIP3    H153417   2.269   2.802  14.070 -0.4469  0.0930 -0.2309
10642TIP3    H253418   2.210   2.749  14.199 -1.0071 -0.0479 -0.5416
10643TIP3   OH253419   4.449   6.630   0.828  0.7073 -0.0171 -0.7551
10643TIP3    H153420   4.386   6.694   0.795  1.6802  0.8250 -1.0209
10643TIP3    H253421   4.534   6.667   0.806  1.3376 -0.4167  0.9118
10644TIP3   OH253422   3.104   3.313   1.456 -0.4703  0.1583 -0.0879
10644TIP3    H153423   3.048   3.376   1.502  0.2180  1.2243 -0.7038
10644TIP3    H253424   3.064   3.228   1.475 -1.5772  0.7977  0.5108
10645TIP3   OH253425   1.788   3.488  15.755  0.6710  0.3366  0.6695
10645TIP3    H153426   1.723   3.556  15.774  0.1839  0.6068 -1.8721
10645TIP3    H253427   1.862   3.535  15.716 -0.1685 -0.6797 -2.2544
10646TIP3   OH253428   1.305   4.480  15.649 -0.0525  0.4892 -0.7551
10646TIP3    H153429   1.355   4.509  15.573 -0.7344  0.1091 -1.3539
10646TIP3    H253430   1.260   4.400  15.619 -0.0483  0.1414  0.1453
10647TIP3   OH253431   5.033   3.086  16.268  0.1554 -0.5695 -0.2450
10647TIP3    H153432   4.981   3.017  16.309  0.9513 -1.4074 -0.6452
10647TIP3    H253433   5.007   3.084  16.176 -0.1262 -0.0554 -0.1794
10648TIP3   OH253434   5.321   5.739   3.014  0.0527 -0.2875 -0.2335
10648TIP3    H153435   5.407   5.699   3.027  0.3462 -0.1884 -1.7966
10648TIP3    H253436   5.330   5.826   3.053  0.1000 -0.9055  1.1847
10649TIP3   OH253437   4.227   2.754  12.668 -0.8325 -0.6768 -0.2550
10649TIP3    H153438   4.271   2.815  12.728 -2.7190 -0.5069  1.0106
10649TIP3    H253439   4.187   2.810  12.602  0.3362 -0.7916 -1.0696
10650TIP3   OH253440   5.982   1.702   1.424  0.2353 -0.3694 -0.2842
10650TIP3    H153441   5.974   1.637   1.354 -0.1058 -2.1769  1.3937
10650TIP3    H253442   5.892   1.734   1.438  0.2754 -0.1414 -0.5503
10651TIP3   OH253443   6.552   4.831   6.169  0.3197 -0.1734 -0.0308
10651TIP3    H153444   6.570   4.771   6.242  0.3866 -1.3765 -1.0172
10651TIP3    H253445   6.635   4.876   6.154  0.7291 -1.0061 -0.3248
10652TIP3   OH253446   2.530   5.800   5.598 -0.1890 -0.0472 -0.2051
10652TIP3    H153447   2.573   5.732   5.545  0.1795 -0.2434  0.3432
10652TIP3    H253448   2.501   5.755   5.677  1.1080  0.6740  0.6948
10653TIP3   OH253449   1.415   3.836   6.409  0.3532  0.1043  0.3378
10653TIP3    H153450   1.326   3.864   6.427  0.4891  2.6248 -2.5767
10653TIP3    H253451   1.406   3.749   6.371 -0.8147  0.0268  0.7874
10654TIP3   OH253452   3.978   1.816  13.564  0.2931  0.5112 -0.1656
10654TIP3    H153453   3.896   1.810  13.515 -0.5645  0.9335  1.1912
10654TIP3    H253454   3.988   1.730  13.605  0.0733  0.7565  0.3969
10655TIP3   OH253455   1.988   1.307   2.707 -0.0616  0.4391  0.3951
10655TIP3    H153456   1.934   1.316   2.628 -0.4358  1.6820  0.7745
10655TIP3    H253457   2.026   1.220   2.700 -0.9834  0.0987 -0.5983
10656TIP3   OH253458   3.536   3.451   2.697  0.6547  0.3855  0.5678
10656TIP3    H153459   3.627   3.464   2.722  0.3584  2.0078  0.8556
10656TIP3    H253460   3.527   3.498   2.614  0.3367 -0.6676 -0.0098
10657TIP3   OH253461   6.446   1.953   1.096  0.1872  0.0658 -0.6467
10657TIP3    H153462   6.501   2.010   1.149  1.0669 -0.6089 -0.8264
10657TIP3    H253463   6.378   1.923   1.157 -0.8452  2.0259 -0.7878
10658TIP3   OH253464   6.645   3.236  16.451  0.5502  0.4146  0.6024
10658TIP3    H153465   6.735   3.257  16.425  0.5363 -0.0371  0.1711
10658TIP3    H253466   6.629   3.150  16.411 -0.2560  0.7354  0.2250
10659TIP3   OH253467   5.341   4.353  15.314  0.5206  0.7055 -0.1809
10659TIP3    H153468   5.295   4.377  15.233  1.2029  3.6542  0.2411
10659TIP3    H253469   5.334   4.431  15.369 -1.1568 -1.6919  3.2189
10660TIP3   OH253470   0.389   3.612  14.405 -0.4530  0.2579  0.2000
10660TIP3    H153471   0.377   3.654  14.490 -1.1607  0.7212 -0.1252
10660TIP3    H253472   0.319   3.648  14.351 -0.3544 -0.4645 -0.4130
10661TIP3   OH253473   6.723   6.334   4.618 -0.3238  0.0967  0.9857
10661TIP3    H153474   6.701   6.245   4.592  1.0163  0.4883 -1.6185
10661TIP3    H253475   6.806   6.325   4.665  0.9638  0.2120 -1.2367
10662TIP3   OH253476   3.610   5.466   4.612 -0.5219 -0.3120  0.3610
10662TIP3    H153477   3.658   5.434   4.688 -1.6210 -0.8845  0.8370
10662TIP3    H253478   3.627   5.401   4.544  1.0607  0.5904 -0.1140
10663TIP3   OH253479   5.803   3.829   2.925 -0.0271  0.3915 -0.1995
10663TIP3    H153480   5.720   3.847   2.879 -1.3435  0.9720  2.3195
10663TIP3    H253481   5.816   3.735   2.915 -1.1146  0.2584 -0.4281
10664TIP3   OH253482   2.921   0.041   1.364  0.0986 -0.0829  0.0950
10664TIP3    H153483   2.968   0.007   1.440  0.9765 -0.5066 -0.6231
10664TIP3    H253484   2.950  -0.014   1.292 -0.6825  0.3547 -0.5607
10665TIP3   OH253485   4.534   4.360  12.496  0.2217  0.1030  0.4774
10665TIP3    H153486   4.520   4.271  12.463  1.6687 -0.1295  0.4894
10665TIP3    H253487   4.622   4.359  12.533 -0.3842  1.0823  1.9909
10666TIP3   OH253488   6.630   0.602   0.543  0.1255 -0.3081 -0.1741
10666TIP3    H153489   6.560   0.564   0.490  0.1441  0.1342 -0.5165
10666TIP3    H253490   6.650   0.535   0.608 -1.6504  0.1346  0.8518
10667TIP3   OH253491   2.280   2.159  13.715  0.1651 -0.0337 -0.5574
10667TIP3    H153492   2.199   2.127  13.675  0.1709 -0.0778 -0.5343
10667TIP3    H253493   2.251   2.228  13.775  0.1824  0.2263 -0.8456
10668TIP3   OH253494   6.537   0.712   2.664 -0.2062 -0.3228  0.1851
10668TIP3    H153495   6.560   0.622   2.688 -1.7182 -0.8896 -0.4180
10668TIP3    H253496   6.470   0.702   2.597 -1.8028  1.2773  1.5165
10669TIP3   OH253497   3.987   6.324  13.068  0.0271 -0.0274 -0.3604
10669TIP3    H153498   3.983   6.387  12.996 -2.8143  1.4098  0.9516
10669TIP3    H253499   4.054   6.359  13.127  0.7447  0.0299 -1.2109
10670TIP3   OH253500   2.607   0.430  11.450  0.4977  0.2074 -0.4378
10670TIP3    H153501   2.656   0.425  11.368  1.8653  0.7562  0.3283
10670TIP3    H253502   2.517   0.443  11.423  0.9707  0.6210 -1.8588
10671TIP3   OH253503   1.644   1.451  11.904  0.3900  0.3979  0.4447
10671TIP3    H153504   1.625   1.360  11.882  1.0238  0.4898 -0.5009
10671TIP3    H253505   1.662   1.450  11.998  1.1006 -0.5705  0.3047
10672TIP3   OH253506   0.655   5.924  10.933  0.4298 -0.3789 -0.0416
10672TIP3    H153507   0.710   5.997  10.905 -0.7081 -0.0859 -1.5524
10672TIP3    H253508   0.618   5.889  10.852 -1.0815 -1.0132  0.8972
10673TIP3   OH253509   2.924   5.735  13.183  0.0525 -1.0235  0.1653
10673TIP3    H153510   2.951   5.658  13.133  0.7928 -0.6211 -0.0608
10673TIP3    H253511   2.830   5.724  13.196  0.7080 -3.7763  3.2426
10674TIP3   OH253512   2.339   1.746  16.215 -0.0306 -0.5259  0.2431
10674TIP3    H153513   2.344   1.674  16.278 -1.8471 -0.4884  0.4481
10674TIP3    H253514   2.314   1.704  16.133 -1.3716 -0.1112  0.4271
10675TIP3   OH253515   0.882   6.512   1.650  0.0945  0.0011  0.0205
10675TIP3    H153516   0.901   6.596   1.610  0.8470 -0.0391  0.2810
10675TIP3    H253517   0.880   6.450   1.577  1.3246 -0.0501  0.0306
10676TIP3   OH253518   1.096   3.914   2.062 -0.2405 -0.0456  0.6812
10676TIP3    H153519   1.137   3.848   2.119 -0.6834  0.0917  1.1551
10676TIP3    H253520   1.003   3.910   2.083 -0.2756  0.6828  0.6475
10677TIP3   OH253521   5.157   6.772   1.792 -0.0176 -0.6093 -0.0179
10677TIP3    H153522   5.183   6.864   1.798  0.2044 -0.6366 -0.4783
10677TIP3    H253523   5.071   6.768   1.832  1.1788 -0.7379  2.6211
10678TIP3   OH253524   1.667   0.229  14.228 -0.0170 -0.3375  0.1517
10678TIP3    H153525   1.755   0.265  14.235  0.1361 -0.4296 -1.1121
10678TIP3    H253526   1.676   0.155  14.167 -1.1827  0.4019 -0.9511
10679TIP3   OH253527   1.164   3.092  12.046  0.0915  0.0686 -0.6284
10679TIP3    H153528   1.174   3.101  12.140  0.5498  3.4471 -0.9534
10679TIP3    H253529   1.253   3.098  12.011 -0.1335 -0.5755 -1.3464
10680TIP3   OH253530   6.159   4.087   4.838 -0.4021  0.3095 -0.7100
10680TIP3    H153531   6.156   3.997   4.870 -0.6078  0.2677 -0.8455
10680TIP3    H253532   6.239   4.124   4.877 -0.9313  0.4225  0.2799
10681TIP3   OH253533   0.805   1.652   6.174 -0.1190  0.0151 -0.2846
10681TIP3    H153534   0.813   1.575   6.230  0.4087  1.9165  2.3438
10681TIP3    H253535   0.879   1.708   6.197 -2.5618  3.0459  0.6871
10682TIP3   OH253536   2.315   4.139  13.248 -0.0438 -0.0188 -0.5235
10682TIP3    H153537   2.348   4.050  13.241 -1.6442 -0.7089  0.4843
10682TIP3    H253538   2.343   4.182  13.167  0.4005 -1.5348 -1.1809
10683TIP3   OH253539   2.077   2.223   0.243 -0.6481 -0.1110  0.4233
10683TIP3    H153540   2.092   2.256   0.155  0.0235  0.0632  0.5976
10683TIP3    H253541   2.063   2.129   0.231 -2.4754  0.2047 -0.0619
10684TIP3   OH253542   1.313   3.037   5.548 -0.6297  0.0182  0.2668
10684TIP3    H153543   1.273   3.109   5.501 -2.6056 -0.9649  0.3956
10684TIP3    H253544   1.260   3.027   5.627  0.5054 -0.6373  0.9642
10685TIP3   OH253545   2.596   0.570   4.706 -0.1217  0.4578  0.5277
10685TIP3    H153546   2.670   0.520   4.671 -0.9471  0.3923 -1.1870
10685TIP3    H253547   2.529   0.504   4.723  0.2704  0.4858  2.3104
10686TIP3   OH253548   4.153   2.979  14.294 -0.4635  0.0871  0.3669
10686TIP3    H153549   4.129   3.067  14.321 -1.8639 -0.5265  1.1675
10686TIP3    H253550   4.197   2.941  14.370  1.3162  0.5329 -0.4237
10687TIP3   OH253551   0.706   5.211  13.946 -0.3463  0.5168 -0.1672
10687TIP3    H153552   0.680   5.121  13.968 -0.2415  0.0838 -1.7996
10687TIP3    H253553   0.628   5.249  13.907  0.1335  0.5835 -1.0706
10688TIP3   OH253554   2.926   1.782  16.318  0.0192 -0.1060 -0.7088
10688TIP3    H153555   2.969   1.735  16.246  1.2268 -0.5678  0.3039
10688TIP3    H253556   2.950   1.874  16.304 -0.7486 -0.0245 -1.5742
10689TIP3   OH253557   5.416   1.864   4.010  0.0493 -0.2143  0.2017
10689TIP3    H153558   5.353   1.800   4.043 -0.3571 -0.6858 -1.4882
10689TIP3    H253559   5.488   1.859   4.073 -1.4300  0.0908  1.9538
10690TIP3   OH253560   2.896   6.362   1.251 -0.0597  0.4924  0.0524
10690TIP3    H153561   2.939   6.321   1.325  0.7847 -0.8952 -1.1842
10690TIP3    H253562   2.964   6.366   1.183 -1.1358  0.7082 -1.0232
10691TIP3   OH253563   0.748   2.370  13.533 -0.3847  0.2259 -0.0174
10691TIP3    H153564   0.675   2.309  13.548 -1.6797  1.5823 -0.6986
10691TIP3    H253565   0.726   2.413  13.450  1.7153 -0.0791 -0.7599
10692TIP3   OH253566   1.146   3.887  17.112  0.7882  0.7286  0.0504
10692TIP3    H153567   1.150   3.966  17.165  0.2712  0.0255  1.1540
10692TIP3    H253568   1.218   3.833  17.144 -0.6286 -0.4714  1.3305
10693TIP3   OH253569   2.834   0.362  11.895  0.4690 -0.0708  0.0769
10693TIP3    H153570   2.860   0.444  11.853 -0.4468  0.3588  0.3395
10693TIP3    H253571   2.805   0.306  11.823 -1.0959  0.6632  0.1084
10694TIP3   OH253572   1.406   6.124   4.283  0.8148  0.0929  0.2606
10694TIP3    H153573   1.353   6.099   4.359  2.2651  2.6649  2.1978
10694TIP3    H253574   1.343   6.137   4.213 -0.6585 -1.3092  1.2782
10695TIP3   OH253575   5.392   1.580  16.007  0.1717 -0.4036 -0.1309
10695TIP3    H153576   5.312   1.546  15.968 -1.2142  1.6051  0.8561
10695TIP3    H253577   5.396   1.538  16.093 -1.4287  1.6245  1.0042
10696TIP3   OH253578   0.092   5.261  10.354 -0.4035 -0.7567  0.2910
10696TIP3    H153579   0.059   5.207  10.426  1.2524 -1.8290  0.2712
10696TIP3    H253580   0.072   5.351  10.381  0.4686 -1.1192  2.2571
10697TIP3   OH253581   4.254   1.684   5.446  0.4536  0.4282 -0.0791
10697TIP3    H153582   4.267   1.681   5.351 -1.4145  0.2142 -0.3546
10697TIP3    H253583   4.283   1.771   5.471  2.7358 -0.1794 -0.5552
10698TIP3   OH253584   1.354   1.964  11.994 -0.6807  0.6309 -0.2333
10698TIP3    H153585   1.410   1.934  12.065 -2.5099 -0.1775  0.9246
10698TIP3    H253586   1.383   2.054  11.977 -0.3093  0.9026  1.6787
10699TIP3   OH253587   1.577   6.687   5.099 -0.5702  0.1407  0.6525
10699TIP3    H153588   1.489   6.710   5.129 -0.8023  0.3599 -0.1792
10699TIP3    H253589   1.582   6.723   5.011  0.4414  0.3332  0.7848
10700TIP3   OH253590   1.470   2.321   3.157  0.0269  0.1323  0.6617
10700TIP3    H153591   1.381   2.293   3.179  0.1452  0.4868  1.5889
10700TIP3    H253592   1.502   2.254   3.097 -0.7213 -0.2156  0.6497
10701TIP3   OH253593   2.717   5.977  14.038  0.0006  0.9533  0.0074
10701TIP3    H153594   2.638   5.983  13.984 -1.0591 -1.9365  1.1409
10701TIP3    H253595   2.779   5.928  13.985 -0.3934 -0.2731  0.6621
10702TIP3   OH253596   3.917   6.021  17.117 -0.2511 -0.1047 -0.0986
10702TIP3    H153597   3.917   5.926  17.105 -1.9207 -0.3939  1.8053
10702TIP3    H253598   3.842   6.052  17.067 -1.5699 -0.1859  1.7941
10703TIP3   OH253599   0.393   2.789   0.975 -0.0050  0.5518 -0.6359
10703TIP3    H153600   0.482   2.769   1.004 -0.0497  1.0821 -0.1146
10703TIP3    H253601   0.402   2.812   0.882  0.2038 -0.7409 -0.9438
10704TIP3   OH253602   2.321   2.758   1.448  0.0230 -0.8884 -0.1561
10704TIP3    H153603   2.394   2.699   1.431  0.9649 -0.2161  1.4767
10704TIP3    H253604   2.334   2.787   1.539 -1.4125  0.4279 -0.3566
10705TIP3   OH253605   6.474   0.847  16.088  1.0993 -0.0016  0.6192
10705TIP3    H153606   6.485   0.761  16.127  4.1696  1.1244  2.3266
10705TIP3    H253607   6.388   0.877  16.119  0.5694 -1.8907  1.0176
10706TIP3   OH253608   6.079   6.284  14.492 -0.1833  0.4800 -0.4478
10706TIP3    H153609   6.072   6.364  14.544 -0.1046  0.1759  0.0381
10706TIP3    H253610   6.043   6.215  14.549 -1.4263  0.3734 -1.3466
10707TIP3   OH253611   5.599   0.230  12.457  0.0003 -0.0385 -0.4342
10707TIP3    H153612   5.518   0.261  12.500  1.0876  1.9092  0.2689
10707TIP3    H253613   5.664   0.228  12.528  0.8694 -0.5182 -1.2371
10708TIP3   OH253614   5.891   3.199   0.874 -0.5366  0.3694  0.1565
10708TIP3    H153615   5.913   3.209   0.781 -0.6273 -2.0266 -0.1404
10708TIP3    H253616   5.890   3.105   0.889 -3.2883  0.6233  1.9461
10709TIP3   OH253617   5.920   1.597  14.291 -0.6487  0.5167  0.3145
10709TIP3    H153618   5.955   1.509  14.298 -0.4858  0.5489 -0.0901
10709TIP3    H253619   5.828   1.584  14.268 -1.3070  0.3999  2.8255
10710TIP3   OH253620   3.277   0.150   4.484 -0.5704 -0.0527  0.4033
10710TIP3    H153621   3.369   0.161   4.510 -0.6484  0.7329  0.3647
10710TIP3    H253622   3.232   0.127   4.566 -0.3730 -0.2262  0.4623
10711TIP3   OH253623   6.592   0.568  15.705 -0.1313  0.3135  0.2860
10711TIP3    H153624   6.622   0.485  15.743 -0.1847 -0.1955 -0.7838
10711TIP3    H253625   6.621   0.565  15.614 -0.4149  1.3338  0.1540
10712TIP3   OH253626   4.616   0.357   1.423  0.4443  0.4162  0.0457
10712TIP3    H153627   4.585   0.383   1.510  0.6156 -0.0167  0.2348
10712TIP3    H253628   4.707   0.330   1.436  0.8919  1.6074 -0.4921
10713TIP3   OH253629   4.458   2.490  14.424  0.2831  0.3239 -0.7891
10713TIP3    H153630   4.382   2.547  14.430  0.7057  1.1169 -2.8280
10713TIP3    H253631   4.502   2.515  14.343  4.0132  1.4711  1.4379
10714TIP3   OH253632   6.812   1.708   6.645 -0.1463  0.5089 -0.0813
10714TIP3    H153633   6.803   1.635   6.706  1.2073 -0.3052 -0.8179
10714TIP3    H253634   6.725   1.717   6.605 -0.5705 -0.0841  0.6911
10715TIP3   OH253635   2.573   0.411   4.384 -0.0916  0.3341  0.1907
10715TIP3    H153636   2.554   0.321   4.359 -1.7968  1.3328 -2.3351
10715TIP3    H253637   2.489   0.447   4.411  0.2850  1.5815 -0.2433
10716TIP3   OH253638   5.593   5.860   0.112  0.1073 -0.2650  0.6669
10716TIP3    H153639   5.598   5.786   0.052  1.3794  0.2560  0.1347
10716TIP3    H253640   5.520   5.912   0.079  0.1842 -0.4801  0.1543
10717TIP3   OH253641   3.624   6.603  13.635  0.0759 -0.4220  0.1219
10717TIP3    H153642   3.565   6.548  13.686 -0.4656 -0.0161 -0.0560
10717TIP3    H253643   3.706   6.553  13.630  0.3771 -0.1655  1.9829
10718TIP3   OH253644   3.329   3.219   2.911  0.3651  0.2117  0.4332
10718TIP3    H153645   3.322   3.312   2.890  1.3366  0.2990  0.4788
10718TIP3    H253646   3.260   3.204   2.976  1.3319  1.2919  1.7212
10719TIP3   OH253647   1.734   0.449  12.867 -0.2642 -0.1339  0.0733
10719TIP3    H153648   1.652   0.399  12.874 -1.3642  1.2009 -2.6181
10719TIP3    H253649   1.717   0.529  12.917  0.1892 -0.7812  1.2924
10720TIP3   OH253650   6.568   1.729  14.286 -0.3946 -0.3743  0.3564
10720TIP3    H153651   6.574   1.771  14.201  1.6919 -1.1754  0.0858
10720TIP3    H253652   6.528   1.644  14.268 -1.6451  0.1661  0.4655
10721TIP3   OH253653   3.005   2.613  12.743 -0.1270 -0.0513  0.1614
10721TIP3    H153654   3.054   2.649  12.816 -0.3583  0.8109 -0.1064
10721TIP3    H253655   2.950   2.545  12.782 -1.1523  1.2322  0.9918
10722TIP3   OH253656   5.186   0.919  10.529 -0.4094  0.3981  0.1870
10722TIP3    H153657   5.167   0.991  10.590 -0.1884  0.0566  0.6642
10722TIP3    H253658   5.203   0.844  10.586  0.0139  0.1289 -0.2901
10723TIP3   OH253659   4.829   5.098   2.864  0.0161 -0.4114 -0.0637
10723TIP3    H153660   4.821   5.178   2.811 -1.7240  0.7246  1.8344
10723TIP3    H253661   4.887   5.123   2.936  1.0839 -1.4686 -0.5462
10724TIP3   OH253662   5.885   4.132   3.336  0.5801 -0.2533 -0.3579
10724TIP3    H153663   5.847   4.090   3.259 -0.9713  0.7709 -0.1699
10724TIP3    H253664   5.829   4.104   3.408  1.6707 -0.7251  0.3285
10725TIP3   OH253665   0.764   1.684   2.628  0.3548  0.2609 -0.2705
10725TIP3    H153666   0.704   1.725   2.690  0.6551  0.3303 -0.0268
10725TIP3    H253667   0.843   1.666   2.679 -0.0511 -1.3315 -0.1698
10726TIP3   OH253668   6.313   3.359   2.759 -0.9532  0.1722 -0.4777
10726TIP3    H153669   6.338   3.369   2.851 -0.9261  0.7443 -0.5472
10726TIP3    H253670   6.285   3.268   2.752 -3.1400  0.7037  0.6412
10727TIP3   OH253671   0.621   6.198  15.043  0.7912 -0.1566 -0.3809
10727TIP3    H153672   0.621   6.188  14.948  1.0823 -0.4359 -0.3549
10727TIP3    H253673   0.597   6.289  15.058  1.2467  0.0275 -0.7422
10728TIP3   OH253674   2.169   2.991   1.033 -0.7070  0.0434  0.3429
10728TIP3    H153675   2.156   3.022   1.123 -2.0495 -0.4088  0.3086
10728TIP3    H253676   2.163   2.896   1.039  1.8322 -0.1691  0.1807
10729TIP3   OH253677   1.180   0.413  17.167  0.1566  0.1148 -0.1237
10729TIP3    H153678   1.223   0.483  17.217  0.2001  0.7093 -0.9761
10729TIP3    H253679   1.118   0.459  17.110 -0.2062 -0.5875 -0.2988
10730TIP3   OH253680   1.137   6.562  11.593 -0.7353  0.1694  0.0309
10730TIP3    H153681   1.162   6.574  11.684  0.7861 -0.0312 -0.3406
10730TIP3    H253682   1.163   6.644  11.550 -1.3921  0.2417 -0.2478
10731TIP3   OH253683   4.939   1.207   5.503 -0.2605 -0.2067  0.0011
10731TIP3    H153684   4.848   1.179   5.496  0.2880 -1.8940 -0.6281
10731TIP3    H253685   4.942   1.291   5.458 -1.3771 -0.4358 -0.5088
10732TIP3   OH253686   4.933   2.316  10.954 -0.3580  0.4926  1.0914
10732TIP3    H153687   4.893   2.366  10.882  0.9731 -0.0194 -0.0107
10732TIP3    H253688   4.975   2.242  10.911 -0.5594 -0.4686  2.5337
10733TIP3   OH253689   1.711   0.850   3.939  0.3732 -0.0231  0.1245
10733TIP3    H153690   1.775   0.913   3.973 -1.3550  2.7156 -1.4883
10733TIP3    H253691   1.642   0.848   4.006 -0.6126  1.5417 -0.7937
10734TIP3   OH253692   5.163   5.729  16.644 -0.6376 -0.2595  0.1724
10734TIP3    H153693   5.103   5.686  16.704 -0.8793 -1.7273 -1.1154
10734TIP3    H253694   5.249   5.694  16.666 -0.4936  0.4465  0.7621
10735TIP3   OH253695   0.694   1.733  11.022  0.0041  0.4364 -0.1476
10735TIP3    H153696   0.611   1.685  11.028  1.0920 -1.6525 -1.2824
10735TIP3    H253697   0.668   1.825  11.029 -2.3921 -0.1804 -0.2071
10736TIP3   OH253698   1.326   3.461  13.612  0.6961 -0.3072  0.0871
10736TIP3    H153699   1.272   3.461  13.691  0.0806  0.6224 -0.3333
10736TIP3    H253700   1.412   3.492  13.641  0.0950  1.3257  0.1375
10737TIP3   OH253701   0.740   4.058   4.731 -0.9666  0.0168 -0.2691
10737TIP3    H153702   0.693   4.099   4.658 -0.2289  0.6281 -0.4086
10737TIP3    H253703   0.812   4.118   4.749  0.6474 -1.6324 -1.0415
10738TIP3   OH253704   6.789   0.121   3.398  0.7850 -0.3752 -0.0134
10738TIP3    H153705   6.723   0.184   3.425  0.3245 -1.1874  0.7892
10738TIP3    H253706   6.863   0.135   3.457  1.3681  0.5626 -0.9384
10739TIP3   OH253707   4.843   5.929   4.464 -0.1659 -0.0977  0.3542
10739TIP3    H153708   4.926   5.886   4.442  0.9480  2.3047 -0.3097
10739TIP3    H253709   4.843   5.935   4.559 -0.1555 -1.1972  0.4299
10740TIP3   OH253710   6.655   3.307  11.465  0.1207  0.2136 -0.3427
10740TIP3    H153711   6.652   3.356  11.547 -0.8920 -0.5724  0.0943
10740TIP3    H253712   6.618   3.221  11.486  1.1614 -0.4873 -1.2878
10741TIP3   OH253713   1.925   5.499   1.494 -0.1485  0.3077  0.2667
10741TIP3    H153714   1.862   5.438   1.532 -0.5931 -0.4898 -1.6952
10741TIP3    H253715   1.995   5.443   1.461 -0.3428  0.8927 -1.1490
10742TIP3   OH253716   2.359   3.389   2.845 -0.4959  0.1663  0.5657
10742TIP3    H153717   2.387   3.414   2.933  2.2444  0.2540 -0.2934
10742TIP3    H253718   2.343   3.295   2.851  0.1500  0.0831  1.0316
10743TIP3   OH253719   2.135   3.653  16.274 -0.5388 -0.0731  0.1527
10743TIP3    H153720   2.230   3.658  16.275 -0.4076 -1.5959 -1.3361
10743TIP3    H253721   2.107   3.723  16.215 -0.5262  2.0113  2.5327
10744TIP3   OH253722   2.048   4.604   3.394 -0.0536  0.1359  0.2041
10744TIP3    H153723   2.072   4.602   3.487  0.4869 -0.2878  0.0643
10744TIP3    H253724   2.130   4.626   3.350 -0.8209  2.5948 -0.0166
10745TIP3   OH253725   2.827   0.113   4.970 -0.2656  0.2899 -0.0648
10745TIP3    H153726   2.888   0.040   4.960  0.4455  0.7167  1.0775
10745TIP3    H253727   2.861   0.180   4.912  0.0938  0.3573  0.2209
10746TIP3   OH253728   2.247   1.977   1.254  0.3116 -0.4955  0.5365
10746TIP3    H153729   2.280   2.063   1.280 -0.4625 -0.0074 -0.0841
10746TIP3    H253730   2.304   1.915   1.300  1.0981  0.3421  0.7114
10747TIP3   OH253731   6.812   5.311   4.591  0.6001 -0.0724 -0.0364
10747TIP3    H153732   6.778   5.240   4.537 -0.4061 -1.0405  1.8150
10747TIP3    H253733   6.895   5.278   4.626  0.9316  0.3036 -0.4546
10748TIP3   OH253734   6.368   1.023   3.137 -0.3456 -0.6526 -0.5748
10748TIP3    H153735   6.420   1.001   3.215 -0.6490 -0.2662 -0.2575
10748TIP3    H253736   6.426   1.005   3.063  0.8832  1.5244 -0.1630
10749TIP3   OH253737   2.730   2.201   3.807 -0.3699 -0.0291 -0.1975
10749TIP3    H153738   2.762   2.115   3.781 -4.1454 -2.1482  1.6676
10749TIP3    H253739   2.692   2.238   3.727  0.3392 -0.4965 -0.7591
10750TIP3   OH253740   5.783   1.808  15.346  0.9838 -0.3984  0.2330
10750TIP3    H153741   5.690   1.829  15.340  1.2507  0.6504 -0.2532
10750TIP3    H253742   5.808   1.784  15.256  0.8577 -2.0916  0.6265
10751TIP3   OH253743   0.355   4.059   5.839 -0.5255 -0.4003  0.0201
10751TIP3    H153744   0.410   4.012   5.901 -2.0373 -1.3892  0.6555
10751TIP3    H253745   0.277   4.083   5.890 -0.5743  1.2173 -0.7750
10752TIP3   OH253746   4.818   2.324  13.741 -0.3132  0.2138 -0.0097
10752TIP3    H153747   4.902   2.369  13.741 -0.7193  0.9932 -2.2767
10752TIP3    H253748   4.827   2.257  13.810  1.7371  1.0266  0.5436
10753TIP3   OH253749   6.300   0.567  17.009 -0.0233  0.2926  0.1833
10753TIP3    H153750   6.340   0.483  16.987 -0.5445  0.2895 -0.8281
10753TIP3    H253751   6.319   0.622  16.933 -2.0949  0.2204 -0.4162
10754TIP3   OH253752   5.144   6.474   4.556  0.0992  0.7279  0.2981
10754TIP3    H153753   5.191   6.533   4.615  0.1576  0.7677  0.2112
10754TIP3    H253754   5.127   6.396   4.609  0.5312  0.5912  0.2354
10755TIP3   OH253755   1.902   0.764   0.981 -0.5143  0.3192  0.1343
10755TIP3    H153756   1.816   0.804   0.980 -0.6566  0.0275  0.5984
10755TIP3    H253757   1.888   0.676   0.945  0.1813  1.4366 -3.0462
10756TIP3   OH253758   3.693   0.537   3.749  0.7231 -0.2194  0.3293
10756TIP3    H153759   3.775   0.498   3.717 -0.1248 -0.6789 -1.3258
10756TIP3    H253760   3.718   0.583   3.829  1.7203 -4.2299  2.4085
10757TIP3   OH253761   2.707   0.052  13.135  0.2035  0.7481 -0.4859
10757TIP3    H153762   2.737   0.139  13.108  1.6617  0.0053 -1.3263
10757TIP3    H253763   2.695   0.004  13.053  0.0379 -0.0375 -0.0077
10758TIP3   OH253764   2.001   6.000  16.205 -0.8711  0.5167  0.2325
10758TIP3    H153765   1.943   6.076  16.213 -1.3839  0.7015 -4.3329
10758TIP3    H253766   1.977   5.960  16.122  2.3845 -2.1616  0.4852
10759TIP3   OH253767   1.144   3.110  12.329 -0.0519  0.4744  0.3755
10759TIP3    H153768   1.103   3.162  12.397 -1.5475 -0.7997  0.4830
10759TIP3    H253769   1.113   3.020  12.345 -0.3629  0.1396 -1.9066
10760TIP3   OH253770   6.168   1.561  11.526 -0.1734  0.1625  0.6432
10760TIP3    H153771   6.254   1.603  11.515  0.4400 -1.1858  0.0617
10760TIP3    H253772   6.134   1.596  11.608 -0.0626  2.4060 -0.2436
10761TIP3   OH253773   2.427   1.959   2.408  0.0737  0.2373 -0.4377
10761TIP3    H153774   2.443   1.864   2.415 -0.8310  0.0704 -0.5863
10761TIP3    H253775   2.499   1.991   2.353  0.3928 -0.3632 -0.3766
10762TIP3   OH253776   5.810   0.771  13.414 -0.0840  0.5786  0.2505
10762TIP3    H153777   5.894   0.765  13.461 -0.1149 -0.6798  0.1641
10762TIP3    H253778   5.791   0.864  13.411  0.7409  0.7936  1.3080
10763TIP3   OH253779   0.009   5.175   3.806  0.1458  0.4330  0.0336
10763TIP3    H153780   0.041   5.227   3.733 -3.5833  3.3808  0.3556
10763TIP3    H253781  -0.025   5.095   3.765 -1.4885  1.8511 -1.4247
10764TIP3   OH253782   4.972   6.158   7.090 -0.0177  0.5423 -0.5329
10764TIP3    H153783   4.883   6.159   7.057  0.0445 -1.4058 -0.8538
10764TIP3    H253784   5.007   6.244   7.068 -1.4358  0.9001 -1.4667
10765TIP3   OH253785   1.116   3.073  14.536 -0.1572 -0.0663 -0.0698
10765TIP3    H153786   1.088   2.990  14.575  0.2276  0.5382  1.5220
10765TIP3    H253787   1.043   3.134  14.554  0.0758  0.2484 -0.1865
10766TIP3   OH253788   0.161   5.649  11.285  0.3382  0.6426  0.1236
10766TIP3    H153789   0.194   5.714  11.223  1.6105 -1.0046 -0.9956
10766TIP3    H253790   0.114   5.586  11.230  1.4271 -0.8007  0.8054
10767TIP3   OH253791   1.709   2.567  11.283 -0.7830 -0.2265  0.4223
10767TIP3    H153792   1.803   2.563  11.266 -0.6426  0.1327  1.0781
10767TIP3    H253793   1.669   2.573  11.196 -0.1264  0.9893  0.1872
10768TIP3   OH253794   5.934   5.828  16.817  0.3386 -0.2908 -0.6840
10768TIP3    H153795   6.021   5.862  16.795 -0.7120  2.6718 -0.5048
10768TIP3    H253796   5.898   5.798  16.734  2.1853 -3.2557 -0.4836
10769TIP3   OH253797   6.465   2.473  13.654  0.0963 -0.0858  0.1478
10769TIP3    H153798   6.520   2.513  13.722  0.4743 -1.2030  0.5054
10769TIP3    H253799   6.496   2.383  13.648 -1.3177 -0.5654 -0.0651
10770TIP3   OH253800   0.685   1.366   3.136  0.1218 -0.1150 -0.1129
10770TIP3    H153801   0.601   1.319   3.140 -0.1170  0.3679  0.4976
10770TIP3    H253802   0.680   1.415   3.054 -0.2373 -0.0068 -0.0295
10771TIP3   OH253803   4.900   6.737  17.041 -0.2061  0.2479  0.2481
10771TIP3    H153804   4.824   6.790  17.064  0.1481  0.5479  0.7376
10771TIP3    H253805   4.863   6.654  17.012 -0.7198  0.3699  0.5418
10772TIP3   OH253806   1.484   0.898  12.826 -0.3996  0.4440 -0.7400
10772TIP3    H153807   1.390   0.892  12.811 -0.4121  0.0799 -0.5053
10772TIP3    H253808   1.522   0.896  12.738 -0.3779 -3.4130 -0.7309
10773TIP3   OH253809   1.371   6.648   0.623 -0.8648 -0.0879  0.3631
10773TIP3    H153810   1.320   6.593   0.682 -1.3067 -1.6627 -1.4304
10773TIP3    H253811   1.462   6.634   0.651 -0.7152 -3.7206 -1.5401
10774TIP3   OH253812   4.091   4.328   1.825  0.2728  0.3937  0.2064
10774TIP3    H153813   4.130   4.377   1.753  0.5419 -2.8252 -1.9368
10774TIP3    H253814   4.159   4.267   1.854 -0.5706  0.1319  1.7422
10775TIP3   OH253815   4.603   0.648  11.465  0.3736 -0.6783  0.1209
10775TIP3    H153816   4.514   0.679  11.482  0.0630 -1.4059 -0.1530
10775TIP3    H253817   4.605   0.558  11.499  0.9895 -0.6790  0.0953
10776TIP3   OH253818   3.138   2.058   3.354  0.1880 -0.0921 -0.7657
10776TIP3    H153819   3.164   2.015   3.273  0.8305 -0.6325 -0.2761
10776TIP3    H253820   3.186   2.012   3.423 -0.8690 -0.0806 -0.0047
10777TIP3   OH253821   2.653   5.913  11.951 -0.1350 -0.5357  1.1180
10777TIP3    H153822   2.625   5.895  11.861  0.8293 -1.3327  0.9684
10777TIP3    H253823   2.574   5.901  12.003 -0.3578 -1.5689  0.5611
10778TIP3   OH253824   2.865   4.682  16.118 -0.7607  0.2365  0.2383
10778TIP3    H153825   2.957   4.687  16.092 -0.5877  0.3204  0.8529
10778TIP3    H253826   2.818   4.728  16.049 -0.6644 -2.3782 -1.6583
10779TIP3   OH253827   6.435   6.130   3.860 -0.0347  0.1846 -0.6430
10779TIP3    H153828   6.371   6.190   3.820 -0.2840  0.8416  0.7182
10779TIP3    H253829   6.518   6.153   3.819 -0.5563 -0.2115 -1.9326
10780TIP3   OH253830   3.935   0.588  13.681 -0.4884  0.0972 -0.4774
10780TIP3    H153831   3.962   0.496  13.684  1.0162  0.5183 -0.6434
10780TIP3    H253832   3.929   0.607  13.587  0.5667  0.5493 -0.4561
10781TIP3   OH253833   1.080   0.618  14.498 -0.6082 -0.0530 -0.3903
10781TIP3    H153834   1.102   0.647  14.409 -0.3147  3.1670  0.6510
10781TIP3    H253835   1.118   0.531  14.504 -0.2299 -0.1659 -3.2808
10782TIP3   OH253836   5.069   1.268  11.293 -0.1688  0.0715 -0.1868
10782TIP3    H153837   5.143   1.214  11.322 -0.2414 -0.5529 -1.1524
10782TIP3    H253838   4.992   1.214  11.311 -0.2849  0.1088 -0.5789
10783TIP3   OH253839   1.078   2.163  15.572  0.0131  0.4120  0.1127
10783TIP3    H153840   1.110   2.129  15.488  0.0085 -1.4195  0.8337
10783TIP3    H253841   1.107   2.098  15.637  0.3114  1.9808  1.5788
10784TIP3   OH253842   6.037   4.594  16.556 -0.0513  0.0628  0.3489
10784TIP3    H153843   6.126   4.581  16.524 -0.6006 -2.3230 -0.3021
10784TIP3    H253844   6.035   4.685  16.585  1.9769  0.7525 -1.5423
10785TIP3   OH253845   4.624   3.323   0.405 -0.2660  0.0928 -0.2913
10785TIP3    H153846   4.534   3.336   0.374 -1.0034 -0.4389  1.5179
10785TIP3    H253847   4.613   3.284   0.492  1.7420 -0.8915 -0.4568
10786TIP3   OH253848   3.254   3.586  15.032  0.2973 -0.0712 -0.2853
10786TIP3    H153849   3.335   3.561  14.989  1.9873  1.3763  1.9241
10786TIP3    H253850   3.244   3.522  15.103 -0.7809 -0.5429 -0.8473
10787TIP3   OH253851   4.094   1.805   5.166 -0.3465  0.0669  0.1767
10787TIP3    H153852   4.004   1.773   5.165 -0.2176 -0.3726  1.2160
10787TIP3    H253853   4.147   1.728   5.148 -0.2034  0.4944 -1.3190
10788TIP3   OH253854   1.496   1.632  11.552  1.0329 -0.0615  0.2599
10788TIP3    H153855   1.439   1.656  11.479  0.3272  0.1522  0.8784
10788TIP3    H253856   1.555   1.707  11.561  1.2825 -0.1918 -0.2465
10789TIP3   OH253857   5.957   6.052   6.023  0.2681  0.0629 -0.1269
10789TIP3    H153858   5.935   5.984   5.959 -0.1818  0.7749 -0.7398
10789TIP3    H253859   5.940   6.134   5.977 -1.9876  0.5844  1.5592
10790TIP3   OH253860   5.195   1.005   0.951  0.0479  0.4270  0.3000
10790TIP3    H153861   5.128   0.992   1.018 -0.3926  0.4293 -0.1312
10790TIP3    H253862   5.145   1.011   0.869  0.6876 -1.0475 -0.1998
10791TIP3   OH253863   1.241   5.978  11.643 -0.3031  0.5616  0.1525
10791TIP3    H153864   1.318   6.023  11.677 -0.2619 -0.2636  1.2143
10791TIP3    H253865   1.195   5.949  11.722 -0.9519 -0.1728 -0.4965
10792TIP3   OH253866   6.808   6.395   3.022  0.0007  0.3491 -0.1256
10792TIP3    H153867   6.729   6.448   3.033 -0.3031 -0.1960  0.3818
10792TIP3    H253868   6.872   6.454   2.984 -0.8262  0.6535 -1.0479
10793TIP3   OH253869   1.570   1.579   0.320 -0.3491 -0.2560 -0.0102
10793TIP3    H153870   1.662   1.592   0.343 -0.2874 -1.8222  0.7138
10793TIP3    H253871   1.572   1.510   0.254 -1.0571 -0.8837  0.6187
10794TIP3   OH253872   5.014   5.726  12.209 -0.0551 -0.0922  0.1462
10794TIP3    H153873   5.001   5.745  12.116  0.5464 -0.1155  0.0565
10794TIP3    H253874   5.108   5.710  12.218  0.1202  1.3145  1.0182
10795TIP3   OH253875   1.281   4.970  14.118  0.8477 -0.5332  0.1515
10795TIP3    H153876   1.266   4.994  14.209 -0.4945  1.6104 -0.6114
10795TIP3    H253877   1.368   5.005  14.098  0.8301 -0.3630  0.3752
10796TIP3   OH253878   6.551   6.069  13.920  0.3927  0.1791 -0.6261
10796TIP3    H153879   6.484   6.130  13.953 -0.4121 -0.4900 -1.0110
10796TIP3    H253880   6.598   6.041  13.999  0.5547  1.0361 -0.4090
10797TIP3   OH253881   5.146   0.098   4.893 -0.2768 -0.1488  0.4571
10797TIP3    H153882   5.163   0.188   4.919 -1.3961 -0.5235  2.5951
10797TIP3    H253883   5.205   0.046   4.948 -0.7355 -0.7966  0.3363
10798TIP3   OH253884   4.793   3.059  11.778 -0.5086 -0.0308  0.0947
10798TIP3    H153885   4.779   3.136  11.833  0.7418 -0.2197  0.7053
10798TIP3    H253886   4.812   2.988  11.840 -0.1406 -0.4898 -0.5292
10799TIP3   OH253887   1.219   4.851  13.075  0.2954 -0.0154 -1.1186
10799TIP3    H153888   1.230   4.910  13.150  1.8783 -0.0263 -1.3410
10799TIP3    H253889   1.127   4.824  13.080  0.7454 -1.2376  1.7456
10800TIP3   OH253890   3.397   6.350   0.632  0.2655  0.1866 -0.7744
10800TIP3    H153891   3.400   6.421   0.696  2.1087 -0.0831 -0.5385
10800TIP3    H253892   3.463   6.375   0.567 -1.5796  0.4651 -2.5901
10801TIP3   OH253893   1.976   1.162  11.178  0.5640 -0.0583 -0.4312
10801TIP3    H153894   1.897   1.194  11.222  0.4165 -0.4988 -0.3701
10801TIP3    H253895   1.968   1.192  11.088  1.5422  2.0751  0.1490
10802TIP3   OH253896   1.352   0.774   1.558 -0.2728  0.6014 -0.2912
10802TIP3    H153897   1.442   0.792   1.532 -0.3473  1.1117 -0.2019
10802TIP3    H253898   1.300   0.795   1.481 -0.4073  1.2301 -0.0272
10803TIP3   OH253899   1.797   1.020   5.014 -0.9914 -0.0394  0.0020
10803TIP3    H153900   1.751   0.979   4.941 -0.7466 -1.4474  0.6100
10803TIP3    H253901   1.801   0.951   5.081  0.6401  0.5593  0.5389
10804TIP3   OH253902   3.245   0.336   1.102  0.1943  0.3910  0.1106
10804TIP3    H153903   3.228   0.417   1.150  0.8727  1.7937 -1.9652
10804TIP3    H253904   3.199   0.347   1.019 -1.0666 -2.0460  0.4285
10805TIP3   OH253905   0.683   6.564  11.677 -0.0840 -0.8136 -0.0966
10805TIP3    H153906   0.656   6.651  11.709 -0.5878 -0.6030 -1.0658
10805TIP3    H253907   0.730   6.525  11.750  1.2522  0.7811 -0.0674
10806TIP3   OH253908   0.397   5.624  17.106  0.2418 -0.3817 -0.1488
10806TIP3    H153909   0.404   5.698  17.046 -2.2792  0.8551  1.0220
10806TIP3    H253910   0.350   5.557  17.056 -2.5167  0.9152  0.6301
10807TIP3   OH253911   3.822   4.773   2.368  0.1721  0.0942  0.2616
10807TIP3    H153912   3.828   4.703   2.304 -1.3029  1.4786 -1.4800
10807TIP3    H253913   3.877   4.843   2.333 -1.1820  1.1204  0.1411
10808TIP3   OH253914   0.548   0.620   0.975 -0.3649  0.7591 -0.1213
10808TIP3    H153915   0.633   0.592   1.008 -0.3386  0.0844 -0.7477
10808TIP3    H253916   0.530   0.702   1.021  0.6365  0.9197 -0.0146
10809TIP3   OH253917   3.631   5.658   3.085  0.1419 -0.2552  0.7798
10809TIP3    H153918   3.615   5.693   2.997  1.1126  0.4133  0.8576
10809TIP3    H253919   3.667   5.570   3.070  0.6037 -0.0222  0.4884
10810TIP3   OH253920   1.471   6.316  10.983 -0.1866  0.2929 -0.5186
10810TIP3    H153921   1.534   6.373  11.027 -1.1703 -0.4171  1.8986
10810TIP3    H253922   1.406   6.375  10.945 -0.6384  0.8299  1.0769
10811TIP3   OH253923   6.254   2.221  12.490  0.2772 -0.6198 -0.4161
10811TIP3    H153924   6.268   2.133  12.525  2.5688 -0.5444 -1.0969
10811TIP3    H253925   6.341   2.253  12.469 -0.4782  2.0717  0.3806
10812TIP3   OH253926   5.485   0.555   5.216  0.4823 -0.0425 -0.1271
10812TIP3    H153927   5.532   0.491   5.269 -0.1284 -0.3915 -0.0024
10812TIP3    H253928   5.463   0.625   5.277  1.2839  0.3626 -0.2965
10813TIP3   OH253929   4.604   4.757  11.076  0.6318  0.5966  0.3447
10813TIP3    H153930   4.688   4.747  11.031  0.3357  2.0131 -0.5583
10813TIP3    H253931   4.545   4.791  11.009 -0.2746  1.0626  1.3674
10814TIP3   OH253932   1.512   2.485   3.941  0.1116 -0.0324  0.1750
10814TIP3    H153933   1.555   2.520   4.020  1.3898  2.6565 -1.6292
10814TIP3    H253934   1.505   2.391   3.957  3.2064  0.0022  2.1764
10815TIP3   OH253935   1.190   1.499   2.880 -0.2067 -0.4478  0.5110
10815TIP3    H153936   1.220   1.470   2.794 -0.6993 -2.2789  0.9438
10815TIP3    H253937   1.094   1.498   2.873 -0.2429  0.3310  0.7913
10816TIP3   OH253938   1.143   3.992   1.223 -0.0534 -0.6229  0.6331
10816TIP3    H153939   1.154   3.968   1.315 -0.5240  0.0531  0.8715
10816TIP3    H253940   1.087   4.070   1.226  1.4334  0.4832 -0.1269
10817TIP3   OH253941   6.061   1.495  16.621 -0.1495  0.5137 -0.2854
10817TIP3    H153942   6.007   1.422  16.591  1.5915 -0.4470 -1.1195
10817TIP3    H253943   6.005   1.542  16.684 -2.6729  0.7189 -2.6002
10818TIP3   OH253944   3.718   4.156   6.816 -0.3452  0.2256 -0.0582
10818TIP3    H153945   3.798   4.107   6.798 -0.4325  0.3782 -0.8555
10818TIP3    H253946   3.664   4.095   6.867 -1.0500 -1.0664 -2.2500
10819TIP3   OH253947   5.372   5.217   1.105  0.1877 -0.0905  0.4093
10819TIP3    H153948   5.328   5.134   1.126 -0.5861  0.5085  1.1555
10819TIP3    H253949   5.465   5.193   1.100 -0.0325 -1.0187  0.5652
10820TIP3   OH253950   1.541   4.228  16.298 -0.9195 -0.4719 -0.1866
10820TIP3    H153951   1.494   4.156  16.339 -1.9215 -0.5674 -1.4693
10820TIP3    H253952   1.481   4.261  16.230  0.4061  0.1384 -1.0909
10821TIP3   OH253953   5.523   1.789  14.914  0.8627 -0.0733  0.3081
10821TIP3    H153954   5.546   1.736  14.837  0.6905  1.6792 -0.9704
10821TIP3    H253955   5.429   1.802  14.907  0.9010  0.3752  0.6385
10822TIP3   OH253956   5.140   6.379   2.166  0.1086 -0.5867  0.6703
10822TIP3    H153957   5.183   6.336   2.240  0.5931  0.8547  1.2505
10822TIP3    H253958   5.211   6.424   2.120 -0.5074  0.3122  0.5811
10823TIP3   OH253959   1.152   6.336  16.642 -0.2319 -0.3590  0.4054
10823TIP3    H153960   1.066   6.292  16.640 -0.9218  0.9750 -2.3596
10823TIP3    H253961   1.136   6.420  16.599  2.3025  0.2569  0.6240
10824TIP3   OH253962   0.428   4.213   4.998 -0.2598 -0.3842 -0.5329
10824TIP3    H153963   0.496   4.279   5.011 -0.7701  0.0195  0.1308
10824TIP3    H253964   0.473   4.138   4.959  0.1175  0.7806 -2.3727
10825TIP3   OH253965   3.312   5.800   1.074 -0.9704  0.1590  0.2450
10825TIP3    H153966   3.243   5.743   1.109 -0.1079  0.1440  1.9801
10825TIP3    H253967   3.368   5.741   1.023 -1.9946  0.0975 -0.8359
10826TIP3   OH253968   5.115   2.023   0.305  0.6065  0.2100 -0.2247
10826TIP3    H153969   5.147   2.056   0.389  0.5840 -0.8440  0.2041
10826TIP3    H253970   5.131   2.095   0.244  4.5497 -0.5415 -0.2028
10827TIP3   OH253971   4.415   0.104   5.655  0.1917  0.3615  0.5090
10827TIP3    H153972   4.424   0.056   5.573 -1.3022  0.6063  0.1912
10827TIP3    H253973   4.372   0.042   5.714 -0.7417  0.9157  0.4286
10828TIP3   OH253974   1.184   4.358  11.960  0.8230 -0.2861  0.1777
10828TIP3    H153975   1.221   4.426  12.017  1.2822 -0.5369  0.1854
10828TIP3    H253976   1.259   4.327  11.909  0.6829 -1.0018  0.3996
10829TIP3   OH253977   6.709   6.728   1.345 -0.7347  0.4642  0.4113
10829TIP3    H153978   6.696   6.682   1.262 -0.3517  2.6351 -0.9026
10829TIP3    H253979   6.633   6.705   1.398 -1.2831 -0.4759 -0.7666
10830TIP3   OH253980   6.196   5.596  14.141 -0.3287 -0.3942 -0.1066
10830TIP3    H153981   6.291   5.607  14.144 -0.2367 -0.7398 -1.3190
10830TIP3    H253982   6.183   5.502  14.129 -0.7675 -0.1691 -1.5226
10831TIP3   OH253983   4.129   6.498  15.712  0.7146 -0.2217 -0.3365
10831TIP3    H153984   4.065   6.461  15.773 -3.2478  1.5128 -3.2418
10831TIP3    H253985   4.124   6.593  15.727  2.4097 -0.0427 -0.8147
10832TIP3   OH253986   2.300   0.475   4.455 -0.0033 -0.4445 -0.7638
10832TIP3    H153987   2.304   0.566   4.427 -0.7576 -0.3375 -0.5103
10832TIP3    H253988   2.208   0.451   4.447 -0.0520 -0.7422  0.5694
10833TIP3   OH253989   2.312   6.198   2.178  0.1389 -0.3049 -0.3482
10833TIP3    H153990   2.316   6.165   2.088  1.4154  1.6400 -1.0185
10833TIP3    H253991   2.404   6.204   2.206 -0.0574  2.5413 -0.2087
10834TIP3   OH253992   1.800   1.992   2.341  0.0690 -0.0217  0.0524
10834TIP3    H153993   1.740   1.934   2.293  0.6506 -1.3435  0.8838
10834TIP3    H253994   1.860   1.932   2.385  0.9129  1.2465  0.6426
10835TIP3   OH253995   3.451   1.922   4.569 -0.0791  0.0199 -0.0182
10835TIP3    H153996   3.465   1.831   4.593  0.9778  0.1340 -0.1653
10835TIP3    H253997   3.510   1.938   4.496  0.3436  1.0301  0.5163
10836TIP3   OH253998   0.344   1.041  14.744 -0.4861  0.1179 -0.0129
10836TIP3    H153999   0.282   1.107  14.714 -0.0225  0.2432 -0.7074
10836TIP3    H254000   0.304   1.004  14.822 -2.3495 -1.1842 -1.5632
10837TIP3   OH254001   3.803   4.503  12.280  0.4220  0.4082 -0.2596
10837TIP3    H154002   3.780   4.412  12.267 -0.0505  0.7010 -1.4823
10837TIP3    H254003   3.895   4.509  12.254  0.6807  0.1297  0.5636
10838TIP3   OH254004   2.398   6.393   2.915 -0.2772  0.4177  0.0454
10838TIP3    H154005   2.359   6.356   2.994  0.3769  0.3894  0.3632
10838TIP3    H254006   2.350   6.353   2.843  0.7166 -1.4137  0.3696
10839TIP3   OH254007   2.923   3.891  13.030 -0.2024 -0.1869 -0.0233
10839TIP3    H154008   2.957   3.924  12.947 -1.3698  1.9647  0.2948
10839TIP3    H254009   2.910   3.970  13.083  0.0856 -1.4823  2.0470
10840TIP3   OH254010   0.871   6.682  12.742  0.2200 -0.5224  0.1754
10840TIP3    H154011   0.918   6.614  12.693 -0.9971  0.9598 -3.1790
10840TIP3    H254012   0.918   6.763  12.722 -0.4194  0.1529  1.3642
10841TIP3   OH254013   5.297   3.938  12.433 -0.5425 -0.4200  0.2758
10841TIP3    H154014   5.279   3.912  12.343  0.0565 -0.4241  0.1546
10841TIP3    H254015   5.211   3.957  12.470 -0.9266 -1.9843  0.1928
10842TIP3   OH254016   0.987   2.845  12.886 -0.5586  0.2900  0.3661
10842TIP3    H154017   1.042   2.767  12.893 -1.3238 -0.0531  3.3647
10842TIP3    H254018   0.898   2.811  12.883 -0.8420  1.0048  0.6102
10843TIP3   OH254019   2.407   4.671  12.607  0.4554  0.6340  0.5558
10843TIP3    H154020   2.348   4.605  12.569  1.6368  0.3163 -0.7663
10843TIP3    H254021   2.407   4.651  12.700  0.8775 -1.3374  0.1741
10844TIP3   OH254022   0.541   0.593   0.126 -0.1516 -0.0774  0.2587
10844TIP3    H154023   0.624   0.596   0.173 -0.3365  0.3898  0.5534
10844TIP3    H254024   0.517   0.500   0.126 -0.3426 -0.0394  1.4259
10845TIP3   OH254025   2.859   5.975  14.598  0.3640 -0.2460 -0.1222
10845TIP3    H154026   2.893   5.913  14.662  0.8334  1.5547  1.4234
10845TIP3    H254027   2.767   5.985  14.621  0.4053 -0.0027 -0.0600
10846TIP3   OH254028   4.822   4.621   2.762  0.2188 -0.1876 -0.1342
10846TIP3    H154029   4.916   4.616   2.782  0.2287 -0.6105 -0.2929
10846TIP3    H254030   4.808   4.554   2.696  0.2600  1.4461 -1.8407
10847TIP3   OH254031   4.620   2.042   5.974 -0.1732  0.2983 -0.1706
10847TIP3    H154032   4.606   1.954   6.010  1.1678 -0.8455 -2.3197
10847TIP3    H254033   4.683   2.083   6.034  0.3085 -0.7340  0.0337
10848TIP3   OH254034   0.090   4.907   4.010 -0.1673  0.3123  0.0857
10848TIP3    H154035   0.134   4.891   3.926 -0.8324  1.3713 -0.4721
10848TIP3    H254036  -0.003   4.895   3.990 -0.2478 -0.5257  0.9397
10849TIP3   OH254037   3.806   3.990  12.067  0.1175  0.2241 -0.4185
10849TIP3    H154038   3.875   4.036  12.116  0.4905 -0.5455 -0.2078
10849TIP3    H254039   3.805   3.902  12.105  1.4746 -0.8765 -2.8204
10850TIP3   OH254040   1.958   2.787   3.920  0.3906 -0.1424  0.2408
10850TIP3    H154041   1.896   2.719   3.894  1.8845 -0.5102 -2.6101
10850TIP3    H254042   2.042   2.742   3.925  0.7769  0.7570  2.0766
10851TIP3   OH254043   3.771   3.241   0.428  0.4632  0.2758 -0.1023
10851TIP3    H154044   3.690   3.290   0.437  0.7749  0.4665  1.7023
10851TIP3    H254045   3.786   3.237   0.333 -1.3209  0.7518 -0.4100
10852TIP3   OH254046   2.386   5.801  14.302  0.4756  0.0923 -0.3055
10852TIP3    H154047   2.416   5.862  14.370 -0.2112 -0.2455  0.3016
10852TIP3    H254048   2.291   5.798  14.312  0.5268 -1.2727 -0.1704
10853TIP3   OH254049   1.715   0.682   1.224  0.5940  0.4843 -0.1340
10853TIP3    H154050   1.774   0.659   1.153 -0.7770  1.5363 -1.6708
10853TIP3    H254051   1.756   0.646   1.303  2.9501  0.6721 -1.2282
10854TIP3   OH254052   6.076   3.575   4.117 -0.1227 -0.2092  0.1124
10854TIP3    H154053   6.026   3.640   4.166 -0.9195 -0.3838 -0.4527
10854TIP3    H254054   6.163   3.614   4.106 -0.3111  0.3549  0.5864
10855TIP3   OH254055   5.067   4.623   4.841  0.3644  0.3679 -0.1326
10855TIP3    H154056   5.098   4.591   4.756 -1.2681 -1.4601 -0.0673
10855TIP3    H254057   5.067   4.546   4.897 -0.2672  1.2063  1.0421
10856TIP3   OH254058   2.693   3.537  14.218  0.3485  0.2118  0.2921
10856TIP3    H154059   2.669   3.540  14.125  1.4727  0.0386 -0.0158
10856TIP3    H254060   2.650   3.614  14.256  0.8096  0.9343 -0.6064
10857TIP3   OH254061   6.090   1.964   1.487 -0.3173  0.0546 -0.2317
10857TIP3    H154062   6.097   1.957   1.582 -0.4922  1.0902 -0.1390
10857TIP3    H254063   6.053   1.879   1.460  2.5733 -1.4186  0.2969
10858TIP3   OH254064   2.626   5.987   4.248  0.1240  0.3033 -0.3057
10858TIP3    H154065   2.667   5.938   4.319 -0.4784 -1.0682 -0.8902
10858TIP3    H254066   2.639   6.079   4.272  2.0294 -0.1115  0.3829
10859TIP3   OH254067   1.852   5.657  14.660  0.3567 -0.3511 -0.7807
10859TIP3    H154068   1.857   5.742  14.704  0.6573 -0.0596 -1.3743
10859TIP3    H254069   1.886   5.673  14.572 -1.6747 -0.5577 -1.6541
10860TIP3   OH254070   0.355   0.282   5.141  0.1316  0.1313 -0.5321
10860TIP3    H154071   0.379   0.219   5.074  1.0098 -1.1845  0.9767
10860TIP3    H254072   0.434   0.335   5.154  0.8189 -1.2478  1.2013
10861TIP3   OH254073   4.140   1.777   1.954 -0.3038  0.1318  0.4945
10861TIP3    H154074   4.153   1.836   1.879  0.9741  0.5337  1.0031
10861TIP3    H254075   4.132   1.690   1.915  1.9212  0.1228 -0.0621
10862TIP3   OH254076   1.757   6.731   2.115  0.6120  0.1180  0.2466
10862TIP3    H154077   1.746   6.674   2.039 -2.6182 -0.1152  0.8414
10862TIP3    H254078   1.756   6.820   2.078 -0.0418 -0.0234 -0.0776
10863TIP3   OH254079   4.005   1.955   5.398 -0.1959 -0.1942 -0.1109
10863TIP3    H154080   4.082   1.915   5.356 -0.9172 -0.4803 -1.1903
10863TIP3    H254081   4.035   2.041   5.427  0.0240  0.4928 -2.2850
10864TIP3   OH254082   2.628   2.701  13.664  0.5036 -0.1524 -0.5461
10864TIP3    H154083   2.620   2.708  13.759 -0.2044 -1.5494 -0.4859
10864TIP3    H254084   2.553   2.750  13.629  1.6293  1.6832 -0.4408
10865TIP3   OH254085   5.428   0.346   4.135 -0.6329  0.3059 -0.4378
10865TIP3    H154086   5.336   0.341   4.163 -0.8889 -2.4488 -1.6011
10865TIP3    H254087   5.475   0.290   4.197 -0.2047 -0.6429 -1.6144
10866TIP3   OH254088   4.202   5.567  11.786  0.0176 -0.8564 -0.3043
10866TIP3    H154089   4.140   5.619  11.837  0.0194 -0.7366 -0.4251
10866TIP3    H254090   4.156   5.484  11.771 -1.0720  0.0845 -2.4063
10867TIP3   OH254091   4.130   2.756   5.999  0.0865  0.0735 -0.5535
10867TIP3    H154092   4.188   2.802   6.060  0.7113  2.0525 -2.5541
10867TIP3    H254093   4.187   2.700   5.948 -0.3498 -1.1119  0.2457
10868TIP3   OH254094   5.296   4.424  14.101  0.0504 -0.4906  0.0544
10868TIP3    H154095   5.382   4.447  14.065  0.2047 -0.9257  0.1518
10868TIP3    H254096   5.298   4.329  14.111  0.9235 -0.1655  3.5406
10869TIP3   OH254097   6.007   5.730   3.629  0.0945  0.2514 -0.1786
10869TIP3    H154098   6.027   5.717   3.536  0.6684  1.9732 -0.3111
10869TIP3    H254099   5.922   5.688   3.641  0.4905 -0.8929 -1.2444
10870TIP3   OH254100   0.851   2.467  14.734 -0.2698 -0.1324 -0.5627
10870TIP3    H154101   0.888   2.551  14.704  0.5183 -0.7209 -1.2556
10870TIP3    H254102   0.757   2.483  14.739 -0.0632  1.0084 -0.0151
10871TIP3   OH254103   4.452   4.706  14.833  0.1661  0.2837 -1.0253
10871TIP3    H154104   4.370   4.691  14.786 -0.4777 -0.8576  0.4266
10871TIP3    H254105   4.453   4.800  14.851 -0.0504  0.5683 -2.4443
10872TIP3   OH254106   4.129   4.684  12.108  0.2971 -0.0616 -0.7338
10872TIP3    H154107   4.221   4.676  12.134 -0.6989 -0.9772  2.7383
10872TIP3    H254108   4.122   4.773  12.074  2.1117  0.5510  0.4242
10873TIP3   OH254109   2.564   0.990  16.635 -0.5185  0.2203  0.4733
10873TIP3    H154110   2.575   1.019  16.725  2.2957 -2.1196  0.9573
10873TIP3    H254111   2.475   0.953  16.632 -0.2768 -0.5786  2.5362
10874TIP3   OH254112   2.307   6.484   5.676  0.0858  0.5156  0.4799
10874TIP3    H154113   2.344   6.522   5.596 -1.2426  0.3736 -0.2240
10874TIP3    H254114   2.354   6.527   5.747 -1.1938  3.2964 -0.2970
10875TIP3   OH254115   0.821   3.931   2.672 -0.3339 -0.0344  0.1847
10875TIP3    H154116   0.787   3.899   2.588  2.5883 -0.2078 -0.9930
10875TIP3    H254117   0.771   4.011   2.688 -2.3311 -1.0393 -0.6848
10876TIP3   OH254118   3.234   2.083   0.686 -0.3129  0.4428  0.3437
10876TIP3    H154119   3.266   1.999   0.718 -1.7451 -0.3245 -0.1639
10876TIP3    H254120   3.312   2.136   0.672  0.5682 -0.6492  1.1237
10877TIP3   OH254121   0.484   6.383   3.809 -0.4666 -0.2760 -0.5935
10877TIP3    H154122   0.516   6.385   3.899 -0.5364 -0.4360 -0.5655
10877TIP3    H254123   0.457   6.292   3.795 -1.8705  0.0872 -0.2851
10878TIP3   OH254124   6.480   6.599   5.749  0.4888  0.2681  0.0142
10878TIP3    H154125   6.555   6.642   5.790  0.8917  0.5955 -1.0579
10878TIP3    H254126   6.411   6.665   5.751  0.5397  0.3200  0.0745
10879TIP3   OH254127   5.161   0.288   1.336 -0.2558  0.5864 -0.5896
10879TIP3    H154128   5.219   0.364   1.324 -0.1339  0.4534 -0.8402
10879TIP3    H254129   5.194   0.222   1.275 -0.8665  0.6204 -0.9669
10880TIP3   OH254130   3.405   0.541   3.776  0.9992 -0.0389  0.2587
10880TIP3    H154131   3.382   0.520   3.686  1.5933 -1.1541  0.3592
10880TIP3    H254132   3.498   0.566   3.772  1.0303 -0.1086  0.5672
10881TIP3   OH254133   4.197   3.085  13.002  0.4428  0.3377  0.1325
10881TIP3    H154134   4.163   3.000  12.973  0.0557  0.3021  0.6786
10881TIP3    H254135   4.265   3.107  12.939  0.9058 -0.6257  0.2932
10882TIP3   OH254136   3.899   3.134   4.950  0.0811  0.1051 -0.0447
10882TIP3    H154137   3.931   3.150   4.861 -1.8581  0.6590 -0.6808
10882TIP3    H254138   3.894   3.039   4.957 -0.5944  0.0646 -0.8718
10883TIP3   OH254139   5.979   4.727   4.378 -0.7734 -0.0102  0.1476
10883TIP3    H154140   6.058   4.675   4.365 -1.2543 -0.7904  0.3262
10883TIP3    H254141   5.955   4.712   4.469 -2.2532 -1.3808 -0.4420
10884TIP3   OH254142   5.521   1.114  13.687  0.0676  0.0316 -0.2260
10884TIP3    H154143   5.467   1.101  13.609  0.1981 -0.3483 -0.2529
10884TIP3    H254144   5.611   1.109  13.655  0.1234  0.2808 -0.1145
10885TIP3   OH254145   6.061   3.765  14.056  0.4719 -0.0174 -0.2752
10885TIP3    H154146   6.000   3.702  14.017  0.9868 -0.8887  0.2897
10885TIP3    H254147   6.147   3.722  14.050  0.8657  0.7317 -0.0967
10886TIP3   OH254148   6.395   5.369   4.153  0.5323 -0.7375  0.1482
10886TIP3    H154149   6.467   5.397   4.097  0.6389  0.8120  1.0249
10886TIP3    H254150   6.435   5.311   4.217  1.0970  0.5023  0.9272
10887TIP3   OH254151   2.707   4.516   2.375 -0.0070  0.1230  0.1328
10887TIP3    H154152   2.629   4.461   2.383 -0.4890  0.5425 -1.6480
10887TIP3    H254153   2.752   4.505   2.459 -0.5203 -2.3258  0.1258
10888TIP3   OH254154   0.421   3.869  15.507  0.2234  0.0099  0.3332
10888TIP3    H154155   0.353   3.826  15.456  1.1985 -1.4693  0.2576
10888TIP3    H254156   0.395   3.961  15.508 -0.6463 -0.1855 -1.5083
10889TIP3   OH254157   0.499   5.982   4.604 -0.4722  0.2845  0.6320
10889TIP3    H154158   0.406   5.972   4.622 -0.6037  0.0338 -0.1460
10889TIP3    H254159   0.510   5.950   4.514  0.4270 -0.0511  0.8503
10890TIP3   OH254160   4.842   6.269   2.627  0.1697 -0.1548  0.4545
10890TIP3    H154161   4.846   6.231   2.715  0.2554 -0.1770  0.4406
10890TIP3    H254162   4.766   6.226   2.587  0.9133 -1.1179  0.0676
10891TIP3   OH254163   3.325   5.033  16.390 -0.7536 -0.1569 -0.4790
10891TIP3    H154164   3.299   5.031  16.298 -0.1442  1.4881 -0.7048
10891TIP3    H254165   3.244   5.054  16.437 -0.5481  1.6488 -0.8923
10892TIP3   OH254166   3.902   4.647   4.272  0.4496  0.3981  0.9879
10892TIP3    H154167   3.985   4.693   4.259  0.5683  0.4648  1.9144
10892TIP3    H254168   3.922   4.579   4.336 -0.2791  0.6353  1.4799
10893TIP3   OH254169   0.032   1.049   1.200  0.0303 -0.7087  0.0462
10893TIP3    H154170   0.073   0.965   1.220 -0.1265 -0.5065  1.2208
10893TIP3    H254171   0.099   1.096   1.150  0.0432 -1.5952 -0.8099
10894TIP3   OH254172   4.188   5.410  15.148  0.6022  0.0958  0.2235
10894TIP3    H154173   4.141   5.407  15.064  1.8425  0.0186 -0.4809
10894TIP3    H254174   4.242   5.331  15.147 -1.3489 -1.3398  2.2946
10895TIP3   OH254175   3.769   1.714   3.592 -0.3597 -0.1398 -0.1857
10895TIP3    H154176   3.699   1.681   3.536  0.3441 -1.6727 -0.1896
10895TIP3    H254177   3.849   1.697   3.543 -0.0498  2.7338 -0.7325
10896TIP3   OH254178   3.632   5.964   5.785  0.5323  0.4200 -0.0213
10896TIP3    H154179   3.618   6.024   5.712 -0.5551 -0.5940 -0.6747
10896TIP3    H254180   3.548   5.963   5.831  0.4126 -0.8719 -0.2445
10897TIP3   OH254181   4.375   5.691  15.609  0.1635  0.3017 -0.0511
10897TIP3    H154182   4.284   5.695  15.581 -0.2545  0.4029  1.2653
10897TIP3    H254183   4.426   5.706  15.530 -0.9541 -0.2445 -0.8881
10898TIP3   OH254184   5.422   1.446  14.258  0.4136  0.1755  0.4728
10898TIP3    H154185   5.382   1.504  14.323  0.9953 -1.1777  2.0591
10898TIP3    H254186   5.443   1.504  14.184  0.0521  1.7882  1.6123
10899TIP3   OH254187   4.915   1.240   2.203  0.3865 -0.5933  0.0969
10899TIP3    H154188   4.909   1.246   2.299 -0.4981 -0.1999  0.0157
10899TIP3    H254189   4.846   1.178   2.179 -1.7302  1.9648 -0.5955
10900TIP3   OH254190   3.339   0.838  11.767 -0.3982  0.1431 -0.7563
10900TIP3    H154191   3.403   0.783  11.812  0.3856  0.0093 -2.0134
10900TIP3    H254192   3.334   0.918  11.820  1.2758  0.4095 -0.9810
10901TIP3   OH254193   1.238   2.581   4.062  0.2116  0.1431 -0.1981
10901TIP3    H154194   1.324   2.571   4.020 -0.6687  0.7704 -2.1744
10901TIP3    H254195   1.236   2.510   4.127  2.2826  0.2289  0.0113
10902TIP3   OH254196   2.015   0.228  14.012  0.2237  0.0510 -0.3562
10902TIP3    H154197   1.993   0.256  14.101  2.9419  0.3211  0.2692
10902TIP3    H254198   2.066   0.147  14.024  1.2198  0.4768 -1.6219
10903TIP3   OH254199   3.962   0.186   3.700 -0.8546  0.2889  0.1818
10903TIP3    H154200   4.045   0.155   3.735 -2.1418 -0.3508  2.7609
10903TIP3    H254201   3.976   0.280   3.688  0.2733  0.1716  0.4780
10904TIP3   OH254202   5.857   2.520   1.660 -0.5415 -0.0216  0.1348
10904TIP3    H154203   5.863   2.453   1.729  1.1529 -0.3807 -0.3323
10904TIP3    H254204   5.857   2.603   1.708  0.8820 -0.2626  0.5993
10905TIP3   OH254205   6.795   1.624  14.391 -0.4395 -0.3314  0.0435
10905TIP3    H154206   6.726   1.664  14.337  0.2002  0.2370 -0.3637
10905TIP3    H254207   6.762   1.630  14.480 -0.8604  0.0738 -0.1343
10906TIP3   OH254208   3.808   2.939  12.915  0.0384  0.1084  0.1443
10906TIP3    H154209   3.899   2.915  12.899  0.1455 -0.8317  1.9734
10906TIP3    H254210   3.772   2.863  12.962 -1.4486  0.8117  0.1570
10907TIP3   OH254211   4.731   1.695  13.262  0.1785 -0.0758 -0.3521
10907TIP3    H154212   4.720   1.672  13.169  1.0509  1.3195 -0.8220
10907TIP3    H254213   4.647   1.734  13.287 -0.2540 -0.9710 -0.3972
10908TIP3   OH254214   5.350   5.546  15.963  0.2053  0.0957  0.0937
10908TIP3    H154215   5.347   5.552  16.058 -1.4852 -0.8084  0.1301
10908TIP3    H254216   5.280   5.604  15.933 -0.8333 -1.4182 -0.4789
10909TIP3   OH254217   4.193   2.113   5.170 -0.2419 -0.5839  0.3476
10909TIP3    H154218   4.227   2.203   5.167 -2.0878  0.0575 -3.1136
10909TIP3    H254219   4.133   2.113   5.244 -1.4688  1.5250 -0.6051
10910TIP3   OH254220   1.747   3.114  10.305 -0.3124 -0.0320  0.4876
10910TIP3    H154221   1.660   3.097  10.268  0.0551 -0.5977 -0.0995
10910TIP3    H254222   1.783   3.183  10.250 -0.2328 -0.0616  0.5031
10911TIP3   OH254223   0.689   6.686  14.096 -0.5755 -0.6236  0.0057
10911TIP3    H154224   0.680   6.638  14.178 -1.3576  0.3880  0.5263
10911TIP3    H254225   0.743   6.762  14.119 -1.7794  0.2907 -0.1290
10912TIP3   OH254226   4.259   3.188   5.997  0.2562 -0.3641 -0.0616
10912TIP3    H154227   4.350   3.180   6.025 -0.0920  1.9587  1.8877
10912TIP3    H254228   4.219   3.247   6.061 -2.9670 -2.3883 -0.0770
10913TIP3   OH254229   0.857   1.253  13.150 -0.6527  0.1912  0.2056
10913TIP3    H154230   0.950   1.253  13.126 -0.4375 -1.1077  0.9834
10913TIP3    H254231   0.848   1.329  13.207  0.1318 -0.1383  0.7882
10914TIP3   OH254232   1.219   6.650  13.503  0.1853  0.5481  0.2486
10914TIP3    H154233   1.277   6.618  13.434 -2.6258 -0.0075 -1.9417
10914TIP3    H254234   1.223   6.745  13.494 -1.3744  0.4516 -1.7712
10915TIP3   OH254235   2.963   1.282   3.568  0.3786  0.0331  0.2643
10915TIP3    H154236   2.868   1.273   3.556  0.5372 -0.7023 -0.4500
10915TIP3    H254237   2.998   1.297   3.481  0.8020  1.5348  0.6792
10916TIP3   OH254238   6.015   0.587   5.333  0.2569  0.4099  0.5430
10916TIP3    H154239   6.055   0.524   5.272  0.0195 -0.2028  1.0215
10916TIP3    H254240   6.089   0.640   5.364  0.4381  0.4541  0.0513
10917TIP3   OH254241   3.824   2.910   4.032  0.2151 -0.2752 -0.0328
10917TIP3    H154242   3.789   2.924   3.944 -0.4439  1.4758  0.4743
10917TIP3    H254243   3.757   2.858   4.077 -0.4072  0.5678  0.0356
10918TIP3   OH254244   6.344   4.866  14.635 -0.1940  0.2892 -0.4904
10918TIP3    H154245   6.281   4.798  14.659 -0.5732  0.3265 -1.3526
10918TIP3    H254246   6.403   4.823  14.573  1.0661  0.0575  0.8585
10919TIP3   OH254247   2.941   2.660   1.257 -0.2442  0.2150 -0.0983
10919TIP3    H154248   2.923   2.571   1.288 -1.8247  0.9539  1.1668
10919TIP3    H254249   3.026   2.653   1.213  1.2092 -1.2331  2.8366
10920TIP3   OH254250   5.537   4.495   1.442  0.1005  0.1058 -0.2895
10920TIP3    H154251   5.563   4.421   1.497 -2.0564 -0.0613  0.5527
10920TIP3    H254252   5.507   4.455   1.361  1.1026  0.2118 -0.7180
10921TIP3   OH254253   2.828   5.871  16.186  0.5809 -0.1396 -0.2441
10921TIP3    H154254   2.822   5.933  16.114  0.9813 -0.0315 -0.1873
10921TIP3    H254255   2.748   5.884  16.236  1.3545  1.3958  0.6259
10922TIP3   OH254256   0.648   2.300  13.040  0.0182 -0.1440  0.2684
10922TIP3    H154257   0.678   2.322  12.952 -0.8717  2.2029  0.5083
10922TIP3    H254258   0.583   2.231  13.027 -2.0663  2.0243 -1.2011
10923TIP3   OH254259   2.696   0.467  15.675 -0.0204  0.6880  0.0169
10923TIP3    H154260   2.731   0.551  15.704 -0.7674  0.6970  0.9242
10923TIP3    H254261   2.605   0.467  15.705 -0.3993  0.0782 -1.0686
10924TIP3   OH254262   3.874   2.023  11.769  0.4728 -0.0514  0.0110
10924TIP3    H154263   3.930   2.044  11.695  0.0052  0.0806 -0.3092
10924TIP3    H254264   3.882   2.099  11.827  1.7853 -0.6913  0.6721
10925TIP3   OH254265   2.052   3.848   2.687  0.0430 -0.7463  0.5488
10925TIP3    H154266   2.042   3.930   2.736  0.0545 -0.7468  0.5520
10925TIP3    H254267   2.014   3.781   2.744 -0.6129 -0.6434  0.2462
10926TIP3   OH254268   2.751   1.578   2.381 -0.0358 -0.4838 -0.1027
10926TIP3    H154269   2.779   1.513   2.445  2.1438 -1.2763 -1.7700
10926TIP3    H254270   2.656   1.577   2.385 -0.0176 -3.2001  0.4548
10927TIP3   OH254271   4.467   4.439   3.973  0.3078  0.3153  0.2940
10927TIP3    H154272   4.409   4.514   3.970  0.4848  0.5079  1.3982
10927TIP3    H254273   4.505   4.434   3.885 -2.3708 -0.6230 -0.8738
10928TIP3   OH254274   3.635   4.498  14.737 -0.0513  0.2657 -0.5694
10928TIP3    H154275   3.576   4.485  14.811 -0.0687  1.0655 -0.4476
10928TIP3    H254276   3.595   4.446  14.666  1.2219 -2.4421  0.6138
10929TIP3   OH254277   1.828   2.631   4.870  0.9209 -0.1810 -0.2008
10929TIP3    H154278   1.806   2.701   4.931  0.1276  0.3161 -1.0577
10929TIP3    H254279   1.842   2.554   4.926  0.6438  0.3787  0.6389
10930TIP3   OH254280   6.450   4.455   5.772 -0.2674 -0.1694 -0.3593
10930TIP3    H154281   6.504   4.426   5.698  0.3304 -1.1381  0.4581
10930TIP3    H254282   6.500   4.526   5.812  0.3909 -1.0210  0.3565
10931TIP3   OH254283   0.398   2.060  10.926  0.2239 -0.3316 -0.1588
10931TIP3    H154284   0.448   2.051  10.845  0.3332  1.8037 -0.3467
10931TIP3    H254285   0.438   1.996  10.986  1.5135 -0.4306 -1.1074
10932TIP3   OH254286   3.912   2.304  17.099  0.0072  0.6639  0.5082
10932TIP3    H154287   3.885   2.348  17.179  0.7370  1.7973  0.1420
10932TIP3    H254288   3.904   2.371  17.031 -2.1363 -0.7173 -0.6721
10933TIP3   OH254289   0.225   2.969  14.574  0.2933  0.4249  0.1714
10933TIP3    H154290   0.294   3.010  14.523  2.2567 -0.1893  2.2729
10933TIP3    H254291   0.157   3.036  14.581 -0.1266  0.4340 -3.3961
10934TIP3   OH254292   1.943   4.220   2.753 -0.2346  0.1169  0.2586
10934TIP3    H154293   1.850   4.237   2.740 -0.0498  0.5974 -0.4541
10934TIP3    H254294   1.982   4.231   2.666  0.2884 -1.3987  0.2867
10935TIP3   OH254295   1.375   3.721  12.701 -0.0361 -0.7652 -0.4229
10935TIP3    H154296   1.406   3.632  12.682 -2.0173 -1.5131 -0.2276
10935TIP3    H254297   1.394   3.734  12.794  0.1355 -1.0172 -0.4219
10936TIP3   OH254298   0.747   6.633  11.226 -0.6587  0.6121  0.0836
10936TIP3    H154299   0.741   6.570  11.298 -0.6952 -0.9075 -1.2237
10936TIP3    H254300   0.811   6.595  11.166 -0.8148  1.7373 -0.8201
10937TIP3   OH254301   1.800   4.785   0.472  0.5866  0.1473 -0.1919
10937TIP3    H154302   1.757   4.860   0.513 -2.0986 -1.2156 -0.4097
10937TIP3    H254303   1.868   4.759   0.535  1.2521  2.4319  0.0821
10938TIP3   OH254304   5.947   2.212   1.524 -0.3373 -0.5185 -0.1420
10938TIP3    H154305   6.017   2.147   1.521  0.7377  0.6869 -1.6446
10938TIP3    H254306   5.878   2.175   1.468  0.1673 -0.5099 -0.7794
10939TIP3   OH254307   5.635   0.885   1.129 -0.0434  0.2945 -0.1392
10939TIP3    H154308   5.666   0.941   1.200  1.1710  0.3145 -0.6720
10939TIP3    H254309   5.604   0.946   1.062  0.4867  0.3302 -0.3614
10940TIP3   OH254310   0.989   0.366  12.198  0.1858  0.3917  0.4191
10940TIP3    H154311   1.024   0.438  12.250  3.7292 -0.1760 -1.0823
10940TIP3    H254312   0.977   0.402  12.110  1.3006 -0.5965 -0.1654
10941TIP3   OH254313   1.622   3.365   1.763  0.0685 -0.9239  0.1005
10941TIP3    H154314   1.714   3.342   1.777  0.1525 -0.8540 -0.3194
10941TIP3    H254315   1.573   3.292   1.801  0.2952 -0.9036  0.4337
10942TIP3   OH254316   2.585   2.771  13.313 -0.8699  0.0630 -0.4790
10942TIP3    H154317   2.606   2.858  13.280  0.4270 -0.4752 -1.1260
10942TIP3    H254318   2.490   2.771  13.323 -0.8660  1.5819 -0.3641
10943TIP3   OH254319   5.687   4.854  12.159  0.1269 -0.5717 -0.2045
10943TIP3    H154320   5.773   4.882  12.127 -0.5372  0.8465 -0.7902
10943TIP3    H254321   5.671   4.770  12.116 -0.4280  0.9497 -3.1067
10944TIP3   OH254322   1.985   2.934   4.627 -0.1253 -0.1732  0.2215
10944TIP3    H154323   2.020   2.954   4.714 -0.7706 -0.5713  0.5762
10944TIP3    H254324   2.010   2.843   4.612 -1.8272 -0.7738  0.8916
10945TIP3   OH254325   5.903   6.076  13.396  0.0641 -0.3780 -0.1937
10945TIP3    H154326   5.947   6.060  13.312  0.9131  0.3042  0.1202
10945TIP3    H254327   5.847   6.152  13.379  0.6740  0.1214  0.0134
10946TIP3   OH254328   3.297   2.614  14.349 -0.5115 -0.2241 -0.0303
10946TIP3    H154329   3.268   2.700  14.317  0.2114  0.4618  1.1409
10946TIP3    H254330   3.338   2.632  14.433  0.1921 -1.6506 -0.0553
10947TIP3   OH254331   3.739   5.286   2.039  0.1568  0.5784  0.1400
10947TIP3    H154332   3.731   5.297   2.133 -0.6907  4.1819 -0.2729
10947TIP3    H254333   3.834   5.284   2.023  0.3109  0.7506  1.0006
10948TIP3   OH254334   5.110   4.519   0.678  0.3974  0.2525  0.3290
10948TIP3    H154335   5.040   4.543   0.618 -0.2577 -1.0787  0.5401
10948TIP3    H254336   5.189   4.519   0.623  0.3276  2.2067  0.1949
10949TIP3   OH254337   5.072   1.649  12.853  0.2818  0.3280 -0.0392
10949TIP3    H154338   4.989   1.627  12.895 -0.0899  1.0904 -0.3657
10949TIP3    H254339   5.124   1.569  12.859 -0.6362 -0.2874 -0.1986
10950TIP3   OH254340   5.703   2.576  14.549  0.1022 -0.0166  0.1385
10950TIP3    H154341   5.724   2.650  14.492 -1.3664  0.9745  0.8267
10950TIP3    H254342   5.662   2.616  14.626 -0.4887 -1.5345  0.6364
10951TIP3   OH254343   4.015   5.707   5.543  0.2438 -0.7132 -0.3175
10951TIP3    H154344   3.944   5.705   5.478  0.9539 -1.4482 -1.1013
10951TIP3    H254345   4.090   5.669   5.496  0.7953 -1.1550  0.9059
10952TIP3   OH254346   5.809   5.166  10.876 -0.4810 -0.1561 -0.7403
10952TIP3    H154347   5.808   5.107  10.952 -2.7867  2.3924  1.3181
10952TIP3    H254348   5.726   5.149  10.831 -0.8675  1.0267 -0.4947
10953TIP3   OH254349   2.449   4.451  14.689 -0.7131  0.0675  0.3912
10953TIP3    H154350   2.374   4.492  14.646 -1.5642 -2.6653 -0.8807
10953TIP3    H254351   2.410   4.395  14.756  0.2813 -0.1790  0.7633
10954TIP3   OH254352   3.207   1.406   4.372  0.2923 -0.1964 -0.2311
10954TIP3    H154353   3.293   1.365   4.360 -0.4369 -1.5739 -0.7945
10954TIP3    H254354   3.159   1.385   4.293  0.1931  2.5598 -0.9509
10955TIP3   OH254355   1.868   4.026   5.235 -0.3974  0.1389  0.2507
10955TIP3    H154356   1.853   3.958   5.169  0.3753  0.3197 -0.1190
10955TIP3    H254357   1.790   4.081   5.231 -1.2867 -1.0399  0.9465
10956TIP3   OH254358   1.580   2.509  15.211  0.0826  0.0338  0.5432
10956TIP3    H154359   1.663   2.464  15.229 -1.0334 -2.0024  0.7526
10956TIP3    H254360   1.595   2.599  15.239  2.0206 -0.4534  1.1718
10957TIP3   OH254361   1.838   2.610  13.740 -0.3884  0.0319 -0.1357
10957TIP3    H154362   1.880   2.591  13.823  0.9087  1.9531 -0.3355
10957TIP3    H254363   1.761   2.552  13.738 -0.3478 -0.1353  2.2957
10958TIP3   OH254364   0.761   3.873  13.697  0.1405 -0.4184  0.4632
10958TIP3    H154365   0.800   3.788  13.714  0.2354 -0.1684  1.5349
10958TIP3    H254366   0.667   3.857  13.696  0.2258 -1.1354 -2.7495
10959TIP3   OH254367   4.140   0.797  15.092 -0.0190  0.3382  0.5171
10959TIP3    H154368   4.177   0.871  15.044 -2.5660  1.2682 -0.0744
10959TIP3    H254369   4.052   0.826  15.117 -1.7626 -3.1429 -1.3190
10960TIP3   OH254370   4.493   6.594  11.539 -0.1841  0.2131  0.5357
10960TIP3    H154371   4.497   6.572  11.632 -2.5698 -0.1567  0.6001
10960TIP3    H254372   4.423   6.538  11.505 -0.9298  2.0175 -0.9880
10961TIP3   OH254373   3.120   5.325  12.246  0.3102  0.2525 -0.3602
10961TIP3    H154374   3.071   5.396  12.205  1.1865  1.8419  1.2442
10961TIP3    H254375   3.211   5.342  12.222  0.3897 -1.1266 -1.0852
10962TIP3   OH254376   1.447   4.710   3.295 -0.4652  0.3448 -0.3142
10962TIP3    H154377   1.395   4.640   3.255 -1.3648  0.1616  1.1578
10962TIP3    H254378   1.442   4.694   3.389  1.2827  1.0247 -0.0896
10963TIP3   OH254379   2.362   4.327  13.551  0.4267  0.4893  0.4935
10963TIP3    H154380   2.352   4.420  13.572  0.3323  0.7966 -0.8857
10963TIP3    H254381   2.349   4.322  13.456  1.4330 -0.8000  0.4167
10964TIP3   OH254382   6.063   3.999  13.898  0.2383 -0.0290 -0.0911
10964TIP3    H154383   6.062   3.916  13.945  1.3597  1.0629  1.9190
10964TIP3    H254384   6.113   4.058  13.954 -0.5998  2.0356 -1.4512
10965TIP3   OH254385   0.194   1.297  16.064  0.1443  0.1578 -0.2319
10965TIP3    H154386   0.186   1.374  16.009 -0.6233 -0.1009 -0.4795
10965TIP3    H254387   0.123   1.239  16.036  0.5730 -0.5429  0.1038
10966TIP3   OH254388   2.979   0.481  16.026  0.1970  0.1738 -0.2628
10966TIP3    H154389   2.893   0.438  16.024 -0.3813  1.2623  0.7064
10966TIP3    H254390   3.039   0.414  15.994 -0.5479 -1.7072  2.0648
10967TIP3   OH254391   0.278   2.839   1.718  0.0766 -0.5379  0.1311
10967TIP3    H154392   0.281   2.800   1.631  0.2359 -0.4234  0.0845
10967TIP3    H254393   0.311   2.771   1.776 -1.1997 -1.0505  0.2592
10968TIP3   OH254394   5.813   3.871   5.142 -0.0522 -0.2056 -0.7413
10968TIP3    H154395   5.812   3.857   5.047  0.8237  2.3954 -1.1644
10968TIP3    H254396   5.898   3.911   5.159  0.0172 -1.1585  1.2337
10969TIP3   OH254397   5.125   4.980  16.494  0.1097 -0.8950  0.3238
10969TIP3    H154398   5.217   5.004  16.484 -0.3708  1.0415  0.2029
10969TIP3    H254399   5.105   4.998  16.585 -0.3143 -0.6373  0.1825
10970TIP3   OH254400   6.084   6.013   1.234 -0.2192 -0.3736 -0.2907
10970TIP3    H154401   6.073   5.984   1.144 -1.4446 -0.0450 -0.2499
10970TIP3    H254402   6.153   6.079   1.230  0.5127 -1.1622 -0.8147
10971TIP3   OH254403   5.126   1.236   6.358 -0.5564 -0.0819 -0.1281
10971TIP3    H154404   5.148   1.267   6.446 -1.7523  2.0444 -0.5652
10971TIP3    H254405   5.204   1.187   6.330  0.6878  1.0719  1.2499
10972TIP3   OH254406   4.878   2.400   2.916 -0.3165  0.1149  0.0816
10972TIP3    H154407   4.784   2.384   2.907 -0.0173 -0.7918 -1.5408
10972TIP3    H254408   4.888   2.495   2.903 -0.8402  0.0054 -1.1290
10973TIP3   OH254409   1.536   5.181   5.268 -0.0222 -0.1127 -0.1351
10973TIP3    H154410   1.464   5.179   5.332  2.6123  0.0803  2.9666
10973TIP3    H254411   1.569   5.091   5.268 -0.3383 -0.2331 -1.6787
10974TIP3   OH254412   2.471   4.132   3.207  0.4595  0.4533  0.7134
10974TIP3    H154413   2.413   4.199   3.171 -0.0166  0.1637  0.9383
10974TIP3    H254414   2.414   4.076   3.261  0.5023 -1.1883 -0.8869
10975TIP3   OH254415   3.522   5.440  13.433  0.0558 -0.1527 -0.3195
10975TIP3    H154416   3.566   5.479  13.358 -1.3812  0.4650 -0.8711
10975TIP3    H254417   3.493   5.355  13.402  0.3719 -0.3256 -0.1383
10976TIP3   OH254418   1.760   0.280  12.219 -0.1107  0.8925 -0.4068
10976TIP3    H154419   1.777   0.217  12.289 -2.3015 -0.1915 -0.7931
10976TIP3    H254420   1.750   0.364  12.263  0.9752  0.6523  0.3091
10977TIP3   OH254421   1.709   2.735  14.601  0.3949 -0.1870 -0.2625
10977TIP3    H154422   1.679   2.652  14.638 -0.7435  1.1121  1.8143
10977TIP3    H254423   1.777   2.765  14.661  1.2226  0.0945 -1.3376
10978TIP3   OH254424   4.283   3.974  13.142  0.2343 -0.1040 -0.3430
10978TIP3    H154425   4.263   3.986  13.235 -1.6770 -0.8654 -0.6277
10978TIP3    H254426   4.357   3.913  13.141 -0.7499 -1.3577  0.6671
10979TIP3   OH254427   1.660   3.893  17.081  0.4909 -0.0354  0.5529
10979TIP3    H154428   1.689   3.965  17.138 -0.0593  0.4941  0.1698
10979TIP3    H254429   1.689   3.919  16.994  1.6541 -1.0180  0.6372
10980TIP3   OH254430   2.889   3.114   1.453 -0.4296  0.0211 -0.0149
10980TIP3    H154431   2.849   3.179   1.394  0.3449  0.6957  0.1891
10980TIP3    H254432   2.913   3.042   1.395 -1.7234 -0.3018 -0.1756
10981TIP3   OH254433   1.246   2.521   6.645 -0.0329 -0.8688 -0.2019
10981TIP3    H154434   1.252   2.607   6.685 -0.3093 -0.9766  0.0720
10981TIP3    H254435   1.167   2.482   6.682 -0.8705 -0.5741 -1.6291
10982TIP3   OH254436   2.796   2.165  12.800  0.4206  0.1182 -0.2174
10982TIP3    H154437   2.702   2.151  12.804  0.3869  0.4457  0.3009
10982TIP3    H254438   2.833   2.080  12.777  0.3092 -1.1836  3.9755
10983TIP3   OH254439   5.906   2.262  15.676 -0.6231 -0.1650  0.5371
10983TIP3    H154440   5.816   2.283  15.700 -0.8770  1.5137 -1.7186
10983TIP3    H254441   5.899   2.218  15.591  0.6288 -0.9028  0.7932
10984TIP3   OH254442   2.687   1.882  15.225 -0.4655 -0.9128 -0.1101
10984TIP3    H154443   2.668   1.795  15.260  2.9275 -1.1417  1.3815
10984TIP3    H254444   2.651   1.942  15.290 -1.2461 -1.2241 -0.2523
10985TIP3   OH254445   6.245   6.765   1.913  0.5011  0.4230  0.4127
10985TIP3    H154446   6.202   6.760   1.999  2.5241 -2.6163  1.3508
10985TIP3    H254447   6.183   6.725   1.852  0.8086 -1.4242  1.2689
10986TIP3   OH254448   2.828   5.167   2.791 -0.4238  0.2621 -0.5265
10986TIP3    H154449   2.805   5.122   2.710 -0.2902 -0.4465 -0.1680
10986TIP3    H254450   2.851   5.256   2.763 -2.2467  0.5837 -1.0450
10987TIP3   OH254451   2.802   6.409   3.593 -0.4174  0.1468 -1.0218
10987TIP3    H154452   2.787   6.332   3.539 -1.4248  1.5378 -2.7682
10987TIP3    H254453   2.718   6.425   3.636  0.1073 -0.3869  0.2153
10988TIP3   OH254454   4.287   2.592   1.934  0.3498  0.3864 -0.1374
10988TIP3    H154455   4.257   2.538   2.008  1.5601 -0.0646  0.0289
10988TIP3    H254456   4.330   2.667   1.976 -1.3621  1.5237 -0.3668
10989TIP3   OH254457   0.266   4.841   1.756  0.8030 -0.2783 -0.1892
10989TIP3    H154458   0.219   4.816   1.677  0.9971 -0.5528 -0.2191
10989TIP3    H254459   0.321   4.915   1.729 -0.5603  0.8713  0.1598
10990TIP3   OH254460   4.754   1.023   5.269  0.1705 -0.4730 -0.0387
10990TIP3    H154461   4.711   1.101   5.303 -1.9594 -1.1144 -1.2285
10990TIP3    H254462   4.729   0.953   5.329 -1.0652 -0.9865 -1.1272
10991TIP3   OH254463   2.958   3.912   0.392 -0.1355 -0.3399  0.1324
10991TIP3    H154464   3.013   3.891   0.468  1.4284 -0.4878 -1.0139
10991TIP3    H254465   2.870   3.918   0.428 -0.0556 -4.4520  1.3237
10992TIP3   OH254466   5.964   4.186  12.813 -0.1975 -0.2122  0.0760
10992TIP3    H154467   5.926   4.176  12.726  0.3836  1.0863 -0.3320
10992TIP3    H254468   6.057   4.168  12.801  0.0813  1.0917  0.2025
10993TIP3   OH254469   1.541   6.810   2.623  0.5719 -0.2929  0.1018
10993TIP3    H154470   1.589   6.746   2.570 -1.0960 -1.4852  0.0119
10993TIP3    H254471   1.539   6.772   2.710  0.3970  0.0960  0.2656
10994TIP3   OH254472   4.534   5.111  14.450 -0.3150 -0.1212  0.4363
10994TIP3    H154473   4.503   5.188  14.403 -0.8457 -1.3227 -1.2586
10994TIP3    H254474   4.580   5.145  14.527 -1.5896  1.8197  0.3452
10995TIP3   OH254475   2.056   3.375   0.201 -0.3024  0.1387  0.2340
10995TIP3    H154476   2.036   3.387   0.294  1.5335 -2.1149  0.9461
10995TIP3    H254477   2.062   3.281   0.190 -0.0730  0.4108 -2.0929
10996TIP3   OH254478   1.362   1.240   0.190 -0.0302  0.0545 -0.2486
10996TIP3    H154479   1.458   1.240   0.194 -0.0392  0.4300 -0.0582
10996TIP3    H254480   1.335   1.301   0.259 -0.4717 -1.7041  1.1540
10997TIP3   OH254481   1.402   3.406  11.913 -0.4763 -0.4168 -0.1756
10997TIP3    H154482   1.473   3.467  11.933  0.7476 -1.5493 -1.0060
10997TIP3    H254483   1.350   3.451  11.847 -2.1316  1.5684  2.3563
10998TIP3   OH254484   0.469   2.556  16.686  0.1463  0.3749 -0.5195
10998TIP3    H154485   0.494   2.618  16.754  0.3616 -1.6548  1.3321
10998TIP3    H254486   0.514   2.475  16.710 -0.1785 -0.5325 -2.8179
10999TIP3   OH254487   3.195   4.396   5.730  0.1552 -0.6527  0.0900
10999TIP3    H154488   3.252   4.361   5.798  1.4626 -0.3048 -0.7919
10999TIP3    H254489   3.221   4.348   5.651 -0.2169  0.0782 -0.4809
11000TIP3   OH254490   2.976   4.424  13.656 -0.2190 -0.0285  0.0955
11000TIP3    H154491   3.042   4.405  13.589 -0.5674  0.1370 -0.2926
11000TIP3    H254492   2.940   4.509  13.631 -1.5194 -0.7306 -0.4418
11001TIP3   OH254493   1.162   5.298   3.699 -0.5037  0.3287  0.2084
11001TIP3    H154494   1.234   5.316   3.638 -1.1603  0.5926 -0.4990
11001TIP3    H254495   1.182   5.211   3.734 -0.6222 -0.2450 -1.1256
11002TIP3   OH254496   6.406   5.153   2.932 -1.2732  0.0909  0.4171
11002TIP3    H154497   6.344   5.104   2.879  0.4861 -0.6850 -0.9441
11002TIP3    H254498   6.478   5.093   2.948 -1.0252  0.8473  2.3283
11003TIP3   OH254499   4.371   1.498  16.158 -0.1855  0.2856  0.4128
11003TIP3    H154500   4.406   1.483  16.246 -2.3008 -1.3698  1.0156
11003TIP3    H254501   4.277   1.509  16.171 -0.5603 -0.1867 -1.6741
11004TIP3   OH254502   1.384   2.316  16.758 -0.2857  0.4288 -0.3104
11004TIP3    H154503   1.350   2.309  16.847  1.0799  1.5699  0.3248
11004TIP3    H254504   1.374   2.228  16.721 -0.9499 -0.0289  0.9353
11005TIP3   OH254505   5.330   6.422  16.862 -0.0238 -0.0486  0.1589
11005TIP3    H154506   5.366   6.455  16.780  1.4254  1.4397  1.3816
11005TIP3    H254507   5.404   6.379  16.905 -0.4504  0.3500  1.3049
11006TIP3   OH254508   4.973   6.326  10.573 -0.5568  0.0875  0.2783
11006TIP3    H154509   4.898   6.374  10.608 -1.1247 -1.4924  1.2318
11006TIP3    H254510   5.033   6.317  10.647  0.2532  0.6807 -0.2913
11007TIP3   OH254511   0.205   1.250  13.947 -0.0520  0.0595  0.2786
11007TIP3    H154512   0.128   1.200  13.918 -0.1466  0.5110 -0.2592
11007TIP3    H254513   0.210   1.233  14.041  0.3217 -1.5001 -0.0172
11008TIP3   OH254514   5.628   3.931   3.738  0.2248  0.2820  0.1078
11008TIP3    H154515   5.625   3.957   3.830  1.2279  0.6911  0.0303
11008TIP3    H254516   5.560   3.865   3.730  0.4808 -0.1419  1.2654
11009TIP3   OH254517   5.655   0.283   5.766  0.1506 -0.0223 -0.0380
11009TIP3    H154518   5.748   0.266   5.780 -0.0548  0.3665  1.9171
11009TIP3    H254519   5.630   0.343   5.836 -1.6290 -0.2661 -0.4245
11010TIP3   OH254520   1.858   0.703   0.365  0.1035  0.3068  0.3247
11010TIP3    H154521   1.789   0.654   0.321 -1.0691  3.1763 -1.1785
11010TIP3    H254522   1.915   0.733   0.294  1.3692  0.2312  1.3020
11011TIP3   OH254523   0.645   6.135   6.157 -0.0199  0.2952  0.5993
11011TIP3    H154524   0.583   6.147   6.229  0.1028 -0.7501  0.8935
11011TIP3    H254525   0.660   6.223   6.123  0.7589  0.9608  2.5670
11012TIP3   OH254526   5.626   5.667  17.175  0.3184  0.0447  0.5541
11012TIP3    H154527   5.715   5.672  17.210  0.7741  1.2698 -0.7450
11012TIP3    H254528   5.632   5.704  17.088 -1.5132  0.3077  0.5133
11013TIP3   OH254529   1.599   6.277  13.364 -0.0857  0.0278 -0.0045
11013TIP3    H154530   1.566   6.209  13.305 -1.4799  0.4761  0.2389
11013TIP3    H254531   1.583   6.242  13.451 -2.6330  1.4891  0.1513
11014TIP3   OH254532   5.768   1.169   0.954  0.1952  0.4111  0.1147
11014TIP3    H154533   5.816   1.111   0.896  0.5299 -1.2139  1.9736
11014TIP3    H254534   5.833   1.201   1.016 -0.8699 -0.9785  2.0130
11015TIP3   OH254535   6.650   0.554  16.881 -0.4563  0.5273  0.3129
11015TIP3    H154536   6.597   0.485  16.921 -0.2813 -0.6785 -1.4671
11015TIP3    H254537   6.662   0.525  16.790 -0.5670  3.0091 -0.5393
11016TIP3   OH254538   4.869   5.986   2.754  0.2704 -0.2844  0.3587
11016TIP3    H154539   4.796   6.030   2.796 -1.2338 -2.8593  0.5628
11016TIP3    H254540   4.947   6.029   2.789 -1.1080  1.4859  1.3042
11017TIP3   OH254541   2.722   0.168  15.654  0.1395 -0.0096  0.3218
11017TIP3    H154542   2.671   0.248  15.648  2.0623  1.1948 -0.3580
11017TIP3    H254543   2.715   0.142  15.746  2.2268  2.7903  1.3301
11018TIP3   OH254544   3.016   2.019  10.332  0.2431  0.7963  0.0160
11018TIP3    H154545   3.017   2.115  10.336 -1.0232  0.8064  0.3785
11018TIP3    H254546   2.999   1.991  10.422  2.5503  0.1663  0.2772
11019TIP3   OH254547   2.713   4.414  14.791 -0.1381 -0.3378  0.2026
11019TIP3    H154548   2.724   4.329  14.833  0.4047 -0.2994  0.1418
11019TIP3    H254549   2.618   4.425  14.783 -0.3036  0.1923  2.5085
11020TIP3   OH254550   2.602   0.121   5.109  0.1246 -0.2106 -0.3034
11020TIP3    H154551   2.556   0.204   5.100  1.2669  0.5586  0.7601
11020TIP3    H254552   2.677   0.128   5.049  0.6879 -0.1375  0.4068
11021TIP3   OH254553   5.317   5.204   0.543  0.2764  0.5876 -0.2008
11021TIP3    H154554   5.274   5.119   0.536 -3.1360  2.1585  0.7688
11021TIP3    H254555   5.321   5.221   0.637  0.6817  1.6369 -0.4026
11022TIP3   OH254556   3.828   0.431   5.376 -0.3437  0.5558  0.0389
11022TIP3    H154557   3.807   0.515   5.418 -1.8221  0.4847 -0.5128
11022TIP3    H254558   3.859   0.455   5.289 -1.5834  0.5012 -0.4257
11023TIP3   OH254559   2.706   1.909   4.553 -0.0146  0.1999  0.2210
11023TIP3    H154560   2.702   1.848   4.479  2.0287  0.0609  0.2125
11023TIP3    H254561   2.761   1.981   4.523  4.5093 -1.9090  2.9941
11024TIP3   OH254562   3.754   2.504   4.179  0.2573  0.4493  0.1505
11024TIP3    H154563   3.808   2.437   4.137  0.7627  1.1945 -0.4191
11024TIP3    H254564   3.796   2.519   4.264 -1.2748 -1.6938  1.3255
11025TIP3   OH254565   0.498   4.229  10.783 -0.4552 -0.1310  0.1901
11025TIP3    H154566   0.512   4.317  10.748 -0.5137  0.4207  1.5473
11025TIP3    H254567   0.541   4.172  10.720 -0.3627  0.8646 -0.6754
11026TIP3   OH254568   2.989   1.036   3.247  0.1963  0.1842  0.0883
11026TIP3    H154569   2.985   0.976   3.321  0.7031  0.1076  0.0569
11026TIP3    H254570   2.898   1.061   3.231 -0.4691 -3.1006 -1.9552
11027TIP3   OH254571   5.603   1.922   2.415 -0.1153 -0.0455  0.0109
11027TIP3    H154572   5.698   1.913   2.429  0.2329  2.2150 -0.6271
11027TIP3    H254573   5.572   1.832   2.405  1.7657 -0.9030  1.4375
11028TIP3   OH254574   1.867   1.707   5.577 -0.0102 -0.1997  0.2760
11028TIP3    H154575   1.874   1.694   5.671 -1.6143 -0.9047  0.3238
11028TIP3    H254576   1.808   1.781   5.567 -1.6432 -1.5111 -0.1726
11029TIP3   OH254577   1.353   3.577   2.691  0.3621 -0.7277 -0.1822
11029TIP3    H154578   1.373   3.664   2.725  1.0930 -0.6728 -0.7225
11029TIP3    H254579   1.290   3.540   2.753 -1.1903  0.7989 -0.8294
11030TIP3   OH254580   1.199   6.750  12.597 -0.2701  0.0194  0.6946
11030TIP3    H154581   1.268   6.689  12.573  1.1581  2.4286 -1.5026
11030TIP3    H254582   1.131   6.736  12.531  0.6166  1.6703 -0.5973
11031TIP3   OH254583   1.459   3.545  17.229 -0.1068 -0.4056 -0.4113
11031TIP3    H154584   1.409   3.625  17.214 -0.5720 -0.4592  0.8001
11031TIP3    H254585   1.510   3.563  17.307  0.1695 -1.1151 -0.4287
11032TIP3   OH254586   3.237   3.161  11.365  0.1322  0.3695  0.5337
11032TIP3    H154587   3.319   3.117  11.385 -0.6642 -0.6351  1.6757
11032TIP3    H254588   3.235   3.236  11.426 -0.4243 -0.3947  1.4730
11033TIP3   OH254589   3.797   0.726  13.902 -0.3777  0.9912 -0.4002
11033TIP3    H154590   3.706   0.697  13.892 -0.4882  0.6245  1.5081
11033TIP3    H254591   3.848   0.666  13.848 -0.8295 -1.4991  1.8470
11034TIP3   OH254592   2.594   2.562  10.194  0.2291  0.1789  0.1303
11034TIP3    H154593   2.567   2.530  10.280 -1.9636 -0.7647 -0.8709
11034TIP3    H254594   2.568   2.654  10.194  3.4758  1.1906  1.7496
11035TIP3   OH254595   0.118   1.917   6.225  0.0109  0.3516  0.2777
11035TIP3    H154596   0.090   2.009   6.228  0.2256  0.3737  2.3998
11035TIP3    H254597   0.142   1.896   6.315  0.4449 -1.6564 -0.2724
11036TIP3   OH254598   2.471   5.448  15.902 -0.0719 -0.5525 -1.2131
11036TIP3    H154599   2.393   5.462  15.955  1.9768 -0.5087  1.9332
11036TIP3    H254600   2.500   5.359  15.924  0.5568 -0.7036 -2.6061
11037TIP3   OH254601   3.141   2.621   1.087  0.3756  0.0130  0.5997
11037TIP3    H154602   3.175   2.700   1.046 -1.4948 -0.0786 -1.2333
11037TIP3    H254603   3.213   2.558   1.082  1.5014  1.2555  1.0855
11038TIP3   OH254604   4.881   5.862  16.713  0.6153  0.1803 -0.1216
11038TIP3    H154605   4.961   5.904  16.681  0.2345  1.3855  0.4772
11038TIP3    H254606   4.902   5.769  16.714  1.9139  0.4611 -0.2492
11039TIP3   OH254607   4.930   0.934  14.947  0.4502 -0.2720  0.2532
11039TIP3    H154608   4.868   0.864  14.967 -1.0099  1.2020  1.0382
11039TIP3    H254609   4.886   0.988  14.881  0.8363  0.8345  0.8725
11040TIP3   OH254610   0.214   1.226  12.308  0.1012 -0.6903  0.3986
11040TIP3    H154611   0.268   1.294  12.268 -0.7952 -0.9339 -1.3085
11040TIP3    H254612   0.261   1.144  12.288  0.1739 -0.7257  0.7232
11041TIP3   OH254613   5.521   2.467   3.142  0.1144  0.4226  0.2989
11041TIP3    H154614   5.483   2.379   3.141  0.1640  0.3900  1.2855
11041TIP3    H254615   5.550   2.481   3.052 -1.3245  0.0586 -0.2307
11042TIP3   OH254616   5.322   0.574  15.078  0.5831 -0.2459 -0.8322
11042TIP3    H154617   5.262   0.587  15.004  0.3523  0.5724 -0.5094
11042TIP3    H254618   5.266   0.541  15.148  0.8510 -1.2866 -1.0944
11043TIP3   OH254619   0.837   1.586   4.268  0.3708  0.5954 -0.3534
11043TIP3    H154620   0.799   1.531   4.199  1.1014 -0.5324  0.1113
11043TIP3    H254621   0.797   1.672   4.257 -0.9273 -0.0918 -0.9912
11044TIP3   OH254622   0.058   2.769   0.046  0.4702 -0.2532 -0.3918
11044TIP3    H154623   0.069   2.769   0.141  1.4878 -2.2060 -0.4866
11044TIP3    H254624   0.142   2.801   0.013  0.3852 -0.2996 -0.6527
11045TIP3   OH254625   6.452   5.735   0.739  0.0439 -0.2498 -0.0136
11045TIP3    H154626   6.531   5.787   0.726 -0.0084 -0.4572 -1.2186
11045TIP3    H254627   6.458   5.665   0.674 -1.6170  0.3176 -0.8042
11046TIP3   OH254628   3.453   1.122  16.820 -0.7429 -0.2449 -0.7723
11046TIP3    H154629   3.434   1.030  16.835 -3.3719  0.4757  0.8158
11046TIP3    H254630   3.456   1.132  16.725 -0.9862 -1.8685 -0.9568
11047TIP3   OH254631   1.560   1.802   4.464 -0.1360  0.3393  0.3038
11047TIP3    H154632   1.637   1.750   4.485 -0.1834  0.3104  0.4062
11047TIP3    H254633   1.514   1.750   4.398 -1.0443 -0.5511  1.6117
11048TIP3   OH254634   3.017   4.057  12.221  0.4140  0.4736 -0.4843
11048TIP3    H154635   2.935   4.097  12.250  0.2992  0.1601 -0.3796
11048TIP3    H254636   3.084   4.098  12.276  0.7073  2.9442 -2.5531
11049TIP3   OH254637   0.332   2.954   3.812 -0.3376  0.0309  0.1299
11049TIP3    H154638   0.338   2.917   3.901  1.4871 -0.9306 -0.3825
11049TIP3    H254639   0.374   3.040   3.819 -2.4340  1.0400  0.7568
11050TIP3   OH254640   1.496   0.102   3.221 -1.3440 -0.2101 -0.1762
11050TIP3    H154641   1.450   0.058   3.150 -0.0715 -0.2156 -0.9962
11050TIP3    H254642   1.426   0.144   3.272 -2.5560 -2.9421  0.4979
11051TIP3   OH254643   0.353   0.456   6.784  0.4751  0.6294 -0.5088
11051TIP3    H154644   0.359   0.369   6.743  0.4642  0.6973 -0.6556
11051TIP3    H254645   0.382   0.516   6.716 -1.0462  0.8844 -0.9470
11052TIP3   OH254646   1.849   2.452  16.287  0.2913  0.9734  0.1902
11052TIP3    H154647   1.944   2.450  16.276  0.1977  0.3055 -0.5668
11052TIP3    H254648   1.815   2.476  16.200 -0.2926 -0.4995 -0.0112
11053TIP3   OH254649   5.518   2.501   4.645  0.0676 -0.7880  0.2904
11053TIP3    H154650   5.527   2.562   4.718  0.0987 -0.5547  0.0916
11053TIP3    H254651   5.516   2.557   4.568  0.6580 -1.0791  0.0663
11054TIP3   OH254652   5.162   1.668   3.335 -0.1977 -0.2528 -0.5867
11054TIP3    H154653   5.254   1.663   3.361 -0.0015  1.1240 -1.0129
11054TIP3    H254654   5.114   1.652   3.416  0.4187  1.0225  0.0490
11055TIP3   OH254655   1.133   5.253  11.958 -0.1596 -0.2327 -0.1224
11055TIP3    H154656   1.201   5.189  11.975 -1.9807 -1.6003  2.3226
11055TIP3    H254657   1.180   5.334  11.939  2.1246 -1.2871  0.8818
11056TIP3   OH254658   5.386   2.036  11.261 -0.3314 -0.1160 -0.4474
11056TIP3    H154659   5.417   2.046  11.170  0.0402 -0.5187 -0.3685
11056TIP3    H254660   5.312   1.975  11.254  0.8282 -1.5795 -0.2687
11057TIP3   OH254661   3.465   6.046  10.691 -0.3379 -0.0378  0.7001
11057TIP3    H154662   3.536   6.051  10.755  0.4670  0.4951 -0.2227
11057TIP3    H254663   3.391   6.091  10.732  0.5585  1.4229  0.7477
11058TIP3   OH254664   0.772   4.527  16.567 -0.3377  0.0215  0.2437
11058TIP3    H154665   0.759   4.569  16.482 -2.7862  1.6398  1.3374
11058TIP3    H254666   0.863   4.498  16.566 -0.1406  0.5782 -2.6681
11059TIP3   OH254667   4.629   1.262  11.068 -0.5332  0.0874  0.7454
11059TIP3    H154668   4.614   1.285  10.976 -0.4938 -1.2739  0.3759
11059TIP3    H254669   4.665   1.341  11.107 -0.0436  0.5259 -0.5505
11060TIP3   OH254670   4.194   3.872   5.674 -0.2247  0.0517  0.4403
11060TIP3    H154671   4.119   3.857   5.731 -0.7014 -1.1978 -0.4820
11060TIP3    H254672   4.171   3.828   5.592  1.5724 -0.4991  0.2039
11061TIP3   OH254673   0.198   2.671  13.722 -0.5539 -0.2870 -0.5580
11061TIP3    H154674   0.104   2.653  13.732 -0.7663  1.5572  1.1045
11061TIP3    H254675   0.241   2.592  13.755 -1.5210 -0.9939 -0.9661
11062TIP3   OH254676   6.353   2.922   3.169  0.0561  0.0619 -0.2375
11062TIP3    H154677   6.293   2.985   3.131 -1.3624 -0.5048  1.0078
11062TIP3    H254678   6.432   2.972   3.188 -1.4213  1.7037  1.6926
11063TIP3   OH254679   1.360   1.399  12.406  0.3280 -0.4583 -0.4672
11063TIP3    H154680   1.409   1.351  12.340 -0.0540 -1.6288  0.0727
11063TIP3    H254681   1.376   1.351  12.488 -0.6229 -0.0729 -0.0416
11064TIP3   OH254682   0.826   0.445   4.476 -0.1704 -0.3626 -0.2870
11064TIP3    H154683   0.852   0.430   4.567  0.7678 -1.0778 -0.6581
11064TIP3    H254684   0.732   0.460   4.480 -0.0722  0.0381  0.8495
11065TIP3   OH254685   1.687   4.743   1.961 -0.2070  0.1870  0.3623
11065TIP3    H154686   1.665   4.737   1.869  0.2863 -1.6993  0.3596
11065TIP3    H254687   1.653   4.829   1.988 -1.4883  0.2005 -1.2398
11066TIP3   OH254688   6.095   1.347   2.561  0.3906  0.3456 -0.5123
11066TIP3    H154689   6.093   1.382   2.650 -0.5099  0.6367 -0.6394
11066TIP3    H254690   6.004   1.354   2.531  0.3067 -1.5777 -0.7455
11067TIP3   OH254691   6.575   2.850   4.421  0.1061  0.2997 -0.0599
11067TIP3    H154692   6.550   2.768   4.379 -0.6657  0.9793 -0.9576
11067TIP3    H254693   6.667   2.837   4.446 -0.2634 -1.1519  0.6186
11068TIP3   OH254694   0.130   2.386  10.875  0.4116 -0.0357 -0.0765
11068TIP3    H154695   0.077   2.425  10.804 -0.5751  0.0521  0.6956
11068TIP3    H254696   0.079   2.310  10.903 -0.5364  1.4635  2.3495
11069TIP3   OH254697   4.925   6.815   4.043  0.1016  0.5857 -0.1618
11069TIP3    H154698   4.929   6.749   3.973 -2.2057  1.6776 -1.4105
11069TIP3    H254699   4.881   6.771   4.115  0.7544  0.0162 -0.1158
11070TIP3   OH254700   1.570   4.688   3.763  0.1271 -0.7859 -0.1007
11070TIP3    H154701   1.573   4.764   3.705 -0.9754 -1.2073 -0.7334
11070TIP3    H254702   1.478   4.680   3.787  0.5510 -0.6977  1.6187
11071TIP3   OH254703   1.194   3.805  11.466 -0.1248  0.6800  0.4242
11071TIP3    H154704   1.137   3.850  11.404 -0.1631  0.2920  0.1721
11071TIP3    H254705   1.134   3.770  11.532 -0.0604  1.2982  0.8113
11072TIP3   OH254706   5.818   4.831   2.343  0.1285  0.2355  0.2132
11072TIP3    H154707   5.836   4.853   2.434  2.7511  0.0301 -0.2298
11072TIP3    H254708   5.765   4.904   2.311 -1.6560 -0.1434  2.1256
11073TIP3   OH254709   1.098   0.264  11.408 -0.0854  0.2482 -0.0866
11073TIP3    H154710   1.062   0.198  11.349  1.1261 -0.3609 -0.1521
11073TIP3    H254711   1.154   0.318  11.352 -1.2676  1.5029 -0.0880
11074TIP3   OH254712   6.671   0.355   1.366 -0.1215  0.0953  0.3683
11074TIP3    H154713   6.618   0.373   1.288 -0.8179 -0.5839  0.6816
11074TIP3    H254714   6.627   0.401   1.437  1.3869  2.0376  0.1036
11075TIP3   OH254715   4.178   3.601   0.390 -0.4664 -0.1013 -0.5883
11075TIP3    H154716   4.112   3.666   0.416  0.9067  1.4868 -0.9444
11075TIP3    H254717   4.135   3.546   0.325 -1.0971  1.6311 -1.6686
11076TIP3   OH254718   6.672   6.213   2.087  0.2844 -0.6039  0.0094
11076TIP3    H154719   6.651   6.175   2.002 -1.8089  0.2598  0.1216
11076TIP3    H254720   6.652   6.143   2.150 -1.9497  0.0816  0.0843
11077TIP3   OH254721   3.603   3.595  13.399  0.3184  0.3286  0.2056
11077TIP3    H154722   3.516   3.633  13.414  0.7978  1.3584  0.4096
11077TIP3    H254723   3.599   3.561  13.310 -0.6588 -0.6436  0.6048
11078TIP3   OH254724   2.959   6.719   4.514 -0.2572  0.2014  0.0427
11078TIP3    H154725   2.869   6.738   4.487 -0.8103 -0.0699  1.6394
11078TIP3    H254726   3.009   6.795   4.485 -1.3795  1.3257  0.9953
11079TIP3   OH254727   5.532   3.831   0.572  0.2029 -0.1485  0.2954
11079TIP3    H154728   5.490   3.783   0.501 -1.7051  1.7342  0.1112
11079TIP3    H254729   5.559   3.914   0.533 -0.4279  0.7103  1.6393
11080TIP3   OH254730   3.514   5.743  10.678 -0.7837 -0.0402 -0.2398
11080TIP3    H154731   3.579   5.767  10.745 -1.2111  1.6674 -0.4103
11080TIP3    H254732   3.543   5.658  10.646 -0.7702 -1.0892  2.3951
11081TIP3   OH254733   6.630   6.019  11.030 -0.5133 -0.7944 -0.0227
11081TIP3    H154734   6.670   5.988  10.949  0.7879 -2.7195  1.3128
11081TIP3    H254735   6.704   6.040  11.087 -1.3607 -3.3908  2.1202
11082TIP3   OH254736   0.208   2.863  11.334 -0.5820  0.3478 -0.1136
11082TIP3    H154737   0.273   2.861  11.263  0.8557  0.9037  1.1526
11082TIP3    H254738   0.139   2.803  11.305  0.3219  0.0191 -1.6570
11083TIP3   OH254739   1.101   0.529   1.213 -0.1617  0.2578 -0.0291
11083TIP3    H154740   1.118   0.444   1.173  1.1617  0.0828  0.8645
11083TIP3    H254741   1.068   0.583   1.141 -1.1018 -1.0159 -0.5914
11084TIP3   OH254742   5.612   0.121  13.915  0.1713 -0.0486  0.6492
11084TIP3    H154743   5.618   0.212  13.945 -0.6734  0.0627  0.5041
11084TIP3    H254744   5.633   0.126  13.822 -1.8388  0.3093  0.1865
11085TIP3   OH254745   1.731   4.232   3.448  0.1699  0.0440 -0.3764
11085TIP3    H154746   1.736   4.243   3.543  1.1037 -0.2047 -0.3897
11085TIP3    H254747   1.710   4.319   3.414  0.9900  0.3787 -0.0232
11086TIP3   OH254748   4.346   6.117   3.120 -0.2511 -0.2369  0.1889
11086TIP3    H154749   4.321   6.160   3.039  0.0649 -0.5103 -0.0519
11086TIP3    H254750   4.411   6.052   3.094 -0.2590 -0.4248  0.6385
11087TIP3   OH254751   0.831   1.433   1.749 -0.1246 -0.0246  0.0954
11087TIP3    H154752   0.777   1.510   1.729 -0.3072 -0.1253  0.2051
11087TIP3    H254753   0.908   1.469   1.793  0.0364  0.1494 -0.3231
11088TIP3   OH254754   4.925   6.660   2.814  0.1945 -0.6627 -0.1001
11088TIP3    H154755   4.962   6.617   2.891  0.9094 -0.3868 -0.2890
11088TIP3    H254756   4.957   6.749   2.818  0.7736 -0.8173 -1.0743
11089TIP3   OH254757   4.850   1.845   5.932 -0.2866 -0.9177  0.4134
11089TIP3    H154758   4.846   1.751   5.945 -0.1084 -1.0575 -0.5092
11089TIP3    H254759   4.877   1.880   6.017 -1.5632 -1.5888  1.1179
11090TIP3   OH254760   5.200   1.780   3.088  0.9153  0.4491  0.1934
11090TIP3    H154761   5.173   1.734   3.167 -0.9934  1.7879  0.3666
11090TIP3    H254762   5.178   1.721   3.016 -1.4649  1.0426  0.4101
11091TIP3   OH254763   5.749   3.117  15.205 -0.0681 -0.5108  0.0649
11091TIP3    H154764   5.830   3.069  15.221  1.4806  2.0062  0.0320
11091TIP3    H254765   5.771   3.208  15.224 -3.2700  0.0730  1.3682
11092TIP3   OH254766   2.318   2.015  10.274  0.0581 -0.2145  0.1676
11092TIP3    H154767   2.405   2.015  10.315 -0.5722 -1.7082  1.5636
11092TIP3    H254768   2.318   1.937  10.218 -0.0599  0.2994 -0.5479
11093TIP3   OH254769   5.519   1.076   3.122  0.1181  0.2221 -0.1151
11093TIP3    H154770   5.549   1.074   3.031 -0.0297 -0.3052 -0.1515
11093TIP3    H254771   5.479   0.991   3.136 -0.7668  0.6757  0.1402
11094TIP3   OH254772   2.172   6.723  14.956  0.2027  0.1515  0.0549
11094TIP3    H154773   2.088   6.737  14.998 -0.2528 -0.4575 -0.6353
11094TIP3    H254774   2.151   6.678  14.874  1.3841 -2.4424  1.0904
11095TIP3   OH254775   3.915   5.678  15.083 -0.4635  0.1571  0.0426
11095TIP3    H154776   3.871   5.670  14.998  2.5042  1.4284 -1.7124
11095TIP3    H254777   3.871   5.751  15.126  0.8265  2.3769 -2.2921
11096TIP3   OH254778   5.096   4.677  12.183 -0.2007  0.2409 -0.5719
11096TIP3    H154779   5.129   4.745  12.241  0.9469  0.0957 -1.0375
11096TIP3    H254780   5.162   4.670  12.114 -0.4367 -1.1675 -0.6743
11097TIP3   OH254781   2.324   5.182  15.667  0.2122 -0.2834  0.4223
11097TIP3    H154782   2.416   5.194  15.689  0.1881 -0.9098  0.8941
11097TIP3    H254783   2.315   5.088  15.654 -0.0833 -0.0730 -0.9093
11098TIP3   OH254784   1.789   0.722  14.461  0.0459  0.2454  0.0207
11098TIP3    H154785   1.856   0.767  14.410 -0.6448  1.5551  0.2461
11098TIP3    H254786   1.711   0.723  14.405  0.1785 -1.1855 -0.2061
11099TIP3   OH254787   6.528   0.427   1.122 -0.1441 -0.7547  0.2816
11099TIP3    H154788   6.448   0.423   1.175  0.2076  1.2585  0.9730
11099TIP3    H254789   6.506   0.487   1.051  0.5105 -0.8074  0.0337
11100TIP3   OH254790   1.373   6.179  11.783 -0.3926  0.4116  0.7112
11100TIP3    H154791   1.440   6.140  11.839 -1.9651 -3.5129  0.0075
11100TIP3    H254792   1.304   6.207  11.843  0.1063  0.7609  1.1209
11101TIP3   OH254793   1.233   4.609  15.343 -0.2110 -0.4298  0.0591
11101TIP3    H154794   1.274   4.603  15.256 -1.1797 -1.2201 -0.3495
11101TIP3    H254795   1.197   4.697  15.346  2.2822  0.6217  0.7832
11102TIP3   OH254796   2.080   2.197   0.527  0.1636  0.0784 -0.5456
11102TIP3    H154797   2.175   2.209   0.528 -0.0051  1.4374 -1.1122
11102TIP3    H254798   2.053   2.218   0.438 -0.6795 -0.2540 -0.3769
11103TIP3   OH254799   0.679   6.786   5.486  0.8249 -0.3919  0.7550
11103TIP3    H154800   0.604   6.729   5.471 -0.6479  1.2279  1.7925
11103TIP3    H254801   0.662   6.863   5.431  0.1336  1.3700  3.3679
11104TIP3   OH254802   3.049   2.472  15.691  0.1607  0.0104 -0.2053
11104TIP3    H154803   3.006   2.472  15.776  0.7186 -0.8356  0.0859
11104TIP3    H254804   3.137   2.505  15.708  0.7580 -1.5414 -0.1818
11105TIP3   OH254805   1.981   5.279  14.365  0.4746  0.0035 -0.0425
11105TIP3    H154806   1.925   5.307  14.438  1.2376  0.2838  0.4451
11105TIP3    H254807   2.053   5.233  14.408  0.6263 -0.3350 -0.6666
11106TIP3   OH254808   0.012   1.770   5.030 -0.1084 -0.3550 -0.3414
11106TIP3    H154809  -0.012   1.712   4.957 -1.3689 -1.2184  0.7417
11106TIP3    H254810   0.055   1.713   5.093  1.5233  0.5046 -0.6441
11107TIP3   OH254811   0.350   3.839   3.722 -0.0460  0.2112 -0.1816
11107TIP3    H154812   0.339   3.903   3.792 -0.1516  0.5559 -0.5136
11107TIP3    H254813   0.407   3.772   3.760 -1.4674 -0.4624  0.8100
11108TIP3   OH254814   0.753   3.455  16.984  0.5034 -0.6578  0.3689
11108TIP3    H154815   0.682   3.487  16.928  0.8808 -3.1893 -1.5922
11108TIP3    H254816   0.726   3.480  17.073 -2.0489 -0.1511 -0.5132
11109TIP3   OH254817   0.537   6.496   1.743  0.1817  0.5006  0.1912
11109TIP3    H154818   0.475   6.463   1.678  0.3376 -0.0768  0.3251
11109TIP3    H254819   0.561   6.583   1.713  0.9262 -0.1057 -1.0039
11110TIP3   OH254820   3.547   3.487   6.552  0.2195 -0.2233 -0.2650
11110TIP3    H154821   3.459   3.465   6.524 -0.8153  2.6012  0.6297
11110TIP3    H254822   3.547   3.582   6.561  3.4657 -0.1198 -0.5869
11111TIP3   OH254823   2.584   6.030  10.822  0.2085  0.1097 -0.4981
11111TIP3    H154824   2.564   6.098  10.757  1.6401  0.9832 -0.0336
11111TIP3    H254825   2.534   5.954  10.792  1.1747  0.3604 -2.8814
11112TIP3   OH254826   3.988   1.135  15.983  0.2553 -0.4517  0.0896
11112TIP3    H154827   4.076   1.152  16.016  1.0525 -2.4863 -0.8654
11112TIP3    H254828   4.003   1.093  15.898 -1.6709  0.9335 -0.9688
11113TIP3   OH254829   1.203   2.786   2.499  0.1100 -0.4679  0.0799
11113TIP3    H154830   1.172   2.853   2.560 -0.0456 -1.1905  0.7988
11113TIP3    H254831   1.135   2.719   2.500  1.2093 -1.5790  0.8812
11114TIP3   OH254832   1.535   1.747   5.510 -0.5383 -0.1352 -0.7024
11114TIP3    H154833   1.584   1.698   5.444  1.0705  1.5211 -0.7918
11114TIP3    H254834   1.596   1.815   5.539 -1.6664 -0.0424  1.5652
11115TIP3   OH254835   5.929   1.112   3.209  0.1032  0.2199 -0.4732
11115TIP3    H154836   5.917   1.205   3.230 -0.6190 -0.2466  1.2907
11115TIP3    H254837   6.009   1.087   3.255 -1.3458 -0.7482  1.6361
11116TIP3   OH254838   3.904   2.653   2.864  0.2482  0.2302  0.6855
11116TIP3    H154839   3.823   2.663   2.814  0.9595 -1.6255 -0.9174
11116TIP3    H254840   3.876   2.638   2.954 -1.3224 -3.0996 -0.2970
11117TIP3   OH254841   2.566   0.076   5.519  0.1100 -0.4517 -0.0460
11117TIP3    H154842   2.530   0.079   5.608 -1.1109 -1.7171 -0.4741
11117TIP3    H254843   2.496   0.113   5.465  1.5231  1.9262 -0.2932
11118TIP3   OH254844   0.159   1.414  10.622  0.5406  0.0526 -0.0671
11118TIP3    H154845   0.090   1.463  10.666  0.3955 -0.8571  0.7406
11118TIP3    H254846   0.161   1.449  10.533 -0.5486  0.4989  0.0848
11119TIP3   OH254847   1.039   6.780   1.982 -0.4326  0.0254 -0.1892
11119TIP3    H154848   1.047   6.875   1.992 -1.2025  0.2798 -1.8087
11119TIP3    H254849   0.952   6.767   1.946 -1.3978 -1.5247  2.5472
11120TIP3   OH254850   2.795   2.677  15.827 -0.0279 -0.5315  0.2035
11120TIP3    H154851   2.828   2.588  15.839 -0.0466 -0.6721 -0.8182
11120TIP3    H254852   2.769   2.704  15.915  1.7945 -0.8133  0.8594
11121TIP3   OH254853   2.085   1.443  12.353  0.2299 -0.2903  0.4524
11121TIP3    H154854   2.033   1.523  12.354 -0.4000 -0.6521 -1.7230
11121TIP3    H254855   2.174   1.473  12.335 -0.1477 -0.1295 -1.2268
11122TIP3   OH254856   6.390   5.617  13.708  0.3200 -0.3328  0.4106
11122TIP3    H154857   6.408   5.687  13.771 -1.4677  0.1868  0.3955
11122TIP3    H254858   6.444   5.638  13.632 -0.2090  1.0702  0.3972
11123TIP3   OH254859   3.095   5.768  11.070 -0.3179  0.0380 -0.3251
11123TIP3    H154860   3.180   5.732  11.048 -0.1360  0.5512 -0.4610
11123TIP3    H254861   3.037   5.692  11.074  0.0221 -0.2467 -0.8099
11124TIP3   OH254862   0.000   4.340  11.820 -0.3865  0.2269  0.2390
11124TIP3    H154863   0.022   4.246  11.817  0.8396  0.5263 -0.6484
11124TIP3    H254864   0.061   4.376  11.884 -0.2294  0.5695 -0.1003
11125TIP3   OH254865   0.916   4.653  12.344 -0.6417  0.2213  0.4512
11125TIP3    H154866   0.959   4.568  12.355 -2.4109 -0.4847  2.0934
11125TIP3    H254867   0.943   4.704  12.421 -0.2858  0.8725 -0.0937
11126TIP3   OH254868   5.054   2.494  13.737  0.1111 -0.5889  0.0889
11126TIP3    H154869   5.037   2.551  13.812  0.1540 -1.8982  1.0910
11126TIP3    H254870   5.146   2.470  13.745 -0.0519 -1.2556 -0.0182
11127TIP3   OH254871   6.532   1.486   5.559 -0.2358 -0.0334  0.1793
11127TIP3    H154872   6.573   1.413   5.607 -0.3349  0.7637  1.5175
11127TIP3    H254873   6.566   1.565   5.602 -1.0400  0.6903 -0.4901
11128TIP3   OH254874   3.528   3.924  10.729 -0.1664  0.3379 -0.1212
11128TIP3    H154875   3.547   3.984  10.657 -0.6161  1.5948  0.7727
11128TIP3    H254876   3.465   3.972  10.783 -0.1540 -0.7555  0.8721
11129TIP3   OH254877   2.058   3.589   2.203  0.1118 -0.0125 -0.1274
11129TIP3    H154878   2.112   3.529   2.254  1.2069  0.5378 -0.6062
11129TIP3    H254879   2.091   3.581   2.113 -0.6415  0.2942 -0.4369
11130TIP3   OH254880   3.646   2.327   3.382 -0.3027 -0.3566  0.6770
11130TIP3    H154881   3.660   2.276   3.461 -0.1328 -1.6987 -0.1990
11130TIP3    H254882   3.728   2.375   3.369 -0.5010  0.2178  1.5603
11131TIP3   OH254883   5.295   0.354  13.634 -0.3412  0.1299  0.2079
11131TIP3    H154884   5.314   0.408  13.557 -0.6348 -2.1672 -1.5650
11131TIP3    H254885   5.356   0.280  13.626 -0.8484 -0.4714  1.8054
11132TIP3   OH254886   1.663   1.562  15.715 -0.3414  0.4016  0.1722
11132TIP3    H154887   1.571   1.574  15.737 -0.8032  0.5484 -1.7455
11132TIP3    H254888   1.699   1.509  15.787 -1.4547  1.9287  1.8984
11133TIP3   OH254889   2.736   4.935  14.979 -0.6900  0.3967  0.5787
11133TIP3    H154890   2.816   4.987  14.974 -1.0260  1.0208  1.7147
11133TIP3    H254891   2.760   4.851  14.939  1.2061 -0.2590  2.9601
11134TIP3   OH254892   1.966   3.902  13.404 -0.1722  0.3442 -0.0785
11134TIP3    H154893   1.996   3.967  13.341  0.0648 -0.0956 -0.4202
11134TIP3    H254894   1.903   3.949  13.459 -0.3261  0.7488 -0.5958
11135TIP3   OH254895   3.386   3.451   3.571  0.3340 -0.0726 -0.3503
11135TIP3    H154896   3.361   3.397   3.646 -0.7568 -0.4821 -0.9957
11135TIP3    H254897   3.407   3.388   3.502  0.6882  0.3160 -0.6054
11136TIP3   OH254898   1.951   6.020   3.064 -0.4732 -0.3008  0.3268
11136TIP3    H154899   1.910   6.034   3.149  0.2645  1.0298  0.4863
11136TIP3    H254900   1.889   6.057   3.001 -0.8920 -1.0318  0.3080
11137TIP3   OH254901   6.251   6.578  13.270  0.0438  0.7841  1.5020
11137TIP3    H154902   6.298   6.631  13.334  0.2270 -0.4893  2.4499
11137TIP3    H254903   6.164   6.567  13.307  0.0901  0.2044  1.4517
11138TIP3   OH254904   3.561   1.698  14.068 -0.0070  0.0997 -0.2349
11138TIP3    H154905   3.551   1.767  14.134 -0.2714 -0.0596 -0.1039
11138TIP3    H254906   3.493   1.634  14.091 -0.6925  0.4644 -1.1915
11139TIP3   OH254907   2.175   3.231   0.629  0.3873  0.2895  0.6230
11139TIP3    H154908   2.102   3.186   0.670  0.9408  1.2559  2.7279
11139TIP3    H254909   2.237   3.162   0.606 -0.6175 -0.4059 -0.0491
11140TIP3   OH254910   4.423   4.170   6.182  0.0704 -0.6896 -0.1534
11140TIP3    H154911   4.513   4.172   6.215 -0.4013  1.5908  1.1051
11140TIP3    H254912   4.369   4.176   6.261 -1.1495  0.0680 -1.0302
11141TIP3   OH254913   0.874   0.209  15.218  0.2726  0.2767 -0.2856
11141TIP3    H154914   0.959   0.182  15.184  0.4403  1.0547 -0.4945
11141TIP3    H254915   0.814   0.141  15.188  0.0612  1.9672 -3.9139
11142TIP3   OH254916   6.250   5.562   5.383  0.2073  0.0268  0.1241
11142TIP3    H154917   6.222   5.569   5.292  2.5946  1.4000 -0.5523
11142TIP3    H254918   6.308   5.485   5.384  3.3202  2.2479 -0.4487
11143TIP3   OH254919   4.840   1.115  12.463 -0.2911 -0.1019  0.0240
11143TIP3    H154920   4.922   1.075  12.435  0.4181 -0.3422  2.3247
11143TIP3    H254921   4.808   1.058  12.533 -2.7148 -0.3079 -1.1943
11144TIP3   OH254922   0.928   2.078  14.027 -0.1444 -0.2479  0.1391
11144TIP3    H154923   0.876   2.108  14.102  0.8553  2.4772 -0.1847
11144TIP3    H254924   0.874   2.098  13.951  1.3047  2.6377 -0.2011
11145TIP3   OH254925   3.642   6.466   0.740  0.6877 -0.2916  0.0008
11145TIP3    H154926   3.735   6.442   0.736  1.1321  1.3028  0.2630
11145TIP3    H254927   3.613   6.462   0.649  1.5262  1.0588 -0.3495
11146TIP3   OH254928   2.555   6.089   0.860  0.1778  0.1284 -0.1575
11146TIP3    H154929   2.609   6.095   0.939 -1.2011  0.4877  0.7871
11146TIP3    H254930   2.616   6.068   0.790  1.7050  1.5711  0.6968
11147TIP3   OH254931   6.773   2.085   4.256  0.6405 -0.1579  0.1146
11147TIP3    H154932   6.818   2.166   4.233 -0.7127  0.2717 -1.1117
11147TIP3    H254933   6.680   2.109   4.258  0.1908 -1.7592 -0.6739
11148TIP3   OH254934   4.785   6.133  10.491 -0.1497 -0.2108 -0.5850
11148TIP3    H154935   4.713   6.195  10.499 -1.0211 -1.5101  2.2787
11148TIP3    H254936   4.862   6.181  10.521 -0.4822  0.0399 -0.1431
11149TIP3   OH254937   6.159   1.437  12.684 -0.3086  0.4644 -0.4525
11149TIP3    H154938   6.176   1.520  12.640  0.2631 -0.3731 -1.8319
11149TIP3    H254939   6.236   1.384  12.666 -1.3446 -0.9152 -0.9159
11150TIP3   OH254940   0.186   3.623  11.332  0.1090  0.2478  0.2524
11150TIP3    H154941   0.277   3.617  11.359  0.8208  1.9471 -1.6161
11150TIP3    H254942   0.149   3.537  11.352  2.1386 -0.5126  0.8894
11151TIP3   OH254943   3.070   0.473   3.722 -0.4207  0.2341  0.4739
11151TIP3    H154944   3.029   0.534   3.784 -1.4186 -0.2622  0.3033
11151TIP3    H254945   3.051   0.510   3.636  0.4531  0.6025  0.4392
11152TIP3   OH254946   6.784   4.463   1.444  0.3104 -0.6951 -0.1997
11152TIP3    H154947   6.691   4.455   1.422 -0.1138  0.4021  1.1408
11152TIP3    H254948   6.829   4.461   1.359 -0.8276 -2.3840 -0.8069
11153TIP3   OH254949   1.871   0.325   4.704 -0.4627 -0.3283  0.3299
11153TIP3    H154950   1.921   0.395   4.663 -0.1998 -1.7560 -1.9160
11153TIP3    H254951   1.794   0.368   4.741  0.9102  1.4564  1.1286
11154TIP3   OH254952   4.669   3.484  10.536 -0.5640 -0.5616  0.0626
11154TIP3    H154953   4.689   3.539  10.460 -1.5386  1.2459  1.0950
11154TIP3    H254954   4.728   3.516  10.605 -1.3907 -0.5548  0.7731
11155TIP3   OH254955   5.007   3.926  12.227  0.0830 -0.5426  0.0980
11155TIP3    H154956   4.929   3.933  12.172  0.3451  1.3711 -0.0447
11155TIP3    H254957   5.079   3.908  12.165  0.3190  1.2468 -0.1620
11156TIP3   OH254958   1.678   6.042   5.900  0.2058  0.6973 -0.0461
11156TIP3    H154959   1.659   6.111   5.963 -0.8372 -0.6557  1.1619
11156TIP3    H254960   1.596   6.027   5.854 -0.0909 -0.9784  0.9759
11157TIP3   OH254961   3.674   5.932   4.363  0.7520 -0.1072 -0.0501
11157TIP3    H154962   3.769   5.923   4.359  0.7395  0.3684 -1.8069
11157TIP3    H254963   3.657   6.023   4.341 -0.2797 -1.0182 -3.2803
11158TIP3   OH254964   0.253   0.861   0.800  0.4191 -0.1571 -0.0644
11158TIP3    H154965   0.163   0.891   0.816  0.4252 -0.0994 -0.1413
11158TIP3    H254966   0.265   0.788   0.861  0.1261 -0.5407 -0.4613
11159TIP3   OH254967   1.638   4.771  13.514  0.0146  0.4586 -0.2070
11159TIP3    H154968   1.592   4.756  13.597  0.3168  1.0038  0.0597
11159TIP3    H254969   1.568   4.787  13.451 -0.1805  0.9106  0.1211
11160TIP3   OH254970   4.270   6.580  14.108 -1.0040  0.2027  0.2096
11160TIP3    H154971   4.320   6.602  14.029 -0.3979  1.8640  1.0310
11160TIP3    H254972   4.205   6.516  14.079 -0.1196  0.0360 -1.4229
11161TIP3   OH254973   5.677   4.447   3.498 -0.6321  0.5918 -0.5601
11161TIP3    H154974   5.608   4.514   3.492 -2.4539 -1.0753  1.0468
11161TIP3    H254975   5.658   4.401   3.580  1.9594 -0.4145 -0.4945
11162TIP3   OH254976   6.374   6.476  14.226 -0.6169  0.1368 -0.0874
11162TIP3    H154977   6.430   6.433  14.291 -1.0740  0.3707  0.4723
11162TIP3    H254978   6.434   6.525  14.170 -0.1430 -0.7699 -0.3723
11163TIP3   OH254979   2.236   5.329   1.923  0.1678 -0.4437  0.4256
11163TIP3    H154980   2.286   5.254   1.890 -0.3685 -0.3402 -0.6413
11163TIP3    H254981   2.148   5.295   1.936 -0.3218  0.2321 -1.0081
11164TIP3   OH254982   3.599   1.359   2.045  0.1064  0.0566 -0.0636
11164TIP3    H154983   3.556   1.282   2.082  0.6123 -0.5980 -0.8035
11164TIP3    H254984   3.528   1.416   2.018 -0.2660  0.0964  1.0125
11165TIP3   OH254985   5.990   3.277   3.265  0.6225 -0.3865  0.5851
11165TIP3    H154986   5.990   3.361   3.310 -1.3120  0.4353 -0.8402
11165TIP3    H254987   5.981   3.299   3.172 -1.7693 -2.1654  0.3116
11166TIP3   OH254988   6.006   0.906   1.692  0.2664  0.1874 -0.3649
11166TIP3    H154989   5.953   0.985   1.694 -0.3585 -0.1853 -1.4782
11166TIP3    H254990   6.082   0.926   1.746  0.3683  1.7206 -1.0531
11167TIP3   OH254991   3.473   3.699  14.460  0.0962 -0.0937  0.1173
11167TIP3    H154992   3.418   3.749  14.399 -1.0641 -1.9848 -0.4249
11167TIP3    H254993   3.455   3.738  14.545 -1.7764 -0.3995 -0.1146
11168TIP3   OH254994   3.401   1.594  15.489 -0.1973 -0.0057 -0.1981
11168TIP3    H154995   3.381   1.644  15.569 -0.9302  0.8581 -0.9018
11168TIP3    H254996   3.451   1.519  15.520 -3.2008 -1.4140  1.4772
11169TIP3   OH254997   4.910   1.289   1.588 -0.8144  0.1714  0.3876
11169TIP3    H154998   4.901   1.223   1.656  0.8293  1.5401  1.9734
11169TIP3    H254999   4.864   1.252   1.512  1.2582 -3.4142  0.7845
11170TIP3   OH255000   6.294   4.059  10.596 -0.1800  0.0100  0.0753
11170TIP3    H155001   6.254   4.064  10.509  0.1470  1.2806 -0.0140
11170TIP3    H255002   6.322   4.149  10.615 -1.2194 -0.0368  1.9513
11171TIP3   OH255003   1.333   1.565   0.727  0.1625 -0.4465  0.0324
11171TIP3    H155004   1.394   1.518   0.670 -0.1083 -0.6250 -0.1143
11171TIP3    H255005   1.352   1.532   0.815  1.9385  1.2706  0.3373
11172TIP3   OH255006   1.419   0.733   2.505  0.4643 -0.2520  0.2196
11172TIP3    H155007   1.457   0.691   2.582 -0.2345  1.1087  1.3412
11172TIP3    H255008   1.378   0.662   2.456 -0.5133 -0.9233  1.9588
11173TIP3   OH255009   3.185   3.044  12.523 -0.6345 -0.1333  0.1375
11173TIP3    H155010   3.252   3.110  12.505 -0.6503  0.0804  0.8269
11173TIP3    H255011   3.103   3.084  12.492 -0.9578  1.0296  2.3891
11174TIP3   OH255012   3.774   4.370  13.753  0.3248 -0.8099  0.0329
11174TIP3    H155013   3.724   4.442  13.791  0.2149 -0.2799 -1.0780
11174TIP3    H255014   3.865   4.388  13.776  0.3299 -0.1528 -0.4709
11175TIP3   OH255015   1.453   0.230  16.313 -0.3419  0.5276 -0.3836
11175TIP3    H155016   1.517   0.236  16.384  0.4115  2.0059 -1.1655
11175TIP3    H255017   1.461   0.313  16.267 -0.7812 -0.4412 -2.2414
11176TIP3   OH255018   3.211   3.156   5.358 -0.3449  0.0105  0.5061
11176TIP3    H155019   3.160   3.211   5.419 -0.8460  0.2391 -0.1143
11176TIP3    H255020   3.196   3.195   5.272  1.3556  0.4349  0.3796
11177TIP3   OH255021   0.510   4.668  14.379  0.1427  0.5273 -0.2001
11177TIP3    H155022   0.547   4.596  14.329  1.4920  2.0658 -1.4646
11177TIP3    H255023   0.449   4.711  14.319 -1.4992 -0.1903  0.9030
11178TIP3   OH255024   4.483   1.455  16.400  0.1076  0.5949  0.2623
11178TIP3    H155025   4.497   1.549  16.410  2.5573  0.3329 -0.3852
11178TIP3    H255026   4.566   1.415  16.425 -0.5719 -1.3421 -0.4500
11179TIP3   OH255027   1.968   5.651   5.512 -0.6418  0.1880 -0.6207
11179TIP3    H155028   1.950   5.628   5.603  0.8185 -0.1063 -0.4009
11179TIP3    H255029   1.889   5.696   5.483 -1.5061 -0.5868  0.4910
11180TIP3   OH255030   6.507   0.847   3.318  0.1243  0.0126 -0.3882
11180TIP3    H155031   6.510   0.779   3.250  0.7161 -0.9480  0.5761
11180TIP3    H255032   6.584   0.829   3.372 -1.1580 -0.1609  1.4117
11181TIP3   OH255033   5.946   2.995  11.009  0.0331 -0.0993 -0.3953
11181TIP3    H155034   5.858   3.020  11.038  0.4662  0.0872  0.7729
11181TIP3    H255035   5.932   2.915  10.958 -0.8310  0.0427 -0.4011
11182TIP3   OH255036   2.059   4.804   1.460  0.5751  0.3220 -0.0638
11182TIP3    H155037   2.076   4.709   1.465 -0.5821  0.1265  0.2334
11182TIP3    H255038   2.116   4.842   1.527  0.8331 -0.1915  0.0113
11183TIP3   OH255039   0.144   6.152   1.988  0.6285  0.0535  0.2901
11183TIP3    H155040   0.209   6.153   2.058  0.8228 -0.4948  0.1160
11183TIP3    H255041   0.082   6.221   2.012  0.9996  0.2422  0.7107
11184TIP3   OH255042   4.918   2.209   2.500  0.3466  0.1252 -0.6754
11184TIP3    H155043   4.993   2.264   2.475  1.3569 -0.3211  1.3065
11184TIP3    H255044   4.863   2.267   2.552  1.2369 -0.6241  1.1171
11185TIP3   OH255045   5.022   3.233   4.136 -0.4891  0.1084 -0.1888
11185TIP3    H155046   5.040   3.288   4.060  0.1470 -0.8223 -0.7223
11185TIP3    H255047   4.966   3.163   4.103  0.5168 -0.8032 -0.0123
11186TIP3   OH255048   0.666   2.252  16.464  0.5333 -0.0023  0.2515
11186TIP3    H155049   0.686   2.271  16.373 -1.7133  1.9966  0.1153
11186TIP3    H255050   0.693   2.331  16.511 -1.7561  0.5175  0.7669
11187TIP3   OH255051   2.463   2.044   0.991 -0.1033 -0.0959  0.0983
11187TIP3    H155052   2.456   1.949   1.001  1.3438 -0.4198 -1.5618
11187TIP3    H255053   2.372   2.074   0.980 -0.5022 -1.4057 -0.2690
11188TIP3   OH255054   4.863   3.955  16.847  0.0103 -0.0828 -0.1346
11188TIP3    H155055   4.889   3.896  16.918 -0.5877 -0.4927 -0.2516
11188TIP3    H255056   4.898   4.040  16.873 -0.2401 -0.2194  0.6813
11189TIP3   OH255057   0.947   2.879   1.159  0.0501 -0.2612 -0.1141
11189TIP3    H155058   1.024   2.905   1.210 -0.8682  0.8593  0.7316
11189TIP3    H255059   0.983   2.837   1.081  1.4843 -1.4419  1.1503
11190TIP3   OH255060   4.432   3.625  14.760 -0.5320  0.2381 -0.0287
11190TIP3    H155061   4.423   3.550  14.701  0.3347  0.3051 -0.2524
11190TIP3    H255062   4.426   3.702  14.703  0.1109  0.3055 -0.0143
11191TIP3   OH255063   1.522   3.400   0.717  0.2652 -0.3585  0.1505
11191TIP3    H155064   1.595   3.395   0.656  0.5945 -2.2514  0.6738
11191TIP3    H255065   1.549   3.348   0.792 -0.7433  0.7166  1.2959
11192TIP3   OH255066   6.021   0.436  15.922  0.6428  0.4080  0.1735
11192TIP3    H155067   6.034   0.506  15.858  0.7231 -1.4519 -1.9008
11192TIP3    H255068   6.099   0.440  15.978  0.4308  2.2285  0.3891
11193TIP3   OH255069   1.876   1.061   2.403  0.3506 -0.6485  0.2861
11193TIP3    H155070   1.788   1.031   2.427  0.4725 -2.1277 -0.9958
11193TIP3    H255071   1.862   1.145   2.360 -0.6137 -1.4728 -1.0763
11194TIP3   OH255072   0.245   6.589  11.744  0.4592 -1.0852 -0.9123
11194TIP3    H155073   0.298   6.659  11.705 -1.4794  0.7841 -0.3167
11194TIP3    H255074   0.220   6.533  11.671 -0.1828  0.3597 -1.8084
11195TIP3   OH255075   4.180   1.162  15.063 -0.1997  0.3961 -0.3097
11195TIP3    H155076   4.206   1.193  14.976  0.1451  1.8235  0.2757
11195TIP3    H255077   4.128   1.234  15.099  1.1081  0.5566  1.3274
11196TIP3   OH255078   5.380   6.072  14.905  0.1198 -0.2943  0.1085
11196TIP3    H155079   5.292   6.079  14.869  0.9317  2.1794 -1.5132
11196TIP3    H255080   5.367   6.060  14.999 -1.9595 -2.9226 -0.4547
11197TIP3   OH255081   4.615   1.590   1.056 -0.4257 -0.6382 -0.6760
11197TIP3    H155082   4.668   1.650   1.108  2.4017 -0.9516 -3.0419
11197TIP3    H255083   4.526   1.625   1.061  0.4208  1.2894  1.4527
11198TIP3   OH255084   2.601   6.548   0.410 -0.4514 -0.4246 -0.4254
11198TIP3    H155085   2.638   6.636   0.411 -2.6972  0.5322  1.0014
11198TIP3    H255086   2.673   6.491   0.437  0.1175  1.3498  1.8856
11199TIP3   OH255087   6.548   1.884   2.461 -0.9157 -0.5785 -0.5018
11199TIP3    H155088   6.640   1.859   2.462 -1.1149 -1.3203 -0.5584
11199TIP3    H255089   6.546   1.967   2.413 -0.1601 -0.0899  0.3089
11200TIP3   OH255090   1.347   4.136   1.452 -0.5934  0.5527 -1.0956
11200TIP3    H155091   1.428   4.095   1.421 -0.3631  1.1160 -1.2533
11200TIP3    H255092   1.357   4.143   1.547 -1.0981 -0.7485 -0.9385
11201TIP3   OH255093   2.640   3.472  10.407  0.1352  0.1124 -0.1908
11201TIP3    H155094   2.547   3.468  10.429  0.0275  0.9883 -0.4869
11201TIP3    H255095   2.684   3.497  10.488  0.0581  0.2839 -0.2050
11202TIP3   OH255096   3.782   2.796   4.659 -0.4092  0.0372  0.4273
11202TIP3    H155097   3.687   2.802   4.648 -0.5606 -0.9301  1.1035
11202TIP3    H255098   3.797   2.813   4.752  0.0041 -0.5053  0.4676
11203TIP3   OH255099   0.786   2.085  15.460 -0.2451  0.0507 -0.1347
11203TIP3    H155100   0.876   2.119  15.461  0.5469 -1.9609  3.6073
11203TIP3    H255101   0.794   1.999  15.417 -0.6456  0.4107 -0.9520
11204TIP3   OH255102   5.021   3.891   0.922 -0.0863 -0.5198  0.5680
11204TIP3    H155103   5.048   3.962   0.981 -1.1195  0.9438 -0.6929
11204TIP3    H255104   4.961   3.838   0.975 -0.4309  0.3602  1.0647
11205TIP3   OH255105   0.625   6.665   6.419  0.0467 -0.4471 -0.4518
11205TIP3    H155106   0.600   6.736   6.360 -1.3169 -1.1035 -0.6727
11205TIP3    H255107   0.680   6.707   6.485 -0.4776  0.7504 -0.7692
11206TIP3   OH255108   0.643   5.368  12.380  0.2696 -0.2055 -0.1036
11206TIP3    H155109   0.670   5.276  12.377  0.2775 -0.2499  0.9536
11206TIP3    H255110   0.685   5.408  12.305  1.8501 -0.6615  0.5170
11207TIP3   OH255111   5.381   2.739   0.082 -0.1466  0.6176 -0.3024
11207TIP3    H155112   5.323   2.745   0.006 -0.6632 -0.0857  0.0306
11207TIP3    H255113   5.426   2.655   0.071  0.4052  0.9035 -0.2673
11208TIP3   OH255114   2.976   6.455  16.142  0.1698  0.2863  0.5125
11208TIP3    H155115   2.967   6.362  16.162 -0.3464  0.2296  0.0412
11208TIP3    H255116   2.949   6.499  16.222 -0.6667  0.0467  0.3656
11209TIP3   OH255117   3.965   1.318  15.132  0.4845  0.4054 -0.6498
11209TIP3    H155118   3.923   1.305  15.217  0.9533  0.4008 -0.4142
11209TIP3    H255119   3.987   1.411  15.130  2.5507 -0.0192  0.2301
11210TIP3   OH255120   4.687   3.797   0.555  0.5404  0.2651 -0.2781
11210TIP3    H155121   4.703   3.703   0.569  0.7618  0.4334  0.6614
11210TIP3    H255122   4.675   3.832   0.643  3.1415  1.6006 -0.3992
11211TIP3   OH255123   0.705   3.412  15.924 -0.4136 -0.2724  0.0028
11211TIP3    H155124   0.672   3.443  16.008  0.6470  1.6219 -0.2481
11211TIP3    H255125   0.670   3.474  15.860 -1.4922 -1.9006 -1.0026
11212TIP3   OH255126   4.716   4.187   0.897 -0.0599 -0.2210 -0.2218
11212TIP3    H155127   4.691   4.265   0.846 -0.3118  0.3336  0.7358
11212TIP3    H255128   4.635   4.137   0.905  0.8234 -2.4361 -3.9321
11213TIP3   OH255129   5.301   4.735  11.980  0.5137 -0.5175  0.2354
11213TIP3    H155130   5.337   4.679  11.911 -0.2252 -0.2293 -0.3913
11213TIP3    H255131   5.377   4.762  12.031  1.0111 -1.1330 -0.1709
11214TIP3   OH255132   4.164   6.620   6.106  0.6234  0.3921  0.0883
11214TIP3    H155133   4.128   6.536   6.079 -0.0592  0.0595  1.9551
11214TIP3    H255134   4.089   6.670   6.136  1.4028  0.4951  1.9619
11215TIP3   OH255135   2.780   3.961  11.926 -0.2182 -0.2976  0.4074
11215TIP3    H155136   2.805   3.887  11.980 -0.1954 -0.2276  0.4931
11215TIP3    H255137   2.685   3.970  11.937 -0.5212 -1.4761 -1.0498
11216TIP3   OH255138   0.328   6.308   0.696 -0.2072  0.2213 -0.0765
11216TIP3    H155139   0.371   6.364   0.760 -0.4419 -2.1211  2.2177
11216TIP3    H255140   0.398   6.254   0.659 -0.5677 -0.8563  0.7860
11217TIP3   OH255141   6.507   1.847   3.250 -0.2098 -0.2843  0.2243
11217TIP3    H155142   6.439   1.877   3.310 -0.3814  1.1610 -0.6437
11217TIP3    H255143   6.459   1.804   3.179 -0.1688  0.0436 -0.0030
11218TIP3   OH255144   4.891   6.553   4.524  0.3875  0.1038  0.4878
11218TIP3    H155145   4.985   6.538   4.515  0.2126 -1.3156  0.9512
11218TIP3    H255146   4.867   6.508   4.605 -0.5617  1.1035  0.7864
11219TIP3   OH255147   4.248   2.818   1.028 -0.2786 -0.0046  0.3820
11219TIP3    H155148   4.276   2.893   1.081 -1.6292  0.2784  0.7104
11219TIP3    H255149   4.230   2.856   0.942 -0.0415 -0.1172  0.2823
11220TIP3   OH255150   5.392   3.974   5.944  0.1848  0.7837  0.0626
11220TIP3    H155151   5.381   3.943   6.034 -0.9320 -1.1337 -0.7007
11220TIP3    H255152   5.309   4.018   5.924  0.3395  0.9980 -0.1101
11221TIP3   OH255153   2.940   0.750  16.128 -0.0674 -0.1413  0.7124
11221TIP3    H155154   2.993   0.760  16.207  0.1474 -2.1439  0.8605
11221TIP3    H255155   2.952   0.658  16.103 -0.8662  0.2336 -1.1234
11222TIP3   OH255156   0.973   6.602  16.596  0.0679  0.3035 -0.0150
11222TIP3    H155157   0.936   6.672  16.541 -0.2179  0.9032  0.9272
11222TIP3    H255158   0.921   6.525  16.575  0.9650  0.1476 -1.7225
11223TIP3   OH255159   5.745   2.439  12.985 -0.0118  0.2228 -0.1638
11223TIP3    H155160   5.694   2.358  12.978 -0.3853  0.3816  0.7187
11223TIP3    H255161   5.682   2.509  12.968  0.2518  0.3501 -0.6373
11224TIP3   OH255162   1.945   1.447  15.397 -0.2743  0.2205 -0.2087
11224TIP3    H155163   2.004   1.377  15.372  0.4447  0.3364  1.0935
11224TIP3    H255164   1.873   1.441  15.335  1.4023  0.4893 -2.2299
11225TIP3   OH255165   3.732   0.819  14.739 -0.4437  0.4272 -0.4025
11225TIP3    H155166   3.791   0.835  14.666 -1.5721 -2.7570 -2.1389
11225TIP3    H255167   3.653   0.870  14.718 -1.5037 -1.9779 -2.4641
11226TIP3   OH255168   0.303   1.728   0.256 -0.5431  0.0755 -0.1820
11226TIP3    H155169   0.284   1.690   0.170 -0.6516  0.9512 -0.5469
11226TIP3    H255170   0.223   1.714   0.307 -0.8721  0.5364 -0.5720
11227TIP3   OH255171   4.281   6.805   1.970 -0.5502 -0.3288 -0.3720
11227TIP3    H155172   4.336   6.882   1.961 -0.4960 -0.4781 -1.4227
11227TIP3    H255173   4.311   6.763   2.050 -0.9947  1.0623  0.5326
11228TIP3   OH255174   4.195   5.612  14.580  0.1287 -0.2153 -0.4859
11228TIP3    H155175   4.114   5.614  14.530 -0.1541 -0.1970 -0.0302
11228TIP3    H255176   4.221   5.704  14.588 -1.9514  0.1655  2.8154
11229TIP3   OH255177   1.047   1.030  13.409  0.3377 -0.3718  0.0021
11229TIP3    H155178   0.965   1.075  13.430  1.8426  1.8052  1.4044
11229TIP3    H255179   1.053   0.959  13.473 -0.2362 -0.2648  0.1784
11230TIP3   OH255180   5.394   3.664   1.957 -0.4118 -0.3615  0.1582
11230TIP3    H155181   5.385   3.599   1.888 -0.9145  0.5982 -0.6899
11230TIP3    H255182   5.482   3.649   1.993 -0.0409 -0.6714 -0.8804
11231TIP3   OH255183   6.418   4.414  15.210  0.3946 -0.0406  0.0273
11231TIP3    H155184   6.419   4.354  15.135 -1.4424 -1.0391  0.7586
11231TIP3    H255185   6.417   4.501  15.171  0.5922 -0.5269 -1.0905
11232TIP3   OH255186   4.949   2.879   4.974 -0.3276 -0.4515 -0.2937
11232TIP3    H155187   4.944   2.851   5.066 -1.0465 -0.5134 -0.3507
11232TIP3    H255188   4.878   2.832   4.931 -0.9982  0.8031 -0.5679
11233TIP3   OH255189   5.400   2.684   6.498 -0.2192  0.3282 -0.4416
11233TIP3    H155190   5.473   2.623   6.504 -0.0346  0.6055  0.1493
11233TIP3    H255191   5.360   2.684   6.585  1.5904  3.2711  0.4620
11234TIP3   OH255192   0.261   2.429  14.939  0.5552 -0.1809 -0.5539
11234TIP3    H155193   0.192   2.409  15.002 -0.6676  0.9495 -1.5094
11234TIP3    H255194   0.339   2.387  14.975  0.2872  1.8956  2.6273
11235TIP3   OH255195   4.749   1.841   2.250  0.1533  0.2781 -0.5714
11235TIP3    H155196   4.819   1.814   2.191  0.2085 -0.7244 -0.0672
11235TIP3    H255197   4.753   1.936   2.251  1.5402  0.2276 -0.5044
11236TIP3   OH255198   0.578   3.589   2.669  0.2388 -0.2957 -0.4002
11236TIP3    H155199   0.621   3.621   2.749 -0.4693 -0.1472 -0.0776
11236TIP3    H255200   0.610   3.646   2.600  0.1496  0.1567 -0.0727
11237TIP3   OH255201   3.039   3.355  13.035 -0.3536 -0.3813  0.0361
11237TIP3    H155202   3.060   3.439  13.077  0.0691  0.4229 -1.7496
11237TIP3    H255203   3.098   3.292  13.076 -0.0790  0.3509  0.7819
11238TIP3   OH255204   1.477   6.244   1.344  0.4257  0.3746  0.4419
11238TIP3    H155205   1.488   6.325   1.393  0.9839  1.0403 -0.7444
11238TIP3    H255206   1.553   6.241   1.286 -0.3061 -0.2969 -0.4970
11239TIP3   OH255207   5.377   4.156   2.972  0.0576 -0.3541  0.9759
11239TIP3    H155208   5.297   4.114   2.942  0.3358  0.3789 -0.8518
11239TIP3    H255209   5.396   4.222   2.905  1.8463 -0.1028  1.7081
11240TIP3   OH255210   1.167   4.404   3.568  0.3987  0.1083 -0.6747
11240TIP3    H155211   1.231   4.333   3.573  1.3080  0.9996  1.2574
11240TIP3    H255212   1.130   4.408   3.657  1.1347  2.7022 -0.4382
11241TIP3   OH255213   5.360   5.691   0.554 -0.0868  0.8892  0.0594
11241TIP3    H155214   5.323   5.627   0.616 -1.1684 -0.2512 -1.7225
11241TIP3    H255215   5.313   5.772   0.574 -2.3277 -0.1103 -0.9630
11242TIP3   OH255216   1.866   0.883   3.134  0.1404 -0.1769 -0.0573
11242TIP3    H155217   1.901   0.865   3.046  1.3831 -2.0744  0.7937
11242TIP3    H255218   1.939   0.924   3.180 -0.6810  1.3003 -0.0535
11243TIP3   OH255219   1.876   2.791  16.471 -0.2536  0.3789 -0.0243
11243TIP3    H155220   1.872   2.883  16.445 -0.4266  0.3778  0.0003
11243TIP3    H255221   1.970   2.774  16.482 -0.3831  1.3889  3.0686
11244TIP3   OH255222   4.639   3.561  13.345 -0.2500 -0.4045 -0.3083
11244TIP3    H155223   4.715   3.515  13.312  0.0879 -0.6080  0.7398
11244TIP3    H255224   4.672   3.647  13.372 -0.0396 -1.0981  1.7385
11245TIP3   OH255225   3.237   0.436   1.512 -0.0888  0.2936 -0.4595
11245TIP3    H155226   3.217   0.512   1.567 -0.8663  0.1992 -0.6208
11245TIP3    H255227   3.157   0.419   1.463  0.2027 -0.4084 -0.6971
11246TIP3   OH255228   5.365   3.449   1.189 -0.2325 -0.1686  0.4330
11246TIP3    H155229   5.352   3.376   1.250 -1.1030  0.9906  1.6740
11246TIP3    H255230   5.415   3.514   1.239  0.4206  0.1472 -0.6098
11247TIP3   OH255231   4.255   1.487   6.101 -0.2281 -0.4276 -0.2853
11247TIP3    H155232   4.342   1.497   6.063 -0.5564 -0.3678 -1.0326
11247TIP3    H255233   4.247   1.394   6.120  0.0395 -0.4159 -0.1207
11248TIP3   OH255234   2.422   6.525   1.072 -0.2911  0.3791 -0.1823
11248TIP3    H155235   2.450   6.496   0.986 -0.1782 -0.1067  0.0178
11248TIP3    H255236   2.501   6.560   1.112 -0.5842  1.6822 -0.7109
11249TIP3   OH255237   6.635   2.579  13.023 -0.4462 -0.3189 -0.5365
11249TIP3    H155238   6.579   2.512  13.062 -1.0928 -1.0386 -2.5962
11249TIP3    H255239   6.575   2.650  13.001 -0.3246 -0.4526 -1.3395
11250TIP3   OH255240   5.453   5.912  12.792  0.0478  0.2014  0.0538
11250TIP3    H155241   5.410   5.836  12.752 -1.3698  0.4325  1.0808
11250TIP3    H255242   5.453   5.978  12.723 -0.8785  0.0459 -0.1094
11251TIP3   OH255243   1.602   2.368   0.737  0.0171  0.7016  0.4968
11251TIP3    H155244   1.643   2.300   0.683 -0.6798 -0.0376  0.8860
11251TIP3    H255245   1.550   2.419   0.674  1.4511  1.5879  0.0207
11252TIP3   OH255246   3.887   5.866   2.565  0.5417 -0.6871  0.8936
11252TIP3    H155247   3.968   5.818   2.549  1.3746  0.8252  0.4154
11252TIP3    H255248   3.823   5.825   2.508  1.9552  0.6240 -1.7572
11253TIP3   OH255249   5.161   6.347   3.581 -0.3142  0.1638 -0.2833
11253TIP3    H155250   5.124   6.404   3.514 -1.5121 -0.5329 -0.2262
11253TIP3    H255251   5.249   6.326   3.549 -0.1100  1.5004 -0.6171
11254TIP3   OH255252   0.504   3.073  15.486 -0.1778 -0.2141 -0.2018
11254TIP3    H155253   0.565   3.065  15.559 -0.4294  0.3391  0.0683
11254TIP3    H255254   0.558   3.096  15.411 -0.3262  2.5108  0.5031
11255TIP3   OH255255   2.713   3.648  12.886 -0.1219 -0.0167  0.0888
11255TIP3    H155256   2.694   3.647  12.980  1.9962  0.0114  0.5438
11255TIP3    H255257   2.709   3.741  12.862  0.0227  0.0448  0.3005
11256TIP3   OH255258   2.135   5.275   0.732  0.0787 -0.2154  0.2410
11256TIP3    H155259   2.225   5.307   0.719 -0.3727  1.1090  0.3851
11256TIP3    H255260   2.085   5.353   0.755 -1.1323 -0.9430  0.0732
11257TIP3   OH255261   4.965   3.784   1.590  0.5869  0.3760 -0.1651
11257TIP3    H155262   5.036   3.829   1.544 -0.1574  0.9439 -0.7814
11257TIP3    H255263   4.885   3.820   1.551 -0.0233 -1.8382 -1.0370
11258TIP3   OH255264   5.730   6.124   4.576  0.1526 -0.3273  0.3990
11258TIP3    H155265   5.756   6.199   4.630 -0.0541 -0.8558  1.2388
11258TIP3    H255266   5.809   6.102   4.526 -0.2375  1.4606 -1.0568
11259TIP3   OH255267   0.755   1.083   1.201 -0.0640  0.0333 -0.1717
11259TIP3    H155268   0.712   1.137   1.136  1.7944 -0.4344 -1.8303
11259TIP3    H255269   0.837   1.129   1.221  0.2099 -0.7286  0.5100
11260TIP3   OH255270   1.393   3.525  13.164 -0.6836  0.1342  0.7817
11260TIP3    H155271   1.311   3.490  13.201 -0.3816 -0.1529  1.1912
11260TIP3    H255272   1.451   3.449  13.161 -0.5524  0.2590  0.1404
11261TIP3   OH255273   6.419   3.401  14.048  0.0804  0.5892 -0.1009
11261TIP3    H155274   6.440   3.315  14.010 -0.3113  0.7753 -0.7483
11261TIP3    H255275   6.447   3.394  14.139 -1.7094 -0.8824  0.3669
11262TIP3   OH255276   1.034   4.004   4.132  0.1582 -0.3830  0.0205
11262TIP3    H155277   0.949   3.975   4.164  0.2331  1.3610  1.8622
11262TIP3    H255278   1.026   4.099   4.124  1.8663 -0.2257  0.0087
11263TIP3   OH255279   5.878   5.766  16.073  0.0445  0.5764 -0.2046
11263TIP3    H155280   5.954   5.794  16.021  0.2438  0.7965  0.1966
11263TIP3    H255281   5.836   5.848  16.099 -0.7691  0.4432 -1.0652
11264TIP3   OH255282   5.567   4.453   0.419 -0.2906  0.0207 -0.1333
11264TIP3    H155283   5.613   4.472   0.501 -1.5403  0.8191  0.4006
11264TIP3    H255284   5.636   4.449   0.353  0.7384 -0.7843  0.9853
11265TIP3   OH255285   6.135   2.141  11.158  0.9557  0.7995 -0.1218
11265TIP3    H155286   6.163   2.232  11.163  2.7613  0.2542 -0.0146
11265TIP3    H255287   6.140   2.109  11.248  1.0534  0.3789 -0.2771
11266TIP3   OH255288   3.053   5.585  13.886  0.2844  0.3662 -0.3252
11266TIP3    H155289   3.001   5.554  13.812  0.5387 -0.2445 -0.2476
11266TIP3    H255290   3.138   5.543  13.875 -0.1285 -0.8672  1.1151
11267TIP3   OH255291   0.968   2.464  13.029  0.2983 -0.3654  0.2741
11267TIP3    H155292   0.930   2.387  13.072 -1.5643  0.8494  0.8071
11267TIP3    H255293   0.974   2.530  13.098  1.9890 -0.0218 -0.1641
11268TIP3   OH255294   6.291   2.928   6.516  0.5566 -0.0648 -0.3996
11268TIP3    H155295   6.213   2.981   6.501  0.8976  0.5209 -0.1003
11268TIP3    H255296   6.350   2.951   6.445 -0.0210 -1.4419 -1.3608
11269TIP3   OH255297   0.092   5.049  16.349 -0.6957  1.0102  0.0159
11269TIP3    H155298   0.026   5.030  16.416 -0.4984  0.3286  0.0215
11269TIP3    H255299   0.068   5.135  16.315 -0.1430  1.8884  1.7727
11270TIP3   OH255300   6.258   0.956  13.812 -0.0424  0.2156  0.1002
11270TIP3    H155301   6.216   0.885  13.764 -0.5873  0.4684  0.1979
11270TIP3    H255302   6.273   1.025  13.747 -1.1214  0.7047  0.3689
11271TIP3   OH255303   3.959   2.561   6.086 -0.3983 -0.4737  0.5787
11271TIP3    H155304   3.944   2.495   6.018 -1.9367  0.8851 -0.4367
11271TIP3    H255305   4.027   2.618   6.051  0.5713 -1.2139  1.2419
11272TIP3   OH255306   1.697   1.505   4.023 -0.1157 -0.2374  0.0709
11272TIP3    H155307   1.716   1.498   3.929 -0.2369  0.4448 -0.0064
11272TIP3    H255308   1.723   1.594   4.046  0.4489 -0.5885  0.8141
11273TIP3   OH255309   6.443   1.807  12.703 -0.0492  0.2727 -0.1704
11273TIP3    H155310   6.496   1.739  12.744 -0.2196  0.6763  0.7241
11273TIP3    H255311   6.506   1.873  12.674  0.0727 -0.0242 -0.5777
11274TIP3   OH255312   3.780   6.529  12.859  0.5075  0.5473  0.2273
11274TIP3    H155313   3.719   6.554  12.789 -0.6357 -0.4506  0.8498
11274TIP3    H255314   3.776   6.434  12.862  2.7317  0.4119 -0.2523
11275TIP3   OH255315   0.794   2.903  16.936 -0.6568 -0.0309  0.1859
11275TIP3    H155316   0.885   2.898  16.906 -0.7387 -0.7221  0.0365
11275TIP3    H255317   0.743   2.909  16.855 -0.7375  0.4430  0.2741
11276TIP3   OH255318   0.577   1.556   1.741 -0.2886 -0.7530  0.2933
11276TIP3    H155319   0.497   1.532   1.787 -0.3907 -1.3540 -0.1871
11276TIP3    H255320   0.553   1.632   1.688 -1.0175 -1.9599 -1.1635
11277TIP3   OH255321   3.766   3.936  10.894 -0.2561 -0.0402  0.0875
11277TIP3    H155322   3.686   3.947  10.843 -0.4783 -2.4502 -0.1334
11277TIP3    H255323   3.771   3.842  10.910  0.6117  0.4958  3.2219
11278TIP3   OH255324   4.412   6.702   3.634  0.0567 -0.1451  0.1461
11278TIP3    H155325   4.455   6.785   3.618  1.0605 -0.5386  0.7984
11278TIP3    H255326   4.336   6.724   3.688  1.3222  0.1389  1.8684
11279TIP3   OH255327   6.266   4.728   2.670  0.4413 -0.1080 -0.0458
11279TIP3    H155328   6.323   4.705   2.744 -2.2215  2.0275  2.7955
11279TIP3    H255329   6.179   4.697   2.697 -0.6752  1.1770 -2.0671
11280TIP3   OH255330   2.847   4.898   2.808  0.3643 -0.0940  0.5818
11280TIP3    H155331   2.834   4.993   2.804  1.4132  0.1686  2.7407
11280TIP3    H255332   2.815   4.866   2.724 -1.1478  2.0421  0.2979
11281TIP3   OH255333   0.130   4.788  16.008 -0.2811  0.7345 -0.1857
11281TIP3    H155334   0.043   4.817  16.038 -1.0267  0.2338 -1.8185
11281TIP3    H255335   0.143   4.834  15.925  0.0791 -0.8623 -1.0203
11282TIP3   OH255336   0.927   0.287   6.732  0.0162  0.0140  0.1628
11282TIP3    H155337   0.898   0.354   6.794  1.1538 -0.4384  1.2129
11282TIP3    H255338   0.986   0.334   6.673 -0.3098  0.2461  0.0236
11283TIP3   OH255339   3.565   0.151  10.860  0.1211 -0.0585 -0.0940
11283TIP3    H155340   3.494   0.157  10.924  0.0811 -1.0126 -0.0408
11283TIP3    H255341   3.520   0.141  10.776  0.1363  2.7216 -0.4953
11284TIP3   OH255342   0.248   2.439   1.556 -0.2731  0.1547 -0.1625
11284TIP3    H155343   0.325   2.384   1.561 -1.2565 -1.2385 -0.0563
11284TIP3    H255344   0.282   2.528   1.546  1.2877 -0.6671 -2.2642
11285TIP3   OH255345   1.797   0.627   2.476 -0.5657 -0.1906  0.7120
11285TIP3    H155346   1.723   0.600   2.530 -0.7161  0.7263  0.9689
11285TIP3    H255347   1.761   0.694   2.417 -0.4733 -1.3881 -0.7280
11286TIP3   OH255348   3.125   5.419   4.642 -0.0230 -0.4443  0.4889
11286TIP3    H155349   3.194   5.466   4.595  0.7565  0.8828  2.8560
11286TIP3    H255350   3.051   5.480   4.644 -0.5070 -1.0003 -0.1168
11287TIP3   OH255351   3.129   3.722  11.463 -0.1576  0.1287 -0.3930
11287TIP3    H155352   3.113   3.628  11.450 -0.7203  0.4404 -2.1420
11287TIP3    H255353   3.041   3.759  11.475  0.1161  0.3409  0.9992
11288TIP3   OH255354   2.766   0.289  14.804  1.0195 -1.0668  0.1102
11288TIP3    H155355   2.715   0.312  14.882  1.1587 -2.2853  0.5771
11288TIP3    H255356   2.700   0.265  14.739  0.9494 -1.5161  0.3426
11289TIP3   OH255357   6.230   3.996  13.234  1.0995  0.4419  0.1081
11289TIP3    H155358   6.223   3.926  13.299  1.4446  0.7145  0.4405
11289TIP3    H255359   6.184   4.070  13.272 -0.6035 -0.0737 -0.9162
11290TIP3   OH255360   2.672   0.993   4.464  0.1464 -0.3238  0.5576
11290TIP3    H155361   2.725   1.000   4.385 -1.6090 -1.0883 -0.7255
11290TIP3    H255362   2.607   1.063   4.457  0.0966 -0.2736  1.4080
11291TIP3   OH255363   5.182   3.841  15.156  1.0732  0.2539  0.2442
11291TIP3    H155364   5.211   3.850  15.065 -1.7930  0.7508 -0.6746
11291TIP3    H255365   5.214   3.921  15.199 -0.0962  1.4583 -1.0621
11292TIP3   OH255366   4.682   1.994  14.626 -0.3942  0.2795 -0.3735
11292TIP3    H155367   4.600   1.957  14.658  0.9285 -1.7091  0.8111
11292TIP3    H255368   4.710   1.934  14.557  1.4560 -0.6377  1.1251
11293TIP3   OH255369   5.303   0.882   3.619 -0.0316 -0.7103 -0.3139
11293TIP3    H155370   5.209   0.880   3.606 -0.3132 -0.7403  1.5471
11293TIP3    H255371   5.315   0.927   3.703  1.6490 -0.0427 -0.8823
11294TIP3   OH255372   0.612   0.166  14.183  0.5571  0.7195  0.4465
11294TIP3    H155373   0.697   0.124  14.195  0.2025 -0.3274 -0.5707
11294TIP3    H255374   0.625   0.226  14.110  0.2597  0.0650 -0.1515
11295TIP3   OH255375   1.120   4.199  13.784 -0.7695 -0.0747 -0.0453
11295TIP3    H155376   1.199   4.227  13.831 -0.1643 -3.4805  1.1214
11295TIP3    H255377   1.125   4.245  13.700  0.6841  2.3467  1.3060
11296TIP3   OH255378   1.223   6.126  12.456 -0.1263 -0.8041 -0.2641
11296TIP3    H155379   1.292   6.064  12.433  0.0479 -1.3086  1.4957
11296TIP3    H255380   1.265   6.211  12.454  0.4915 -1.0809  0.4861
11297TIP3   OH255381   4.173   5.838  16.348  0.0537 -0.1065  0.5595
11297TIP3    H155382   4.218   5.876  16.424  0.4580  1.6207 -0.4932
11297TIP3    H255383   4.242   5.791  16.301 -0.1914 -1.1567  1.2410
11298TIP3   OH255384   6.592   1.408  11.844 -0.2200 -1.0056 -0.6811
11298TIP3    H155385   6.632   1.321  11.841 -0.2808 -1.1597  1.8265
11298TIP3    H255386   6.516   1.398  11.902 -1.2580  0.3288 -1.7628
11299TIP3   OH255387   2.504   4.395   2.535  0.8399  0.2017  0.4696
11299TIP3    H155388   2.500   4.467   2.599 -0.4045 -0.4082  1.0871
11299TIP3    H255389   2.543   4.322   2.584  0.4891 -0.0676  0.3473
11300TIP3   OH255390   5.477   0.855  16.824 -0.5099 -0.4046  0.1089
11300TIP3    H155391   5.559   0.826  16.863 -0.0870 -0.5448 -0.8907
11300TIP3    H255392   5.409   0.819  16.882  0.0158 -3.0179 -0.8232
11301TIP3   OH255393   3.107   1.950   1.048  0.0919  0.5494  0.5833
11301TIP3    H155394   3.108   1.857   1.072  2.3173  0.3278 -0.2322
11301TIP3    H255395   3.136   1.996   1.127  2.5736  0.2142 -0.0736
11302TIP3   OH255396   3.722   0.605  11.493 -0.2749 -0.7664  0.2108
11302TIP3    H155397   3.782   0.603  11.419 -0.3322 -0.5860  0.1604
11302TIP3    H255398   3.702   0.698  11.505 -0.5502 -0.8276  0.2227
11303TIP3   OH255399   2.606   6.032   5.082 -0.2193  0.2121  0.2287
11303TIP3    H155400   2.525   6.001   5.041 -0.9395  0.6781  1.2690
11303TIP3    H255401   2.617   6.120   5.047 -0.7291  0.5370  0.8656
11304TIP3   OH255402   6.293   4.944   2.273 -0.6442  0.3212  0.0530
11304TIP3    H155403   6.292   4.851   2.294 -1.1770  0.4158  0.4702
11304TIP3    H255404   6.374   4.957   2.224  0.5137  0.0227  1.8166
11305TIP3   OH255405   0.689   4.706  13.566  0.0523  0.0284 -0.2310
11305TIP3    H155406   0.751   4.638  13.592  0.5672  0.1598 -1.0981
11305TIP3    H255407   0.680   4.695  13.471 -1.4418 -0.1462 -0.0807
11306TIP3   OH255408   1.749   1.252  13.797  0.5059 -0.0505  0.1426
11306TIP3    H155409   1.728   1.263  13.890 -2.7562 -0.5738 -0.4523
11306TIP3    H255410   1.745   1.341  13.762  2.3607  0.2244  0.6058
11307TIP3   OH255411   5.985   1.427  13.813  0.0491  0.4012 -0.3143
11307TIP3    H155412   5.922   1.442  13.884  0.3654 -0.3882  0.1433
11307TIP3    H255413   6.030   1.511  13.803 -0.0935  0.5606  0.3354
11308TIP3   OH255414   4.526   5.354  14.074 -0.5268  0.0718 -0.4473
11308TIP3    H155415   4.583   5.277  14.088  0.3648  0.9237  0.7445
11308TIP3    H255416   4.447   5.318  14.034  0.0834 -1.4067 -0.3667
11309TIP3   OH255417   3.076   2.630  13.310 -0.1239 -0.0524 -0.6525
11309TIP3    H155418   3.077   2.537  13.288 -1.2517 -0.3124  0.3814
11309TIP3    H255419   3.007   2.639  13.375 -1.1706  1.7899 -1.9600
11310TIP3   OH255420   6.721   1.334  14.811  0.5914 -0.1210 -0.6269
11310TIP3    H155421   6.685   1.423  14.808 -0.7235 -0.6789 -2.2428
11310TIP3    H255422   6.741   1.314  14.719  0.7211 -1.5577 -0.2923
11311TIP3   OH255423   5.234   2.193   1.134 -0.1308  0.5304 -0.4221
11311TIP3    H155424   5.191   2.112   1.161 -1.4600  1.3617 -0.0382
11311TIP3    H255425   5.193   2.216   1.051  3.2110 -1.4567 -2.7763
11312TIP3   OH255426   5.515   6.370  14.962 -0.2406 -0.8354 -0.1972
11312TIP3    H155427   5.433   6.420  14.956  0.0372 -0.2158  0.9883
11312TIP3    H255428   5.519   6.322  14.880 -1.9793 -1.1584 -0.1227
11313TIP3   OH255429   5.596   5.025  17.211  0.2589  0.2915 -0.8154
11313TIP3    H155430   5.549   4.943  17.203  1.3376 -0.4387  0.1860
11313TIP3    H255431   5.619   5.049  17.121  0.8959 -1.0813 -1.0316
11314TIP3   OH255432   1.280   4.829   4.713  0.2912 -0.5868  1.4506
11314TIP3    H155433   1.297   4.880   4.634 -0.1860 -1.5668  0.6982
11314TIP3    H255434   1.202   4.869   4.751  0.8983  0.2937  1.7847
11315TIP3   OH255435   5.468   1.418   4.717 -1.0459 -0.2599 -0.3543
11315TIP3    H155436   5.465   1.509   4.744  0.4493  0.2878 -1.9659
11315TIP3    H255437   5.430   1.417   4.629 -0.0772 -0.9848 -0.7836
11316TIP3   OH255438   5.642   5.119   1.283 -0.2155  0.1278 -0.3225
11316TIP3    H155439   5.589   5.192   1.317  1.3961  0.2619  1.9679
11316TIP3    H255440   5.587   5.042   1.295 -1.4050  0.7566 -1.5494
11317TIP3   OH255441   2.112   2.343  15.213 -0.1490 -0.3561 -0.3129
11317TIP3    H155442   2.036   2.359  15.156  0.4217 -0.1191 -1.0224
11317TIP3    H255443   2.091   2.388  15.295 -0.8938 -0.5258 -0.4109
11318TIP3   OH255444   0.127   6.595  12.080 -0.4837 -0.0996 -0.0118
11318TIP3    H155445   0.127   6.642  12.164 -1.2065 -1.7201  0.9043
11318TIP3    H255446   0.175   6.653  12.021 -0.3161  1.2516  1.4076
11319TIP3   OH255447   6.612   3.538  12.694 -0.5969  0.3663 -0.1706
11319TIP3    H155448   6.597   3.557  12.787 -0.8961  1.4557 -0.4439
11319TIP3    H255449   6.678   3.602  12.667 -0.5366  0.0684 -0.7226
11320TIP3   OH255450   0.137   0.099   5.599  0.4503 -0.4524 -0.2429
11320TIP3    H155451   0.190   0.061   5.669  0.5207 -1.0173 -0.6012
11320TIP3    H255452   0.196   0.106   5.524  0.4280  0.3327 -0.1911
11321TIP3   OH255453   3.861   2.147   0.568  0.2412 -0.3677 -0.5143
11321TIP3    H155454   3.826   2.083   0.506  0.5744 -1.1440  0.0952
11321TIP3    H255455   3.956   2.132   0.567  0.2271 -0.5360  0.3623
11322TIP3   OH255456   5.339   1.857   4.308 -0.0308 -0.2101 -0.2757
11322TIP3    H155457   5.415   1.813   4.269  1.0445  0.7520  0.7046
11322TIP3    H255458   5.264   1.807   4.275  1.0781 -1.9272 -0.3055
11323TIP3   OH255459   2.512   1.660  11.337 -0.6580 -0.4904 -0.2671
11323TIP3    H155460   2.539   1.655  11.428  1.2157  1.4781 -0.6719
11323TIP3    H255461   2.562   1.590  11.293  1.4082  1.0027 -0.4133
11324TIP3   OH255462   6.645   3.266   4.197 -0.2098  0.4108  0.4094
11324TIP3    H155463   6.680   3.180   4.174  0.7812  0.5541  1.3762
11324TIP3    H255464   6.715   3.309   4.246 -1.0646  1.3938  0.7935
11325TIP3   OH255465   4.818   1.849   3.725  0.0992 -0.4940  0.1020
11325TIP3    H155466   4.824   1.886   3.637 -0.9497  0.5411  0.4552
11325TIP3    H255467   4.771   1.916   3.776  0.4260 -1.2180  1.3666
11326TIP3   OH255468   2.143   0.023   5.834  0.0446 -0.1621  0.1284
11326TIP3    H155469   2.088  -0.026   5.894  0.3495  1.6916  1.9700
11326TIP3    H255470   2.082   0.074   5.781 -0.1792 -1.1701 -0.6069
11327TIP3   OH255471   5.493   5.167  16.765 -0.6500  0.2933  0.2200
11327TIP3    H155472   5.491   5.140  16.673 -0.0403 -0.7253  0.4988
11327TIP3    H255473   5.525   5.257  16.762 -0.6719  0.2851 -0.5681
11328TIP3   OH255474   1.173   5.722   5.867 -0.4916 -0.4767 -0.0027
11328TIP3    H155475   1.211   5.636   5.886  0.0294  0.1150  1.7191
11328TIP3    H255476   1.228   5.756   5.796 -0.9512 -1.7176 -0.9764
11329TIP3   OH255477   3.769   3.605  12.724  0.1139  0.3338  0.1883
11329TIP3    H155478   3.718   3.524  12.723 -0.2626  0.4882  2.9448
11329TIP3    H255479   3.856   3.579  12.695 -0.3450 -0.7936 -0.2130
11330TIP3   OH255480   4.671   0.653   2.848 -0.2630  0.3918 -0.2059
11330TIP3    H155481   4.641   0.684   2.762  0.3993 -0.1395 -0.6442
11330TIP3    H255482   4.707   0.731   2.890 -1.6243  0.8858  0.0508
11331TIP3   OH255483   4.518   6.780  11.931 -0.7029  0.1744  0.5255
11331TIP3    H155484   4.579   6.802  12.001 -0.5800 -1.4518  0.9432
11331TIP3    H255485   4.550   6.697  11.896  0.1435  1.6752 -2.5029
11332TIP3   OH255486   3.287   5.885   0.182 -0.2015  0.2997  0.0511
11332TIP3    H155487   3.350   5.887   0.255 -0.9776  0.5119  0.7180
11332TIP3    H255488   3.305   5.802   0.138  0.8471  0.5574 -0.0283
11333TIP3   OH255489   3.015   0.697  13.425  0.1156  0.0441 -0.0233
11333TIP3    H155490   2.930   0.733  13.400 -0.9048 -1.3415  1.3358
11333TIP3    H255491   3.063   0.689  13.343 -2.4802 -2.7294 -1.3810
11334TIP3   OH255492   6.746   4.050  15.081 -0.0989  0.2813  0.1069
11334TIP3    H155493   6.802   4.127  15.070 -0.2396  0.3463 -0.1628
11334TIP3    H255494   6.720   4.026  14.991 -0.7769  0.4552  0.2512
11335TIP3   OH255495   0.486   4.812  15.164  0.0063  0.2354 -0.1308
11335TIP3    H155496   0.474   4.779  15.075  1.3996 -1.3850  0.2628
11335TIP3    H255497   0.419   4.768  15.215  1.6798 -1.8762  0.3379
11336TIP3   OH255498   2.473   5.454   6.594  0.3294  0.8513 -0.0217
11336TIP3    H155499   2.441   5.512   6.524 -1.0118  0.6786  0.4421
11336TIP3    H255500   2.403   5.454   6.659 -0.1051 -2.0590 -0.4453
11337TIP3   OH255501   5.115   5.937   3.228 -0.3677  0.0167  0.0704
11337TIP3    H155502   5.072   6.002   3.173 -1.2039 -1.3439 -0.9082
11337TIP3    H255503   5.209   5.956   3.217 -0.6233  1.5908  0.4823
11338TIP3   OH255504   1.738   5.852  10.893  0.4411 -0.0501  0.0361
11338TIP3    H155505   1.709   5.916  10.959  1.0268 -0.4125  0.6531
11338TIP3    H255506   1.657   5.813  10.861  0.1279  0.3829  0.2869
11339TIP3   OH255507   0.641   1.408  10.662  0.1269  0.4158  0.0939
11339TIP3    H155508   0.680   1.350  10.727 -0.7429  0.6674  0.8507
11339TIP3    H255509   0.563   1.361  10.631  0.0689  0.6670 -0.1461
11340TIP3   OH255510   0.078   1.659  11.685  0.3774 -0.1424  0.0301
11340TIP3    H155511   0.089   1.630  11.775 -0.8230  0.1996  0.2968
11340TIP3    H255512  -0.005   1.708  11.685  0.6427  0.3381 -1.1339
11341TIP3   OH255513   4.742   5.881  15.127  0.6318 -0.2548  0.1660
11341TIP3    H155514   4.667   5.883  15.066  1.9103 -3.0853 -1.6295
11341TIP3    H255515   4.739   5.793  15.165  1.6828  0.4408  1.8914
11342TIP3   OH255516   0.320   2.564   1.127 -0.0572  0.3776 -0.1692
11342TIP3    H155517   0.314   2.493   1.063 -0.5483  0.0492  0.2345
11342TIP3    H255518   0.312   2.644   1.075 -2.9749  0.0856 -0.2840
11343TIP3   OH255519   1.054   2.150  14.889  0.0658 -0.1829 -0.4091
11343TIP3    H155520   1.039   2.166  14.796  0.7021 -0.1706 -0.5099
11343TIP3    H255521   1.023   2.060  14.904 -0.1185 -0.1517 -0.6103
11344TIP3   OH255522   0.614   3.320   1.455  0.3858  0.3590 -0.1773
11344TIP3    H155523   0.610   3.319   1.550  0.7594  1.1933 -0.1416
11344TIP3    H255524   0.577   3.236   1.428 -0.3980  0.4222  0.6722
11345TIP3   OH255525   1.072   0.524   6.206  0.2096  0.1776 -0.1083
11345TIP3    H155526   0.991   0.571   6.220 -0.7731 -1.7761  1.0680
11345TIP3    H255527   1.131   0.556   6.274 -0.6197 -0.6363  1.0100
11346TIP3   OH255528   3.628   4.027  14.053  0.4837  0.5869 -0.2153
11346TIP3    H155529   3.561   4.078  14.098  0.7899  0.6837  0.1300
11346TIP3    H255530   3.680   3.988  14.123  0.4020 -0.0049 -0.4767
11347TIP3   OH255531   5.852   5.200   5.375  0.0421  0.0889 -0.1268
11347TIP3    H155532   5.927   5.178   5.431  0.9684  1.7840 -0.6747
11347TIP3    H255533   5.788   5.132   5.393  0.5846  0.2260  2.5374
11348TIP3   OH255534   1.204   2.308   2.106 -0.2902 -0.1261 -0.0942
11348TIP3    H155535   1.204   2.295   2.011 -0.7840  0.3347 -0.1609
11348TIP3    H255536   1.153   2.235   2.140  0.5749 -0.7485 -0.1120
11349TIP3   OH255537   3.651   3.400  14.455 -0.1147  0.3754 -0.0098
11349TIP3    H155538   3.684   3.458  14.386  1.3285 -0.4816 -0.0480
11349TIP3    H255539   3.693   3.431  14.535  2.0005 -1.6579 -0.2948
11350TIP3   OH255540   2.354   5.815   1.802 -0.1834 -0.2979  0.2847
11350TIP3    H155541   2.343   5.742   1.863  2.4282 -0.2387  0.9288
11350TIP3    H255542   2.344   5.777   1.715  3.2729 -1.9620  0.5142
11351TIP3   OH255543   4.200   0.676  15.675  0.1936 -0.5207 -0.1505
11351TIP3    H155544   4.154   0.758  15.691  1.6631  0.5445 -1.1642
11351TIP3    H255545   4.270   0.674  15.740 -0.5296 -1.5488  0.6157
11352TIP3   OH255546   2.724   3.365   2.651  0.5118 -0.5273 -0.6114
11352TIP3    H155547   2.648   3.362   2.592 -0.4875 -0.0865  0.6190
11352TIP3    H255548   2.712   3.289   2.709  0.1672  0.4311  0.5881
11353TIP3   OH255549   2.718   5.802  12.449  0.3885  0.0534  0.2824
11353TIP3    H155550   2.670   5.799  12.532  2.2217  0.2579  1.3860
11353TIP3    H255551   2.745   5.893  12.440 -0.2313  0.1355 -0.7948
11354TIP3   OH255552   0.262   2.229   3.442 -0.2215 -0.0423  0.0679
11354TIP3    H155553   0.183   2.229   3.495 -0.1087  1.8349  0.2591
11354TIP3    H255554   0.334   2.234   3.505  0.1003 -2.1849 -0.0798
11355TIP3   OH255555   2.652   6.679   1.167 -0.2761 -0.1428  0.0455
11355TIP3    H155556   2.667   6.601   1.220 -0.6001 -0.0462  0.2739
11355TIP3    H255557   2.606   6.740   1.225 -1.1625 -0.2597 -0.5269
11356TIP3   OH255558   0.888   3.993  16.342  0.3324 -0.2740  0.5312
11356TIP3    H155559   0.877   3.966  16.433  1.2643 -0.5372  0.5742
11356TIP3    H255560   0.799   4.008  16.310 -0.0999 -1.7382  1.0041
11357TIP3   OH255561   4.950   2.628  11.471  0.1317  0.8087  0.3827
11357TIP3    H155562   5.007   2.702  11.449  0.8618  0.1294 -0.0428
11357TIP3    H255563   4.865   2.650  11.432  1.1358  0.0689 -2.3370
11358TIP3   OH255564   2.521   3.861  15.305  0.0218  0.4860 -0.3411
11358TIP3    H155565   2.561   3.885  15.389 -0.0444 -0.8087  0.0770
11358TIP3    H255566   2.427   3.860  15.324 -0.0535  1.1126 -0.6797
11359TIP3   OH255567   5.143   2.751   6.404  0.3542 -0.3102  0.4660
11359TIP3    H155568   5.143   2.843   6.380 -0.9043 -0.7441 -1.2682
11359TIP3    H255569   5.214   2.743   6.469 -2.4075  2.7016  4.0575
11360TIP3   OH255570   5.861   2.919  15.926 -0.6296 -0.4062 -0.0781
11360TIP3    H155571   5.935   2.939  15.869 -0.3005 -0.4265  0.3398
11360TIP3    H255572   5.794   2.885  15.867 -0.3354 -0.3124 -0.4691
11361TIP3   OH255573   2.866   2.860  13.255  0.3334  0.4178  0.2001
11361TIP3    H155574   2.828   2.815  13.330  1.4515  0.6293  0.9115
11361TIP3    H255575   2.857   2.799  13.182  1.4937 -0.8003  1.0653
11362TIP3   OH255576   5.680   1.338   4.377 -0.1788  0.2424  0.3055
11362TIP3    H155577   5.759   1.356   4.325  0.0084 -0.5939  0.2970
11362TIP3    H255578   5.692   1.390   4.456  0.1622  0.4802  0.1016
11363TIP3   OH255579   4.119   4.597  15.136  0.4223 -0.3485  0.6672
11363TIP3    H155580   4.200   4.572  15.093 -0.2368 -0.4484 -0.5522
11363TIP3    H255581   4.051   4.545  15.092 -0.5476  1.1947  0.2858
11364TIP3   OH255582   2.189   0.524   4.832  0.0617 -0.2941  0.3697
11364TIP3    H155583   2.103   0.517   4.791  0.8409 -2.5913 -0.9689
11364TIP3    H255584   2.235   0.588   4.777  0.0927 -1.1030 -0.5696
11365TIP3   OH255585   1.049   2.212  13.403  0.0035  0.0967  0.0794
11365TIP3    H155586   0.991   2.230  13.330 -0.0740  2.7538  0.7394
11365TIP3    H255587   1.060   2.297  13.447  1.6963 -1.0170  1.9214
11366TIP3   OH255588   6.333   6.124  12.236  0.1428 -0.2172  0.0454
11366TIP3    H155589   6.356   6.172  12.316  1.7184 -1.5497  0.4196
11366TIP3    H255590   6.380   6.041  12.244 -0.7797 -0.9127 -1.6374
11367TIP3   OH255591   0.940   6.010   2.348  0.3222  0.2620  0.3675
11367TIP3    H155592   0.960   6.103   2.348  3.0244 -0.2865 -0.9961
11367TIP3    H255593   0.928   5.989   2.441 -0.0617  1.8809  0.7061
11368TIP3   OH255594   0.986   5.730   4.147 -0.0013  0.4122 -0.4253
11368TIP3    H155595   1.023   5.783   4.077  0.9237  1.0078  0.5160
11368TIP3    H255596   1.051   5.661   4.162 -0.4205  0.0020 -0.4763
11369TIP3   OH255597   3.254   0.854  14.857  0.0307  0.5232 -0.6447
11369TIP3    H155598   3.270   0.895  14.942  0.3583 -1.0048  0.0507
11369TIP3    H255599   3.312   0.778  14.856 -1.3824 -0.5659 -1.4371
11370TIP3   OH255600   6.064   2.978   4.908 -0.3705 -0.3526  0.0782
11370TIP3    H155601   6.149   3.016   4.931  0.4100 -1.9180 -0.1101
11370TIP3    H255602   6.086   2.901   4.856 -2.0160  1.0041 -2.7314
11371TIP3   OH255603   2.006   3.020  16.725 -0.6597  0.1108 -0.2095
11371TIP3    H155604   2.072   3.085  16.703 -1.4203  0.8634 -0.2952
11371TIP3    H255605   1.954   3.010  16.645 -1.9937  1.1385  0.5053
11372TIP3   OH255606   5.499   5.304   5.904 -0.4345  0.0626  0.1802
11372TIP3    H155607   5.533   5.385   5.866 -0.0424  0.0004  0.3929
11372TIP3    H255608   5.551   5.235   5.864 -2.1279 -0.2548 -1.5248
11373TIP3   OH255609   1.255   0.356   1.072 -0.6521  0.0706  0.1212
11373TIP3    H155610   1.345   0.387   1.078 -1.1483  1.4481  0.6078
11373TIP3    H255611   1.235   0.358   0.979  0.0035 -0.7993 -0.0470
11374TIP3   OH255612   6.722   3.534   0.185 -0.4550  0.2824 -0.2837
11374TIP3    H155613   6.675   3.533   0.101 -0.6676  2.4472 -0.2081
11374TIP3    H255614   6.797   3.592   0.170 -0.1275  0.1589  0.8415
11375TIP3   OH255615   3.639   0.144   4.285  0.6411  0.4266 -0.0232
11375TIP3    H155616   3.632   0.218   4.346 -0.8582  1.3044 -1.2096
11375TIP3    H255617   3.718   0.163   4.234  0.5492  0.9579  0.0236
11376TIP3   OH255618   4.303   2.958   2.765  0.1922  0.1243  0.2923
11376TIP3    H155619   4.239   2.890   2.786  1.0869 -1.0411 -0.6337
11376TIP3    H255620   4.317   2.950   2.671  3.0222 -0.9082  0.7206
11377TIP3   OH255621   2.927   4.371  14.611 -0.0467  0.6434  0.1639
11377TIP3    H155622   2.937   4.280  14.582 -1.5859  0.6840 -0.5228
11377TIP3    H255623   2.862   4.367  14.681  0.5577  1.1042  0.7543
11378TIP3   OH255624   5.008   3.015  12.628  0.1280  0.6746 -0.6799
11378TIP3    H155625   5.048   3.047  12.709  0.8515 -4.0368  0.9718
11378TIP3    H255626   4.926   3.063  12.621  0.4902  1.8483  2.3564
11379TIP3   OH255627   6.688   1.950  13.540  0.0631  0.0429 -0.3133
11379TIP3    H155628   6.691   1.855  13.533 -0.5737 -0.3235  3.3331
11379TIP3    H255629   6.774   1.979  13.509  0.4819 -1.7789 -0.9038
11380TIP3   OH255630   2.920   1.882   1.654 -0.2975 -0.2109  0.2503
11380TIP3    H155631   2.864   1.817   1.611  1.0665 -0.8807 -0.5478
11380TIP3    H255632   3.008   1.846   1.647 -0.0584 -0.5044  3.9862
11381TIP3   OH255633   1.473   2.852  14.068  0.1754  0.0850  0.7107
11381TIP3    H155634   1.537   2.806  14.121 -0.8712 -0.7867  1.2187
11381TIP3    H255635   1.465   2.800  13.988 -0.8959 -0.5400  1.2206
11382TIP3   OH255636   2.525   5.000  12.510 -0.1137  0.0824  0.6433
11382TIP3    H155637   2.542   4.964  12.597  1.4002  2.9142  1.5961
11382TIP3    H255638   2.612   5.005  12.469 -0.8217 -1.2283 -1.0409
11383TIP3   OH255639   3.111   2.676  16.208 -0.1985 -0.0452  0.5010
11383TIP3    H155640   3.085   2.716  16.291  0.7070  0.3157  0.6168
11383TIP3    H255641   3.094   2.744  16.142 -3.2211 -1.1824  0.0478
11384TIP3   OH255642   0.381   1.939  16.416 -0.0560 -0.2037 -0.4691
11384TIP3    H155643   0.464   1.978  16.445 -0.5028  0.7094 -0.4252
11384TIP3    H255644   0.352   1.887  16.492  1.2063 -1.7338 -0.9921
11385TIP3   OH255645   5.147   4.577  13.818 -0.2154  0.3016 -1.2911
11385TIP3    H155646   5.199   4.513  13.867 -0.9845 -0.9288 -2.0650
11385TIP3    H255647   5.060   4.573  13.858 -0.4205  0.4396 -1.7172
11386TIP3   OH255648   4.436   4.838   6.112  0.5058  0.4743  0.2274
11386TIP3    H155649   4.436   4.926   6.074 -0.0598  0.6863  0.7151
11386TIP3    H255650   4.345   4.822   6.136  0.7645  0.1227  0.9997
11387TIP3   OH255651   3.410   1.899  13.294 -0.4571 -0.3702 -0.0940
11387TIP3    H155652   3.505   1.897  13.286 -0.2918  0.5293  1.4937
11387TIP3    H255653   3.382   1.972  13.239  0.0199  1.0164  1.4454
11388TIP3   OH255654   0.420   6.702  14.015 -0.4053 -0.1505  0.5081
11388TIP3    H155655   0.427   6.715  13.921  1.4132 -2.3595  0.2856
11388TIP3    H255656   0.511   6.699  14.046 -0.9613 -0.4812  2.1712
11389TIP3   OH255657   6.729   3.746  16.467  0.2658  0.4323  0.6024
11389TIP3    H155658   6.775   3.828  16.447  0.1981 -0.2055 -2.4399
11389TIP3    H255659   6.774   3.680  16.414  0.5238 -1.6030  3.2446
11390TIP3   OH255660   6.676   1.307  11.488  0.3573 -0.6071 -0.2674
11390TIP3    H155661   6.637   1.275  11.406  3.0693 -2.8551 -0.7469
11390TIP3    H255662   6.753   1.252  11.501  0.9453  0.8722  2.9200
11391TIP3   OH255663   2.010   0.851  12.854 -0.6006  0.2497 -0.4552
11391TIP3    H155664   2.010   0.884  12.764 -0.6180  0.1707 -0.4851
11391TIP3    H255665   2.051   0.920  12.905  0.8937 -0.3759 -0.7840
11392TIP3   OH255666   3.007   6.004  11.877  0.0204  0.5731 -0.0749
11392TIP3    H155667   3.063   5.926  11.880  0.5880  0.9794  0.0355
11392TIP3    H255668   3.016   6.036  11.787  1.0272  1.3967  0.3040
11393TIP3   OH255669   3.860   6.486  13.612 -0.3897 -0.5893  0.1651
11393TIP3    H155670   3.937   6.535  13.641 -0.4276  0.2595 -1.1434
11393TIP3    H255671   3.860   6.494  13.517 -1.5292 -1.4480  0.0762
11394TIP3   OH255672   6.470   2.691   4.962 -0.0964 -0.3444  0.0717
11394TIP3    H155673   6.416   2.692   5.040  1.1448 -0.4544  0.9442
11394TIP3    H255674   6.539   2.755   4.979 -0.0234 -0.0974 -1.0799
11395TIP3   OH255675   6.801   2.927  15.135 -0.1035  0.0674  0.6077
11395TIP3    H155676   6.849   2.870  15.196 -0.5941 -1.0750 -0.0532
11395TIP3    H255677   6.860   3.001  15.121  1.0962 -0.8835  0.5114
11396TIP3   OH255678   0.968   4.531   2.033  0.2125 -0.2911 -0.3061
11396TIP3    H155679   0.974   4.603   2.095 -0.4130  0.8852 -1.5757
11396TIP3    H255680   1.051   4.484   2.042  1.2607  1.4743 -0.5395
11397TIP3   OH255681   6.306   5.259  13.494 -0.1021 -0.6006 -0.0150
11397TIP3    H155682   6.345   5.290  13.576  0.6371 -0.9255 -0.2384
11397TIP3    H255683   6.378   5.215  13.449 -0.2288  0.4957 -1.3162
11398TIP3   OH255684   4.932   2.829  15.403  0.9643 -0.1164  0.1601
11398TIP3    H155685   4.910   2.740  15.430  1.9956 -1.0946 -2.0738
11398TIP3    H255686   4.970   2.819  15.315  2.2952  2.3881  0.3953
11399TIP3   OH255687   6.806   2.038   5.007 -0.2239  0.3120 -0.7261
11399TIP3    H155688   6.848   2.076   4.930 -0.6314  0.1507 -1.0286
11399TIP3    H255689   6.822   1.944   5.000  1.5891  0.5118  0.5123
11400TIP3   OH255690   6.636   5.679  12.720  0.7003  0.3013 -0.5411
11400TIP3    H155691   6.603   5.595  12.688  1.5672 -1.4167  2.7745
11400TIP3    H255692   6.558   5.733  12.733 -0.1025 -0.8928 -0.3208
11401TIP3   OH255693   4.264   0.108  13.968 -0.1822  0.0678  0.3287
11401TIP3    H155694   4.237   0.080  14.056 -1.2362 -0.1019 -0.0481
11401TIP3    H255695   4.333   0.173  13.984  0.5774 -0.9280  1.2569
11402TIP3   OH255696   5.145   0.130   0.447 -0.0343 -0.6337  0.1532
11402TIP3    H155697   5.160   0.186   0.371 -1.3398 -0.8283 -0.2659
11402TIP3    H255698   5.228   0.084   0.460  0.3077 -0.3347 -0.9395
11403TIP3   OH255699   2.671   2.673  14.678 -0.0373  0.4792 -0.3661
11403TIP3    H155700   2.609   2.602  14.661  1.8445 -1.2557 -0.1971
11403TIP3    H255701   2.643   2.743  14.619 -0.0690 -1.5483 -2.8429
11404TIP3   OH255702   2.369   4.312  13.895  0.5042 -0.1783  0.0472
11404TIP3    H155703   2.452   4.334  13.852  1.3325 -0.3707  1.5086
11404TIP3    H255704   2.327   4.397  13.911 -0.6418 -0.1761 -2.6751
11405TIP3   OH255705   2.721   1.984  14.881  0.1659 -0.1447  0.1742
11405TIP3    H155706   2.795   2.009  14.826 -0.3621  0.6720 -0.1665
11405TIP3    H255707   2.746   1.898  14.916 -0.1882 -1.4840 -2.6604
11406TIP3   OH255708   6.236   0.283  16.867 -0.8540  0.4082  0.1195
11406TIP3    H155709   6.223   0.338  16.790 -3.7125  1.4070  1.2579
11406TIP3    H255710   6.194   0.200  16.844 -1.1210  0.4779  0.3601
11407TIP3   OH255711   4.880   5.695  11.165  0.2236 -0.1998  0.2452
11407TIP3    H155712   4.843   5.762  11.107  0.9802  1.0691  1.2062
11407TIP3    H255713   4.915   5.630  11.105 -0.1613  0.4594 -0.7229
11408TIP3   OH255714   0.411   3.447   4.123  0.4506 -0.0603  0.0908
11408TIP3    H155715   0.398   3.515   4.189 -1.0322 -1.0009  0.7971
11408TIP3    H255716   0.500   3.415   4.138  1.1255  1.6381 -0.1836
11409TIP3   OH255717   3.198   0.574   1.220 -0.0854 -0.0207 -0.4452
11409TIP3    H155718   3.192   0.627   1.299 -1.1759 -1.4749  0.4696
11409TIP3    H255719   3.113   0.586   1.176 -0.8792 -2.0215  0.4606
11410TIP3   OH255720   2.558   0.272   4.074 -0.6376 -0.3364  0.0280
11410TIP3    H155721   2.528   0.239   4.159 -1.2026  0.3068  0.0911
11410TIP3    H255722   2.650   0.291   4.086 -0.2627 -2.0177 -0.0541
11411TIP3   OH255723   4.630   1.863  10.524  0.2039  0.0750 -0.5699
11411TIP3    H155724   4.615   1.898  10.437 -3.5293 -1.8124 -0.8155
11411TIP3    H255725   4.671   1.778  10.509 -0.3760 -0.2202 -0.4917
11412TIP3   OH255726   6.430   4.215  13.950 -0.0597  0.2670  0.2770
11412TIP3    H155727   6.402   4.255  14.033  1.9935 -0.1267  1.1738
11412TIP3    H255728   6.461   4.128  13.974  2.2160  0.7919 -0.6198
11413TIP3   OH255729   1.006   2.620  13.693  0.1843 -0.7202  0.0510
11413TIP3    H155730   1.055   2.545  13.728  0.7123 -0.0162  0.8349
11413TIP3    H255731   1.072   2.689  13.685 -0.2972 -0.3454 -0.7151
11414TIP3   OH255732   3.068   0.544   4.537 -0.7553  0.2690  0.1809
11414TIP3    H155733   3.126   0.513   4.468 -1.5298  0.5180 -0.5912
11414TIP3    H255734   3.096   0.496   4.615  1.8213  1.8912  0.2891
11415TIP3   OH255735   0.480   2.840   3.384  0.2865 -0.4179  0.0091
11415TIP3    H155736   0.441   2.856   3.470 -0.6861  0.0968 -0.5236
11415TIP3    H255737   0.409   2.857   3.322  0.9345 -0.9527 -0.8878
11416TIP3   OH255738   6.099   1.972   0.708  0.0728  0.4241 -0.4369
11416TIP3    H155739   6.028   1.997   0.649  0.4391 -1.6225 -1.7983
11416TIP3    H255740   6.081   1.881   0.731  1.1137  0.5286  0.8941
11417TIP3   OH255741   2.561   2.236  14.193  0.2799 -0.8185 -0.1274
11417TIP3    H155742   2.506   2.167  14.229  0.2675  0.0749  1.5975
11417TIP3    H255743   2.622   2.258  14.263 -1.0775  2.3704  0.1172
11418TIP3   OH255744   2.908   3.068   3.815 -0.0674  0.5751  0.5018
11418TIP3    H155745   2.925   3.159   3.840 -0.9345  0.3405  1.9373
11418TIP3    H255746   2.892   3.073   3.720 -3.2322  2.3697  1.0661
11419TIP3   OH255747   2.551   6.501   3.931 -0.0350 -0.9329 -0.1100
11419TIP3    H155748   2.582   6.513   3.841  0.7732 -1.1074  0.1393
11419TIP3    H255749   2.578   6.412   3.954  2.2305  0.0708  1.2629
11420TIP3   OH255750   2.028   0.061   2.192 -0.0191 -0.1755  0.1691
11420TIP3    H155751   2.058   0.039   2.281  0.0728  1.3749  0.5395
11420TIP3    H255752   1.942   0.020   2.186  0.2481 -0.8509  0.7324
11421TIP3   OH255753   1.476   3.508  16.858 -0.1591 -0.0799  0.2360
11421TIP3    H155754   1.383   3.515  16.879 -0.3388 -0.4445 -0.3975
11421TIP3    H255755   1.481   3.432  16.799  0.5253 -0.0047  0.1904
11422TIP3   OH255756   5.756   2.205  11.919  0.1461  0.2848  0.0274
11422TIP3    H155757   5.774   2.165  11.834  1.4150 -0.5458  0.6806
11422TIP3    H255758   5.839   2.243  11.946 -0.4130  1.0891  0.6120
11423TIP3   OH255759   1.949   4.429  13.408  0.1033  0.3625 -0.1423
11423TIP3    H155760   2.021   4.491  13.420 -0.0887  0.4916  0.3507
11423TIP3    H255761   1.879   4.482  13.370 -0.2922  0.6041  0.9019
11424TIP3   OH255762   4.248   6.205   5.489  0.7702 -0.4386  0.3041
11424TIP3    H155763   4.294   6.285   5.514  0.6363 -0.7462  1.5781
11424TIP3    H255764   4.156   6.224   5.505  0.6393 -0.5193 -0.3224
11425TIP3   OH255765   0.018   5.547   0.890 -0.2324 -0.0089  0.0004
11425TIP3    H155766   0.011   5.488   0.965 -2.6170  0.4457  0.1775
11425TIP3    H255767  -0.072   5.568   0.868  0.4722  0.5955 -2.4404
11426TIP3   OH255768   3.954   2.719   0.778  0.4554 -0.2017 -0.8403
11426TIP3    H155769   3.909   2.638   0.756 -0.0928 -0.1527  0.0715
11426TIP3    H255770   3.989   2.704   0.866  1.6252  0.0122 -1.2629
11427TIP3   OH255771   2.521   1.241  15.876  0.1863  0.1474 -0.5308
11427TIP3    H155772   2.566   1.214  15.796  0.5296 -0.0901 -0.2574
11427TIP3    H255773   2.442   1.285  15.845  1.0510  1.3903 -1.0380
11428TIP3   OH255774   2.035   2.188  12.331  0.2084 -0.3105  0.0840
11428TIP3    H155775   1.949   2.184  12.372  0.0233 -0.1795 -0.2903
11428TIP3    H255776   2.017   2.197  12.237  0.6206  0.6397  0.0851
11429TIP3   OH255777   3.239   5.645  10.764 -0.4791  0.0782 -0.0413
11429TIP3    H155778   3.316   5.596  10.793 -0.7218 -0.8039 -0.8679
11429TIP3    H255779   3.174   5.577  10.745 -1.0610  0.7664 -0.4991
11430TIP3   OH255780   6.690   5.449  11.881 -0.0384 -0.3689 -0.2861
11430TIP3    H155781   6.738   5.528  11.857  0.2542 -0.4006  0.1877
11430TIP3    H255782   6.758   5.383  11.892 -0.3194 -0.8130 -1.1691
11431TIP3   OH255783   3.619   4.274  17.100 -0.0246  0.1052 -0.6185
11431TIP3    H155784   3.562   4.348  17.077 -0.2480  0.5555  1.2937
11431TIP3    H255785   3.700   4.316  17.129  0.8353 -0.5011 -2.1049
11432TIP3   OH255786   6.604   2.239  13.630  0.0338 -0.5705 -0.2267
11432TIP3    H155787   6.644   2.210  13.712  0.4601 -0.6929 -0.4724
11432TIP3    H255788   6.678   2.243  13.568 -0.1264  0.4151 -0.3619
11433TIP3   OH255789   2.339   1.368   2.106 -0.4534 -0.3823  0.5122
11433TIP3    H155790   2.298   1.394   2.188 -1.6470  0.7321 -0.4128
11433TIP3    H255791   2.303   1.281   2.088 -2.9609  0.8268 -0.5952
11434TIP3   OH255792   2.794   4.397   0.127  0.0486  0.3449  0.4611
11434TIP3    H155793   2.755   4.366   0.045 -0.6726 -0.1643  0.9913
11434TIP3    H255794   2.724   4.387   0.192  0.6455  0.6639  1.1562
11435TIP3   OH255795   0.798   2.106  12.596  0.2394 -0.0093 -0.0957
11435TIP3    H155796   0.819   2.040  12.530  0.3971 -0.7634  0.7030
11435TIP3    H255797   0.760   2.178  12.546  0.7722 -0.3893 -1.0644
11436TIP3   OH255798   3.910   5.221   1.506  0.0276  0.5684 -0.0709
11436TIP3    H155799   3.934   5.294   1.449  1.3396  0.2958  0.1255
11436TIP3    H255800   3.917   5.256   1.594 -1.0362  0.6989 -0.0267
11437TIP3   OH255801   4.342   4.303   0.156 -0.0005  0.7050 -0.0759
11437TIP3    H155802   4.288   4.337   0.085  0.9501  0.3642 -0.9667
11437TIP3    H255803   4.360   4.380   0.211 -0.8895  0.9319 -0.0839
11438TIP3   OH255804   0.399   1.868   4.924  0.4299  0.0941  0.0559
11438TIP3    H155805   0.359   1.858   4.838  1.1454 -0.4031 -0.2274
11438TIP3    H255806   0.470   1.930   4.911  0.0607  0.6153  0.4591
11439TIP3   OH255807   6.327   1.599   0.416 -0.2736  0.5865  0.6663
11439TIP3    H155808   6.331   1.675   0.359  2.3064  1.5441  2.0477
11439TIP3    H255809   6.259   1.620   0.480 -0.5808  1.1112  0.1618
11440TIP3   OH255810   0.091   1.366  15.318  0.2222 -1.2936  0.6012
11440TIP3    H155811   0.165   1.420  15.348 -0.6760  1.5433 -2.0682
11440TIP3    H255812   0.118   1.332  15.233 -0.9132 -1.6165  0.3630
11441TIP3   OH255813   3.332   0.785   5.400 -0.0210  0.0808  0.2181
11441TIP3    H155814   3.288   0.856   5.447  0.3891 -0.2328  1.0891
11441TIP3    H255815   3.395   0.751   5.463  1.3642  0.4158 -0.9796
11442TIP3   OH255816   3.092   2.935   2.484  0.3149 -0.0027  0.3372
11442TIP3    H155817   3.047   2.854   2.509 -0.7821  1.4663  3.4698
11442TIP3    H255818   3.147   2.956   2.560  1.0501  1.8848 -0.6800
11443TIP3   OH255819   1.097   6.392  13.708 -0.0383 -0.2446  0.5099
11443TIP3    H155820   1.161   6.462  13.715  0.0294 -0.0388 -1.7275
11443TIP3    H255821   1.047   6.413  13.629 -1.1955 -1.7585  0.8087
11444TIP3   OH255822   3.297   2.282   0.336 -0.4558  0.0042 -0.1150
11444TIP3    H155823   3.381   2.316   0.366  0.0221 -0.3755 -1.0010
11444TIP3    H255824   3.303   2.187   0.350 -1.3983  0.1555  1.4255
11445TIP3   OH255825   1.308   2.565   0.407  0.5471  0.1706  0.1446
11445TIP3    H155826   1.299   2.470   0.418  0.3119  0.2557  0.7049
11445TIP3    H255827   1.314   2.599   0.496  1.9467  0.5610 -0.0890
11446TIP3   OH255828   3.203   0.780  10.937 -0.2741 -0.2806  0.4595
11446TIP3    H155829   3.231   0.743  10.852  2.6732 -0.2630  1.3643
11446TIP3    H255830   3.252   0.729  11.002 -2.4496 -0.2323  2.1679
11447TIP3   OH255831   2.777   4.909   0.686 -0.3039  0.4993 -0.4912
11447TIP3    H155832   2.779   4.837   0.750  0.1708  1.1630  0.2531
11447TIP3    H255833   2.729   4.979   0.731  1.1487  1.4317 -0.3735
11448TIP3   OH255834   0.705   5.908  16.406  0.1543 -0.2282 -0.5105
11448TIP3    H155835   0.703   5.939  16.315 -1.7108 -0.6661 -0.6274
11448TIP3    H255836   0.718   5.814  16.399  0.7711 -0.1569 -0.3019
11449TIP3   OH255837   3.911   0.035  15.594  0.4610 -0.0865  0.0128
11449TIP3    H155838   3.963   0.111  15.615 -3.4552  2.0878  2.4981
11449TIP3    H255839   3.888  -0.004  15.679 -1.2791 -1.3876 -0.9975
11450TIP3   OH255840   6.722   6.386  13.931  1.0368 -0.3119  0.2230
11450TIP3    H155841   6.655   6.319  13.945  1.0553  0.0241  2.0057
11450TIP3    H255842   6.796   6.357  13.983  1.9942 -0.2491 -1.0838
11451TIP3   OH255843   0.109   2.375  11.507 -0.2269 -0.7132 -0.1215
11451TIP3    H155844   0.124   2.387  11.601 -0.4188 -1.1221 -0.0347
11451TIP3    H255845   0.161   2.444  11.465 -1.2067  0.3297  0.3475
11452TIP3   OH255846   2.868   0.727   0.498  0.1250  0.9368 -0.6268
11452TIP3    H155847   2.909   0.767   0.575 -0.2650 -0.8991  0.5791
11452TIP3    H255848   2.879   0.791   0.428 -1.9876  3.9115  1.6286
11453TIP3   OH255849   5.578   0.952  15.741 -0.5557  0.1931 -0.1271
11453TIP3    H155850   5.608   1.041  15.726 -0.1292  0.0528 -0.1156
11453TIP3    H255851   5.532   0.955  15.826 -0.8403  0.4687 -0.2905
11454TIP3   OH255852   0.522   3.305   5.390  0.3470  0.0028 -0.8913
11454TIP3    H155853   0.615   3.284   5.391  0.2157 -0.5574  0.1063
11454TIP3    H255854   0.518   3.400   5.382  1.0096  0.0980 -0.0656
11455TIP3   OH255855   0.987   1.406  11.541  0.1987 -0.1194  0.1411
11455TIP3    H155856   0.903   1.439  11.572 -0.0648  1.0180 -1.7007
11455TIP3    H255857   0.983   1.311  11.556 -1.4220 -0.0724  0.0282
11456TIP3   OH255858   4.804   1.380   4.731  0.1627  0.5987  0.7203
11456TIP3    H155859   4.733   1.435   4.763  0.6872  2.1900 -0.7247
11456TIP3    H255860   4.774   1.348   4.646  0.3074 -0.4702  1.0647
11457TIP3   OH255861   4.869   6.177   0.466  0.2876  0.5247 -0.5670
11457TIP3    H155862   4.824   6.110   0.518  0.8792  1.5567  1.3216
11457TIP3    H255863   4.938   6.130   0.421 -0.3036 -0.4183 -0.5002
11458TIP3   OH255864   1.590   3.307  16.383 -0.1284  0.2480  0.0708
11458TIP3    H155865   1.587   3.384  16.440  2.9921  0.3737  0.1975
11458TIP3    H255866   1.601   3.343  16.295  2.3693 -0.0066  0.2388
11459TIP3   OH255867   1.777   5.236   4.762 -0.7211  0.1332 -0.5971
11459TIP3    H155868   1.816   5.194   4.839 -0.4797  1.9398  0.2760
11459TIP3    H255869   1.685   5.212   4.766 -1.0333  1.5135  1.1578
11460TIP3   OH255870   2.393   3.536  11.788 -0.2790 -0.2639 -0.1028
11460TIP3    H155871   2.303   3.511  11.767  0.9482 -2.0486 -3.6676
11460TIP3    H255872   2.447   3.464  11.755  2.6518  1.9462 -0.3800
11461TIP3   OH255873   2.342   6.146  11.519 -0.3855  0.2808  0.4785
11461TIP3    H155874   2.399   6.222  11.524  1.4177 -0.8960 -1.0483
11461TIP3    H255875   2.402   6.072  11.505 -2.1391 -1.2943  0.9890
11462TIP3   OH255876   4.473   0.422  11.756  0.7059  0.0315  0.5913
11462TIP3    H155877   4.381   0.447  11.768  0.4521 -1.0774  0.9888
11462TIP3    H255878   4.475   0.381  11.670  0.5882 -1.0447  1.0976
11463TIP3   OH255879   2.334   2.143   1.710  0.0853  0.2206  0.4490
11463TIP3    H155880   2.371   2.156   1.798 -0.7012  3.3542  0.3850
11463TIP3    H255881   2.240   2.146   1.724 -0.0401  0.7019 -0.5051
11464TIP3   OH255882   0.765   0.701  13.978 -0.3301  0.3212 -0.6832
11464TIP3    H155883   0.848   0.661  14.005  0.0293  0.6921 -1.2276
11464TIP3    H255884   0.699   0.660  14.034  0.3988  1.0890  0.7518
11465TIP3   OH255885   1.038   6.185   0.966  0.5749  0.6041  0.2873
11465TIP3    H155886   1.060   6.261   1.020  0.0845  0.2728  0.9586
11465TIP3    H255887   1.017   6.222   0.880  1.2518  1.1414  0.3536
11466TIP3   OH255888   6.303   0.823  15.543 -0.0678  0.1764  0.0642
11466TIP3    H155889   6.298   0.744  15.596 -0.9734  1.0332  1.2978
11466TIP3    H255890   6.219   0.828  15.497 -0.4396  0.9737  0.8151
11467TIP3   OH255891   2.451   0.341  17.196  0.0059  0.3709 -0.3980
11467TIP3    H155892   2.488   0.418  17.239  1.2060 -0.8361  0.7633
11467TIP3    H255893   2.495   0.266  17.237  1.2721 -0.8337 -3.7392
11468TIP3   OH255894   1.756   4.874  15.526 -0.2508 -0.5878  0.3183
11468TIP3    H155895   1.702   4.800  15.497 -2.0118  0.9560 -0.4332
11468TIP3    H255896   1.795   4.908  15.445 -0.4727  0.0856  0.4912
11469TIP3   OH255897   5.799   5.481  14.336 -0.3166  0.0012 -0.4030
11469TIP3    H155898   5.891   5.466  14.317  0.0067  0.0299  1.0382
11469TIP3    H255899   5.791   5.576  14.339  0.0732  0.0084  1.4541
11470TIP3   OH255900   4.589   3.144   5.608 -0.2841 -0.2749  0.5362
11470TIP3    H155901   4.517   3.120   5.551 -0.1059 -1.9284  0.9793
11470TIP3    H255902   4.664   3.155   5.550 -0.5088 -0.2319  0.2575
11471TIP3   OH255903   2.418   1.336   4.963  0.3828  0.1456  0.8527
11471TIP3    H155904   2.401   1.414   4.910 -0.5381 -0.3517  0.4107
11471TIP3    H255905   2.428   1.265   4.899 -2.3094 -0.7597  1.3516
11472TIP3   OH255906   2.247   1.597   4.234  0.3143 -0.2677 -0.2533
11472TIP3    H155907   2.281   1.673   4.186  0.1759 -0.0354  0.0138
11472TIP3    H255908   2.174   1.566   4.181 -0.4995  0.6243  0.3289
11473TIP3   OH255909   6.363   4.291  14.210 -0.0270  0.2053  0.4548
11473TIP3    H155910   6.418   4.240  14.270  1.1173 -0.8286 -1.4219
11473TIP3    H255911   6.299   4.334  14.267  0.7806 -1.0535  2.3722
11474TIP3   OH255912   0.527   0.230   0.921  0.2652 -0.0726  0.1278
11474TIP3    H155913   0.446   0.279   0.914  0.5306  0.3674  0.1136
11474TIP3    H255914   0.554   0.240   1.013  1.5828  1.8481 -0.4320
11475TIP3   OH255915   4.335   2.922  13.798 -0.0986 -0.0414 -0.3168
11475TIP3    H155916   4.339   2.976  13.719  0.8731 -1.2394 -1.1006
11475TIP3    H255917   4.246   2.887  13.799 -1.5914  3.5831  1.5831
11476TIP3   OH255918   4.828   3.534   4.978  0.7782 -0.1736 -0.0544
11476TIP3    H155919   4.920   3.517   4.955  0.0271 -2.2028 -1.7221
11476TIP3    H255920   4.778   3.484   4.914 -1.5315  1.6731  0.2559
11477TIP3   OH255921   2.184   4.443  15.581 -0.3286 -0.8956  0.4946
11477TIP3    H155922   2.139   4.517  15.621  0.6996  0.4568 -0.8058
11477TIP3    H255923   2.261   4.430  15.637 -0.7196 -1.2524  0.9557
11478TIP3   OH255924   6.571   5.385   5.113 -0.2128 -1.0754  0.6345
11478TIP3    H155925   6.489   5.359   5.072 -0.0922  1.0417 -1.0110
11478TIP3    H255926   6.558   5.475   5.140  1.2857 -0.9683  1.0728
11479TIP3   OH255927   4.007   1.280   5.988  0.1543 -0.4185  0.3782
11479TIP3    H155928   4.027   1.299   5.896 -0.5930  1.9968  0.6775
11479TIP3    H255929   4.085   1.234   6.020  1.2609  0.4912 -0.9254
11480TIP3   OH255930   5.798   3.138  14.029 -0.2520  0.2764  0.0165
11480TIP3    H155931   5.745   3.210  13.995  0.3078  0.5849 -0.2130
11480TIP3    H255932   5.735   3.069  14.050 -0.4981 -0.3752 -2.7415
11481TIP3   OH255933   4.227   0.909   3.273  0.6619  0.1390  0.3873
11481TIP3    H155934   4.254   0.986   3.224  0.3804 -0.5574 -0.8881
11481TIP3    H255935   4.268   0.836   3.227 -1.0306 -0.6800  0.1492
11482TIP3   OH255936   6.055   0.146   1.471 -0.4581 -0.4234 -0.3748
11482TIP3    H155937   6.070   0.228   1.518  1.1648 -0.6369 -0.4814
11482TIP3    H255938   6.142   0.119   1.442 -1.4095 -0.2242 -3.6486
11483TIP3   OH255939   6.551   0.417   4.827  0.1030 -0.1797  0.2881
11483TIP3    H155940   6.501   0.346   4.787 -2.0016 -0.6654  3.5957
11483TIP3    H255941   6.485   0.478   4.860  1.7646  1.0412  1.4925
11484TIP3   OH255942   4.267   1.459   4.824 -0.1295 -0.4762 -0.4357
11484TIP3    H155943   4.211   1.422   4.756  0.4661 -0.0216 -1.1890
11484TIP3    H255944   4.212   1.523   4.868 -0.4146 -0.5215 -0.7262
11485TIP3   OH255945   3.792   2.066  13.771 -0.2616 -0.1399  0.0352
11485TIP3    H155946   3.872   2.056  13.720  1.2869  1.4374  2.0429
11485TIP3    H255947   3.801   2.002  13.842 -0.9494 -0.2161  0.0554
11486TIP3   OH255948   0.069   4.152  16.866 -0.3975  0.4316 -0.1712
11486TIP3    H155949   0.013   4.127  16.793 -1.0392 -0.0558  0.4807
11486TIP3    H255950   0.042   4.242  16.888 -0.0618  0.6515 -0.6676
11487TIP3   OH255951   3.001   1.708  11.158 -0.1435 -0.9501 -0.0061
11487TIP3    H155952   2.957   1.639  11.207 -0.2110 -1.3544 -0.6301
11487TIP3    H255953   2.936   1.779  11.153 -0.2966 -1.0817  0.1110
11488TIP3   OH255954   4.871   1.652   5.431 -0.4102  0.4947  0.0820
11488TIP3    H155955   4.906   1.653   5.520  0.3534 -1.6249 -0.1773
11488TIP3    H255956   4.913   1.727   5.388  0.2278  0.7366  1.1157
11489TIP3   OH255957   6.153   3.797  15.776  0.1673  0.3806 -0.0367
11489TIP3    H155958   6.145   3.837  15.863  2.1391  1.1286 -0.1611
11489TIP3    H255959   6.070   3.815  15.734 -0.0410  1.8682  0.9612
11490TIP3   OH255960   0.702   2.491  13.285 -0.1106 -0.0678 -0.3676
11490TIP3    H155961   0.746   2.572  13.260  0.2248 -0.2463 -0.3500
11490TIP3    H255962   0.665   2.459  13.203  1.7371 -1.1093 -0.8168
11491TIP3   OH255963   2.806   5.760   6.352  0.1667  0.2464 -0.0701
11491TIP3    H155964   2.872   5.822   6.382 -1.9753  1.0806  3.1541
11491TIP3    H255965   2.723   5.796   6.384 -1.5686 -2.1412 -1.7190
11492TIP3   OH255966   4.912   4.220   2.948  0.2103  0.1906  0.2943
11492TIP3    H155967   4.985   4.164   2.974 -1.8485 -0.8874  4.1548
11492TIP3    H255968   4.945   4.271   2.875  3.2040 -3.8176 -1.3201
11493TIP3   OH255969   5.728   4.266   6.608 -0.2113  0.1654  0.4633
11493TIP3    H155970   5.690   4.345   6.646 -0.4197  1.4052 -2.1348
11493TIP3    H255971   5.820   4.290   6.592 -0.2133 -0.1953 -0.0990
11494TIP3   OH255972   4.102   0.137  12.415  0.4044 -0.2167  0.2415
11494TIP3    H155973   4.189   0.143  12.455  0.3303 -0.7891  0.4851
11494TIP3    H255974   4.107   0.060  12.359 -0.0536 -0.4567  0.5282
11495TIP3   OH255975   3.612   5.932  12.640 -0.0173 -0.2337 -0.4517
11495TIP3    H155976   3.585   6.005  12.696  0.6806  1.0549 -1.7368
11495TIP3    H255977   3.535   5.912  12.587  0.1645  0.4266 -0.9740
11496TIP3   OH255978   6.307   5.685  16.286  0.1900 -0.8119 -0.2563
11496TIP3    H155979   6.250   5.761  16.297  0.1673 -1.1138  1.9798
11496TIP3    H255980   6.380   5.701  16.347  0.1069 -2.6243  0.3450
11497TIP3   OH255981   1.301   5.322  14.426 -0.4632  0.6037  0.2376
11497TIP3    H155982   1.282   5.309  14.334 -0.1555 -0.8502  0.3727
11497TIP3    H255983   1.373   5.384  14.427 -0.5670  0.7424 -0.4891
11498TIP3   OH255984   4.796   2.377  17.181 -0.5508 -0.5482 -0.4163
11498TIP3    H155985   4.802   2.287  17.147 -2.1797 -0.8025 -0.0864
11498TIP3    H255986   4.850   2.377  17.260 -0.7843 -1.3290 -0.2518
11499TIP3   OH255987   0.038   2.223  11.943  0.0840 -0.1399 -0.0139
11499TIP3    H155988  -0.049   2.244  11.909 -1.1713  1.6195  3.9655
11499TIP3    H255989   0.098   2.275  11.890 -1.4611  0.1226 -1.5575
11500TIP3   OH255990   5.160   0.377  15.210 -0.5738 -0.4656  0.4421
11500TIP3    H155991   5.197   0.319  15.143  0.2740 -0.5243  0.9434
11500TIP3    H255992   5.150   0.322  15.287  0.2302  0.0294  0.9205
11501TIP3   OH255993   5.638   0.008  11.390  0.0496 -0.3255  0.5009
11501TIP3    H155994   5.731   0.026  11.401  0.0183 -0.3442  0.8067
11501TIP3    H255995   5.631  -0.087  11.387  0.2088 -0.2894 -1.0480
11502TIP3   OH255996   1.532   2.839   4.876  0.7696  0.0964  0.2705
11502TIP3    H155997   1.559   2.883   4.957  2.8832  0.5145 -0.6404
11502TIP3    H255998   1.506   2.751   4.904 -0.6504  0.9385  1.6968
11503TIP3   OH255999   2.154   0.677   0.227 -0.0275  0.1530  0.4193
11503TIP3    H156000   2.181   0.755   0.276  1.1797  0.7096 -1.1119
11503TIP3    H256001   2.155   0.704   0.136 -2.0327 -0.9530  0.0344
11504TIP3   OH256002   1.036   0.636  14.007  0.5651 -0.1792 -0.1092
11504TIP3    H156003   1.054   0.724  13.974 -0.7478  0.2398  0.2699
11504TIP3    H256004   1.076   0.578  13.943  2.2915  0.7025  0.1481
11505TIP3   OH256005   5.817   2.958  15.472  0.0514 -0.0831  0.2930
11505TIP3    H156006   5.792   2.885  15.416  0.0507 -0.0452  0.2438
11505TIP3    H256007   5.868   3.016  15.415 -1.3689  0.7918 -0.1219
11506TIP3   OH256008   0.402   3.497   0.112  0.0870  0.4840  0.0683
11506TIP3    H156009   0.378   3.418   0.162  0.3521 -0.3925 -1.1780
11506TIP3    H256010   0.436   3.557   0.179 -0.3176 -0.3702  1.0681
11507TIP3   OH256011   2.931   3.526  12.279  0.3375  0.2764  0.5746
11507TIP3    H156012   3.011   3.490  12.243 -0.1464 -0.2606  0.0233
11507TIP3    H256013   2.940   3.621  12.268 -0.2067  0.0847 -1.8393
11508TIP3   OH256014   1.434   6.541   1.983  0.0269 -0.7784  0.4328
11508TIP3    H156015   1.342   6.547   1.958  0.2016  0.1933 -0.0030
11508TIP3    H256016   1.449   6.618   2.038  0.7959 -0.4587 -0.2159
11509TIP3   OH256017   2.582   4.877  15.752 -0.3550  0.4704 -0.1680
11509TIP3    H156018   2.639   4.941  15.709 -1.5679 -0.7090 -3.7609
11509TIP3    H256019   2.493   4.902  15.724 -1.3024  0.0788  2.3500
11510TIP3   OH256020   3.788   5.377  11.725  0.1159  0.1637  0.0240
11510TIP3    H156021   3.848   5.443  11.690 -0.2651  1.4729  1.7451
11510TIP3    H256022   3.798   5.302  11.667  1.0257  1.5171 -1.6138
11511TIP3   OH256023   4.226   5.369  14.746 -0.0396 -0.4640 -0.3666
11511TIP3    H156024   4.242   5.287  14.700  0.1381  0.6889 -2.3833
11511TIP3    H256025   4.249   5.438  14.684  1.0513  1.1364  1.7168
11512TIP3   OH256026   1.469   5.155  16.253  0.3134 -0.5003  0.2895
11512TIP3    H156027   1.489   5.101  16.177  1.3515 -1.1501  1.0233
11512TIP3    H256028   1.374   5.144  16.265 -0.3720  1.6678 -2.4654
11513TIP3   OH256029   4.985   1.186  17.155 -0.1524 -0.0449 -0.4786
11513TIP3    H156030   5.070   1.163  17.117 -0.7889 -0.5699 -1.6031
11513TIP3    H256031   4.989   1.152  17.244  0.3810 -1.1051 -0.8916
11514TIP3   OH256032   4.341   1.908   2.107  0.0921 -0.3047  0.1766
11514TIP3    H156033   4.267   1.899   2.048 -1.0085 -0.2449  1.5357
11514TIP3    H256034   4.382   1.991   2.081 -0.4609 -0.2100 -0.4086
11515TIP3   OH256035   0.756   5.242  13.562 -0.1322 -0.2077 -0.9368
11515TIP3    H156036   0.772   5.227  13.469  2.8112 -0.1020 -0.5007
11515TIP3    H256037   0.725   5.158  13.595  2.6005 -1.4184 -1.2951
11516TIP3   OH256038   5.615   3.459   1.488  0.5959 -0.6090 -0.5825
11516TIP3    H156039   5.554   3.523   1.526  1.2301 -0.5801  0.3993
11516TIP3    H256040   5.560   3.405   1.431 -0.2864 -0.3351 -0.0136
11517TIP3   OH256041   1.115   3.650  13.551 -0.4052 -0.0828  0.2927
11517TIP3    H156042   1.189   3.602  13.590  0.4564 -0.2359 -1.4650
11517TIP3    H256043   1.039   3.624  13.603  0.6325 -0.6470  1.5503
11518TIP3   OH256044   1.725   1.832   3.502 -0.3124  0.4624 -0.1019
11518TIP3    H156045   1.649   1.805   3.554 -1.0090  3.3952  0.4795
11518TIP3    H256046   1.795   1.842   3.567 -0.0232 -0.0434 -0.3342
11519TIP3   OH256047   6.476   2.039  16.841  0.0024  0.6727 -0.7988
11519TIP3    H156048   6.515   2.090  16.770 -0.0518  1.9844  0.0868
11519TIP3    H256049   6.446   2.105  16.904  0.1033 -0.4663  0.4592
11520TIP3   OH256050   0.541   3.403  15.511  0.7176 -0.2066 -0.0026
11520TIP3    H156051   0.446   3.409  15.511  0.6839  0.4648 -3.0148
11520TIP3    H256052   0.571   3.492  15.529  0.8462 -0.7298  2.5936
11521TIP3   OH256053   4.224   2.599   1.495 -0.5624 -0.4222 -0.2934
11521TIP3    H156054   4.198   2.618   1.585 -2.8319  0.0165 -1.0254
11521TIP3    H256055   4.146   2.616   1.443  1.1266  0.6738 -2.5278
11522TIP3   OH256056   3.406   3.771  14.717  0.4395 -0.2320 -0.4615
11522TIP3    H156057   3.328   3.729  14.681  1.1861 -0.7457 -1.5042
11522TIP3    H256058   3.372   3.843  14.770 -0.7105 -0.0158 -1.4791
11523TIP3   OH256059   1.165   4.480  11.670  0.2036  0.1264 -0.6397
11523TIP3    H156060   1.175   4.573  11.691  0.1479  0.1370 -0.6614
11523TIP3    H256061   1.134   4.440  11.751  0.0907  0.1515 -0.6697
11524TIP3   OH256062   0.910   6.346  14.881  0.8241  0.9051 -0.4406
11524TIP3    H156063   0.995   6.321  14.916 -0.4947 -3.1106  0.1134
11524TIP3    H256064   0.912   6.317  14.790 -0.8391 -1.6002  0.2756
11525TIP3   OH256065   5.407   6.208  11.889  0.1870 -0.4122 -0.0594
11525TIP3    H156066   5.390   6.135  11.948  2.3159  0.8376  2.2194
11525TIP3    H256067   5.498   6.196  11.862  0.1013  0.6159 -0.8254
11526TIP3   OH256068   2.246   5.731   0.539 -0.1200  0.3763 -0.0575
11526TIP3    H156069   2.246   5.686   0.454 -0.1528  3.5658 -1.8074
11526TIP3    H256070   2.339   5.741   0.560 -0.1112 -0.3347  0.2651
11527TIP3   OH256071   5.589   3.158  11.545  0.6548  0.3081  0.9826
11527TIP3    H156072   5.534   3.083  11.567 -0.0307  0.3962 -0.4054
11527TIP3    H256073   5.528   3.229  11.526  1.2944  1.2100  2.1832
11528TIP3   OH256074   0.631   6.172  11.509  0.1625  0.3011  0.4584
11528TIP3    H156075   0.571   6.138  11.443 -1.0548  2.5892  0.3533
11528TIP3    H256076   0.673   6.094  11.545 -0.9851 -1.1463 -1.2684
11529TIP3   OH256077   0.643   4.953   4.910  0.0947  0.0612  0.5284
11529TIP3    H156078   0.736   4.972   4.916  0.1203 -0.1126  0.7049
11529TIP3    H256079   0.601   5.010   4.974 -0.0093  0.7352 -0.1356
11530TIP3   OH256080   2.176   4.149   4.555  0.5706  0.0328  0.0139
11530TIP3    H156081   2.144   4.239   4.560  0.6769  0.1042 -0.5674
11530TIP3    H256082   2.164   4.114   4.644 -0.3580  0.3117  0.0041
11531TIP3   OH256083   1.835   6.799  14.182 -0.0738  0.0752  0.3077
11531TIP3    H156084   1.924   6.808  14.148 -0.0885  0.8188  0.4689
11531TIP3    H256085   1.823   6.704  14.191 -0.5939 -0.2709 -3.1354
11532TIP3   OH256086   2.234   4.110  15.155 -0.3816 -0.0994 -0.4211
11532TIP3    H156087   2.254   4.028  15.201  0.5704 -0.1025 -0.8343
11532TIP3    H256088   2.292   4.110  15.079 -0.1311  1.1208 -0.2468
11533TIP3   OH256089   5.064   5.751  13.000  0.0567  0.6797  0.1667
11533TIP3    H156090   4.990   5.796  12.958 -0.1759  1.3489  1.2686
11533TIP3    H256091   5.037   5.659  13.004 -0.5956  0.8786  0.3273
11534TIP3   OH256092   6.339   1.531  16.950 -0.2900 -0.0677 -0.1786
11534TIP3    H156093   6.289   1.551  17.029 -0.3947  0.1678 -0.3055
11534TIP3    H256094   6.329   1.437  16.938 -1.4682  0.1266 -0.7280
11535TIP3   OH256095   2.987   0.723   4.971  0.1270 -0.0942  0.2866
11535TIP3    H156096   2.943   0.807   4.966  0.6409  0.1307 -0.7101
11535TIP3    H256097   2.967   0.681   4.887  0.2210 -0.7840  0.6071
11536TIP3   OH256098   2.818   1.506  11.348 -0.7780  0.3169  0.0771
11536TIP3    H156099   2.741   1.492  11.294  0.1460 -1.1670 -0.8949
11536TIP3    H256100   2.821   1.429  11.406  1.3895 -0.9665 -1.6626
11537TIP3   OH256101   3.012   3.623  13.055 -0.4602 -0.1535 -0.1954
11537TIP3    H156102   2.980   3.711  13.036 -0.4892 -0.1950 -0.3389
11537TIP3    H256103   3.009   3.616  13.151 -1.7538 -0.4804 -0.2546
11538TIP3   OH256104   1.455   3.787   1.306  0.9166  0.5348 -0.4691
11538TIP3    H156105   1.370   3.830   1.316  0.4501  0.0550 -2.1379
11538TIP3    H256106   1.434   3.701   1.271  2.0859  0.4549 -0.9976
11539TIP3   OH256107   6.160   4.607  15.133  0.1068 -0.7207 -0.0847
11539TIP3    H156108   6.202   4.673  15.078  1.1895  1.1579  2.8374
11539TIP3    H256109   6.219   4.598  15.208 -0.8098 -3.9117  0.2999
11540TIP3   OH256110   2.813   2.380  10.582 -0.4636  0.3251  0.3704
11540TIP3    H156111   2.723   2.354  10.561 -0.7410  2.3726 -1.1929
11540TIP3    H256112   2.862   2.363  10.502  0.2292  0.5854  0.7383
11541TIP3   OH256113   6.608   2.533   1.661 -0.6167 -0.5157 -0.0736
11541TIP3    H156114   6.690   2.486   1.675 -0.7680 -0.6848  0.2414
11541TIP3    H256115   6.542   2.464   1.654 -0.8657 -0.3443  0.5652
11542TIP3   OH256116   0.557   6.021   5.001  0.6622 -0.4835  0.0742
11542TIP3    H156117   0.528   5.978   5.081  0.5463  0.1104  0.3519
11542TIP3    H256118   0.582   5.949   4.943 -0.3386 -0.9588  0.2286
11543TIP3   OH256119   5.554   1.600   5.746 -0.3261  0.3589 -0.1395
11543TIP3    H156120   5.558   1.640   5.832  0.0256  1.0828 -0.4842
11543TIP3    H256121   5.475   1.636   5.706  0.2246  1.0808 -0.6155
11544TIP3   OH256122   0.109   6.197   0.804  1.0481 -0.3751 -0.0479
11544TIP3    H156123   0.181   6.260   0.795 -0.0342  0.8417 -0.3956
11544TIP3    H256124   0.031   6.252   0.809  0.1712 -1.6742  0.6057
11545TIP3   OH256125   6.415   3.412  14.323 -0.0755 -0.0600  0.0700
11545TIP3    H156126   6.365   3.422  14.404 -0.8880  0.4428 -0.4861
11545TIP3    H256127   6.478   3.343  14.342 -0.1603  0.1615  1.1847
11546TIP3   OH256128   2.849   2.298   0.609 -0.4109 -0.3098 -0.0780
11546TIP3    H156129   2.909   2.264   0.676  1.1467  2.5188  0.0352
11546TIP3    H256130   2.878   2.254   0.528  0.3415 -0.6902  0.3858
11547TIP3   OH256131   0.848   0.999   4.859 -0.0013 -0.0973  0.5843
11547TIP3    H156132   0.830   0.914   4.899 -0.2467 -0.5970 -0.5608
11547TIP3    H256133   0.866   0.978   4.768 -0.4577  1.1263  0.2095
11548TIP3   OH256134   5.852   3.506  10.636  0.7051 -0.6211 -0.1771
11548TIP3    H156135   5.863   3.598  10.659 -0.7241 -0.4503 -0.1840
11548TIP3    H256136   5.926   3.488  10.578 -0.2376  1.1302 -2.0058
11549TIP3   OH256137   3.223   4.775   0.139 -0.5191  0.9641 -0.1908
11549TIP3    H156138   3.301   4.744   0.185  0.1156  4.4242  1.2089
11549TIP3    H256139   3.151   4.763   0.201 -0.5031  1.0134 -0.1623
11550TIP3   OH256140   0.513   1.751  15.765  0.4789  0.1740 -0.1524
11550TIP3    H156141   0.435   1.764  15.819 -0.0075 -0.7837 -0.5997
11550TIP3    H256142   0.562   1.681  15.809  1.0294  0.6914  0.0648
11551TIP3   OH256143   4.266   1.056   3.819 -0.5810  0.0746 -0.6526
11551TIP3    H156144   4.194   1.031   3.761 -0.7690  1.1258 -0.8957
11551TIP3    H256145   4.345   1.035   3.770 -0.7408  1.3819 -1.4948
11552TIP3   OH256146   0.078   3.703  10.445 -0.1826 -0.5383  0.5296
11552TIP3    H156147   0.047   3.787  10.411  1.5808  1.2084  3.1060
11552TIP3    H256148   0.023   3.686  10.521 -1.0432 -2.1522 -0.4145
11553TIP3   OH256149   1.163   2.280  14.204 -0.4542 -0.4668  0.3320
11553TIP3    H156150   1.160   2.194  14.246 -0.6903 -1.5585 -1.8318
11553TIP3    H256151   1.186   2.261  14.113 -0.9942  1.7250 -0.2858
11554TIP3   OH256152   2.415   3.762   1.971  0.0045  0.4899 -0.2976
11554TIP3    H156153   2.507   3.733   1.975  0.1014  0.8958  0.3392
11554TIP3    H256154   2.418   3.846   1.926  0.1112  1.2556  1.1484
11555TIP3   OH256155   0.509   5.563  12.014 -0.5870 -0.3247 -0.1522
11555TIP3    H156156   0.487   5.484  11.966 -0.6427 -0.0805 -0.5293
11555TIP3    H256157   0.585   5.538  12.068  1.1787  0.1257 -2.3685
11556TIP3   OH256158   1.060   5.469   1.579  0.2510 -0.0348  0.1254
11556TIP3    H156159   1.151   5.441   1.568  0.2836  0.5770 -1.1980
11556TIP3    H256160   1.058   5.560   1.551 -1.3421 -0.8691 -2.6507
11557TIP3   OH256161   3.885   3.576  17.132 -0.5525  0.3654  0.3425
11557TIP3    H156162   3.875   3.483  17.152  0.3800  0.3767  0.8921
11557TIP3    H256163   3.976   3.584  17.102 -1.2966  0.7053 -1.9297
11558TIP3   OH256164   0.633   1.139  15.293  0.2459 -0.0042  0.1188
11558TIP3    H156165   0.667   1.210  15.238  2.5180 -2.1008 -1.2890
11558TIP3    H256166   0.677   1.150  15.377  0.3896  0.3882 -0.0063
11559TIP3   OH256167   4.609   3.781  12.636 -0.5203 -0.2671 -0.5213
11559TIP3    H156168   4.665   3.709  12.664 -0.9994 -1.2162 -1.9128
11559TIP3    H256169   4.671   3.851  12.612  0.0269 -0.9039 -0.9950
11560TIP3   OH256170   5.382   1.261   2.262 -0.1647  0.7805 -0.8242
11560TIP3    H156171   5.300   1.311   2.261 -0.4510  0.3684  0.6021
11560TIP3    H256172   5.444   1.315   2.213 -0.2902  2.8646  1.2336
11561TIP3   OH256173   4.185   1.478  13.619  0.0960 -0.2169 -0.0056
11561TIP3    H156174   4.153   1.391  13.593  2.9190 -1.0374 -0.9812
11561TIP3    H256175   4.136   1.499  13.698 -2.8527 -1.3110 -1.4711
11562TIP3   OH256176   0.813   4.860  11.746 -0.7567  0.4300 -0.0169
11562TIP3    H156177   0.847   4.949  11.745  1.6233 -0.4441 -0.1460
11562TIP3    H256178   0.789   4.842  11.656 -0.6985  0.7468 -0.0965
11563TIP3   OH256179   4.597   4.958   4.877 -0.7883 -0.0042  0.5267
11563TIP3    H156180   4.609   5.053   4.871 -1.0197 -0.0293 -0.4646
11563TIP3    H256181   4.686   4.923   4.885 -0.6945  0.2911  0.7505
11564TIP3   OH256182   5.576   4.698   1.620  0.3282  0.1353  0.0971
11564TIP3    H156183   5.533   4.687   1.705  2.1336 -0.4613  0.9635
11564TIP3    H256184   5.553   4.619   1.571  0.2412 -0.0665  0.4624
11565TIP3   OH256185   5.058   6.661   3.407 -0.9068  0.2280  0.0988
11565TIP3    H156186   5.037   6.576   3.368 -0.1823 -0.6244  1.5446
11565TIP3    H256187   5.016   6.659   3.493 -0.6276  1.2223  0.2624
11566TIP3   OH256188   1.647   2.495  13.468 -0.7424  0.0525 -0.1794
11566TIP3    H156189   1.625   2.575  13.515 -1.6662  0.1193 -0.7173
11566TIP3    H256190   1.609   2.424  13.520  0.8003 -0.1345  0.7556
11567TIP3   OH256191   1.980   6.793  11.023  0.2988  0.3449 -0.0211
11567TIP3    H156192   1.989   6.830  10.935 -0.9349  1.7203  0.4059
11567TIP3    H256193   1.889   6.810  11.047  0.2861 -1.1434  1.0366
11568TIP3   OH256194   5.642   3.402   6.371  0.2033  0.3405 -0.3318
11568TIP3    H156195   5.573   3.469   6.369  0.3128  0.4203 -1.6153
11568TIP3    H256196   5.626   3.355   6.453 -0.4257  1.3586  0.1427
11569TIP3   OH256197   3.329   4.200  11.533 -0.3798  0.5509 -0.1052
11569TIP3    H156198   3.270   4.158  11.596 -0.9453  1.2418 -0.1605
11569TIP3    H256199   3.378   4.264  11.585  1.2710 -0.9282  0.1909
11570TIP3   OH256200   3.998   3.883  14.350 -0.4538  0.2234 -0.3047
11570TIP3    H156201   3.974   3.875  14.257 -0.7630 -0.8947 -0.1400
11570TIP3    H256202   4.082   3.928  14.349 -1.2587  1.7392 -1.0360
11571TIP3   OH256203   0.341   0.314  13.077  0.2227  0.5824  0.5097
11571TIP3    H156204   0.326   0.268  12.995 -1.2026  1.2216  0.3940
11571TIP3    H256205   0.381   0.249  13.135  0.5711 -0.0709 -0.4643
11572TIP3   OH256206   1.898   6.616  13.575 -0.2084  0.2975 -0.0871
11572TIP3    H156207   1.887   6.523  13.552 -0.4715  0.0001  1.2261
11572TIP3    H256208   1.877   6.663  13.494 -0.3664 -0.7702 -0.6772
11573TIP3   OH256209   1.868   5.726   1.334  0.1432  0.2420 -0.0858
11573TIP3    H156210   1.878   5.642   1.378  1.7972  0.3690 -0.1708
11573TIP3    H256211   1.860   5.790   1.406 -0.2927  0.1113 -0.0156
11574TIP3   OH256212   3.430   2.442   4.129  0.2310  0.1418 -0.2231
11574TIP3    H156213   3.510   2.399   4.098  0.3107  0.8875 -1.0914
11574TIP3    H256214   3.448   2.464   4.220  0.9101  0.0501 -0.3324
11575TIP3   OH256215   5.042   6.179   0.764 -0.1899  0.7031 -0.3930
11575TIP3    H156216   5.072   6.235   0.692  1.5349  2.3462  1.5275
11575TIP3    H256217   5.105   6.194   0.834 -1.7635 -0.9382  1.4461
11576TIP3   OH256218   6.025   2.054  14.256 -0.0712  0.0553 -0.1755
11576TIP3    H156219   6.027   2.121  14.324  0.2679  0.7107 -0.8261
11576TIP3    H256220   5.944   2.005  14.273 -0.5241  0.8796  0.0637
11577TIP3   OH256221   2.246   3.508  14.970  0.3184 -0.5244 -0.0792
11577TIP3    H156222   2.276   3.422  14.941  0.7315 -0.5698  0.4600
11577TIP3    H256223   2.302   3.528  15.046  1.2375  0.8728 -1.1117
11578TIP3   OH256224   0.578   2.520  14.722  0.0464 -0.6000 -0.2245
11578TIP3    H156225   0.495   2.473  14.724 -1.1023  1.2805 -1.3816
11578TIP3    H256226   0.555   2.610  14.746  2.1639 -0.5577  1.8926
11579TIP3   OH256227   6.675   5.762  11.841  0.0959  0.6698  0.1322
11579TIP3    H156228   6.687   5.786  11.934  1.4260  0.5906  0.0012
11579TIP3    H256229   6.617   5.829  11.806 -0.4919  0.6478  1.0572
11580TIP3   OH256230   0.763   4.035  14.423  0.0961  0.3188  0.1270
11580TIP3    H156231   0.702   3.962  14.408  1.0284 -0.1623 -1.4716
11580TIP3    H256232   0.709   4.103  14.463 -0.7265 -1.3346  1.9004
11581TIP3   OH256233   4.930   3.009  11.338  0.2666  0.3152  0.0391
11581TIP3    H156234   4.843   2.969  11.347  0.6431 -0.7244 -0.7449
11581TIP3    H256235   4.944   3.055  11.421 -1.7448  1.9609 -0.4792
11582TIP3   OH256236   6.801   4.241  16.593  0.0509  0.1640 -0.4337
11582TIP3    H156237   6.724   4.194  16.625  1.3340 -1.5616  0.2156
11582TIP3    H256238   6.769   4.292  16.519 -2.5327  2.4624  2.1166
11583TIP3   OH256239   3.060   2.143   4.039  0.2531  0.2795 -0.0265
11583TIP3    H156240   3.077   2.237   4.031 -0.8116  0.8731  3.4524
11583TIP3    H256241   3.131   2.110   4.095  0.7365 -1.0465 -1.3910
11584TIP3   OH256242   3.779   4.694   5.488 -0.0719  0.0217  0.4865
11584TIP3    H156243   3.814   4.709   5.575 -1.4704  2.1155  0.7522
11584TIP3    H256244   3.693   4.737   5.490 -0.4888 -0.6666 -1.6340
11585TIP3   OH256245   2.540   5.836  16.193 -0.0154 -0.1221 -0.0398
11585TIP3    H156246   2.581   5.807  16.111 -0.6347 -0.5383 -0.2107
11585TIP3    H256247   2.465   5.889  16.164 -0.2501 -0.2919  0.2567
11586TIP3   OH256248   0.132   0.083  12.577 -0.3983  0.2669  0.2070
11586TIP3    H156249   0.217   0.063  12.614 -0.0411  0.1467 -0.6625
11586TIP3    H256250   0.151   0.136  12.500 -0.7483 -3.9980 -2.9986
11587TIP3   OH256251   3.615   0.355   4.888 -0.2120  0.2819  0.1306
11587TIP3    H156252   3.542   0.322   4.940 -0.1125  0.8959  0.6601
11587TIP3    H256253   3.584   0.438   4.852  0.3374  0.6891  0.6022
11588TIP3   OH256254   2.215   5.207   4.362  0.0992  0.1223 -0.1257
11588TIP3    H156255   2.208   5.128   4.308  1.1587 -0.4902  0.6041
11588TIP3    H256256   2.137   5.206   4.417 -1.3519  1.1205 -2.1006
11589TIP3   OH256257   3.101   1.938  13.663 -0.0059  0.3033 -0.4209
11589TIP3    H156258   3.039   1.865  13.658  0.1990  0.1916 -1.3903
11589TIP3    H256259   3.047   2.015  13.679 -0.2255 -0.0610  0.5929
11590TIP3   OH256260   6.300   4.976   1.285  0.0226  0.6073 -0.0011
11590TIP3    H156261   6.307   4.989   1.190  1.5898 -0.1521 -0.0235
11590TIP3    H256262   6.238   4.904   1.295  1.2857 -0.5861 -0.5751
11591TIP3   OH256263   2.904   1.886  10.603  0.2568  0.1597 -0.4966
11591TIP3    H156264   2.832   1.947  10.618  0.4204  0.3438 -0.4552
11591TIP3    H256265   2.981   1.932  10.636  0.6155  0.5398 -1.8202
11592TIP3   OH256266   3.712   4.062   0.992 -0.2894 -0.2376  0.6319
11592TIP3    H156267   3.789   4.036   0.941 -0.1430  1.0890  0.1358
11592TIP3    H256268   3.736   4.044   1.083  0.7798  0.5169  0.5209
11593TIP3   OH256269   1.038   0.893  11.706  0.7564  0.2402 -0.0981
11593TIP3    H156270   1.120   0.861  11.668  1.6088  1.2560  0.8594
11593TIP3    H256271   1.064   0.940  11.784 -0.8712 -0.6531  1.0299
11594TIP3   OH256272   4.538   6.544   3.160 -0.3887 -0.5523  0.0803
11594TIP3    H156273   4.556   6.453   3.138 -1.2333 -0.7979  0.3755
11594TIP3    H256274   4.555   6.549   3.254  2.8632  0.4062 -0.5247
11595TIP3   OH256275   0.725   1.859  17.098 -0.5762 -0.2247  0.3926
11595TIP3    H156276   0.751   1.882  17.187 -1.0666 -0.4981  0.6116
11595TIP3    H256277   0.785   1.907  17.042  0.6720 -1.1742  0.8911
11596TIP3   OH256278   3.441   6.611  13.273  0.4168 -0.4519 -0.1678
11596TIP3    H156279   3.434   6.519  13.300  0.1632 -0.6873 -1.0091
11596TIP3    H256280   3.517   6.613  13.215 -0.1775 -0.3297 -0.9482
11597TIP3   OH256281   0.577   1.661  12.342 -0.2873 -0.4785  0.2215
11597TIP3    H156282   0.604   1.612  12.264 -1.9337  0.3547 -0.9019
11597TIP3    H256283   0.564   1.751  12.310  0.0781  0.1217  1.6947
11598TIP3   OH256284   4.912   3.706   3.231 -0.3470  0.9382 -0.2675
11598TIP3    H156285   4.972   3.685   3.160  2.1902  2.4513  1.3554
11598TIP3    H256286   4.961   3.766   3.287 -2.6322  0.5775  2.2269
11599TIP3   OH256287   4.444   0.715   0.908  0.6861 -0.2175 -0.1457
11599TIP3    H156288   4.357   0.678   0.922  0.8443 -0.6012 -0.1792
11599TIP3    H256289   4.428   0.796   0.859  0.2693  0.2071  0.6789
11600TIP3   OH256290   2.847   2.070   4.378 -0.5168 -0.1696 -0.0792
11600TIP3    H156291   2.897   1.990   4.364 -0.6717 -0.1852 -0.5779
11600TIP3    H256292   2.826   2.100   4.290 -0.6937  0.2706  0.1136
11601TIP3   OH256293   1.215   3.111   2.071 -0.3797 -0.1514  0.5527
11601TIP3    H156294   1.266   3.030   2.079  0.1728 -0.0454 -1.6754
11601TIP3    H256295   1.134   3.093   2.119 -0.7355 -2.4382 -0.8321
11602TIP3   OH256296   1.260   1.469   2.184  0.0201 -0.3216  0.5061
11602TIP3    H156297   1.187   1.448   2.242  1.0015 -1.1104  1.4778
11602TIP3    H256298   1.291   1.554   2.214 -0.7951  0.2380 -0.2187
11603TIP3   OH256299   4.380   4.001   4.791 -0.6069  0.1960 -0.6639
11603TIP3    H156300   4.390   3.919   4.742 -1.6358 -0.9947  1.0904
11603TIP3    H256301   4.340   3.976   4.873 -0.4743  2.4172  0.1230
11604TIP3   OH256302   3.483   0.001  12.766 -0.6385  0.1089 -0.3850
11604TIP3    H156303   3.488   0.083  12.717  1.5343 -0.1325 -0.6138
11604TIP3    H256304   3.567  -0.005  12.811 -0.6395 -2.1386 -0.6233
11605TIP3   OH256305   3.701   2.464  15.440  0.5580 -0.1664  0.7719
11605TIP3    H156306   3.782   2.456  15.489  0.7395 -1.1636  0.3259
11605TIP3    H256307   3.727   2.503  15.356  0.3916  0.6427  1.0928
11606TIP3   OH256308   6.154   0.717  11.926 -0.5605 -0.2257  0.5039
11606TIP3    H156309   6.176   0.635  11.972 -1.0943  0.3201  1.7698
11606TIP3    H256310   6.175   0.786  11.989 -0.7516  0.5828 -0.3095
11607TIP3   OH256311   2.978   1.831   4.359 -0.3321 -0.1495 -0.0113
11607TIP3    H156312   3.058   1.855   4.406  0.0614 -0.0760 -0.7146
11607TIP3    H256313   2.978   1.736   4.358 -0.1511 -0.1453 -0.2004
11608TIP3   OH256314   4.453   3.295  14.345 -0.0369  0.3126 -0.0908
11608TIP3    H156315   4.385   3.281  14.279 -0.8092  1.8056  0.3671
11608TIP3    H256316   4.525   3.237  14.319 -1.1442 -0.6274 -1.0681
11609TIP3   OH256317   5.366   1.949   2.277 -0.0458 -0.0337 -0.3324
11609TIP3    H156318   5.368   1.853   2.277 -0.1267 -0.0365  0.1121
11609TIP3    H256319   5.437   1.975   2.335  0.7647  0.2004 -1.4164
11610TIP3   OH256320   1.273   5.350  12.782 -0.2746 -0.3733 -0.4075
11610TIP3    H156321   1.326   5.272  12.799 -0.5601 -0.6048 -0.5661
11610TIP3    H256322   1.287   5.406  12.858  1.4983  0.2971 -1.1767
11611TIP3   OH256323   1.527   1.195  16.619 -0.3165  0.1655  1.1306
11611TIP3    H156324   1.535   1.269  16.679 -0.3210  0.9703  0.1383
11611TIP3    H256325   1.596   1.134  16.647  0.4129  1.0342  1.2217
11612TIP3   OH256326   5.592   1.751   5.982  0.2531 -0.3583 -0.3392
11612TIP3    H156327   5.526   1.795   6.037  0.3137  3.2343 -2.9705
11612TIP3    H256328   5.672   1.801   5.995  1.4874 -2.2947 -0.2226
11613TIP3   OH256329   1.788   1.531   6.760 -0.2242 -0.3137  0.5174
11613TIP3    H156330   1.714   1.527   6.821 -0.0926  0.4954  0.7311
11613TIP3    H256331   1.763   1.471   6.689 -2.5076  2.2874 -0.9650
11614TIP3   OH256332   0.068   5.674   1.583 -0.2977  0.1209 -0.4508
11614TIP3    H156333  -0.003   5.693   1.522 -0.1245  1.1854 -0.3252
11614TIP3    H256334   0.026   5.625   1.654 -0.3109 -2.0217 -1.8960
11615TIP3   OH256335   6.269   1.292  11.455 -0.2760  0.1603  0.2280
11615TIP3    H156336   6.318   1.355  11.509  0.1153 -1.0114  1.2549
11615TIP3    H256337   6.178   1.303  11.482 -0.4297  1.3755 -0.7118
11616TIP3   OH256338   1.777   5.483   1.156 -0.2460 -0.5211  0.0042
11616TIP3    H156339   1.742   5.518   1.238  1.6336 -3.2327  2.0396
11616TIP3    H256340   1.800   5.561   1.105  1.2109  1.2623  3.2349
11617TIP3   OH256341   2.652   5.687   2.195 -0.4671  0.0327 -0.2275
11617TIP3    H156342   2.723   5.654   2.250 -1.2706 -1.2307  0.0660
11617TIP3    H256343   2.691   5.694   2.108  1.2573  3.5094  0.7228
11618TIP3   OH256344   5.216   1.603  14.631 -0.1621 -0.1773 -0.0404
11618TIP3    H156345   5.196   1.656  14.708  1.1994 -1.4052  1.1782
11618TIP3    H256346   5.134   1.602  14.580 -0.9041  1.0797  1.1058
11619TIP3   OH256347   5.191   4.674   5.091  0.1409  0.0186  0.0798
11619TIP3    H156348   5.153   4.586   5.087 -2.0090  0.7583  2.7920
11619TIP3    H256349   5.196   4.702   5.000 -0.5151 -2.3438 -0.7296
11620TIP3   OH256350   0.528   3.105   1.806  0.0978 -0.8543  0.3931
11620TIP3    H156351   0.513   3.088   1.899  2.1996  0.2512  0.9602
11620TIP3    H256352   0.492   3.193   1.791  0.3846 -0.7520  0.3095
11621TIP3   OH256353   5.136   0.791   1.449  0.2535 -0.1144  0.0066
11621TIP3    H156354   5.195   0.862   1.424  0.0742  0.2093  0.4887
11621TIP3    H256355   5.098   0.761   1.367  0.1402  0.5123 -0.1689
11622TIP3   OH256356   0.400   2.810  12.485  0.1373 -0.5544  0.2038
11622TIP3    H156357   0.329   2.771  12.434  0.2419 -1.3663  0.6620
11622TIP3    H256358   0.472   2.819  12.423 -0.0485 -0.6467 -0.0240
11623TIP3   OH256359   1.355   4.627  15.080 -0.2007 -0.1811 -0.0175
11623TIP3    H156360   1.436   4.643  15.129  2.1030 -0.2878 -3.5420
11623TIP3    H256361   1.344   4.706  15.027 -3.0889  0.3012  1.2099
11624TIP3   OH256362   6.703   4.855  15.055 -0.0605  0.8548  0.1967
11624TIP3    H156363   6.675   4.898  14.974 -0.3819  2.0686  0.9458
11624TIP3    H256364   6.744   4.924  15.107 -0.7604  0.3172  1.5004
11625TIP3   OH256365   3.017   0.322  15.436 -0.1988  0.1651  0.3766
11625TIP3    H156366   2.932   0.363  15.448 -0.8668 -1.2265  0.4271
11625TIP3    H256367   3.038   0.284  15.522  0.7247  0.9791  0.5165
11626TIP3   OH256368   0.170   1.765  14.817 -0.3392 -0.0406 -0.2060
11626TIP3    H156369   0.163   1.826  14.891 -0.8392 -0.1794 -0.1322
11626TIP3    H256370   0.164   1.678  14.857  2.0936 -0.2005 -0.1262
11627TIP3   OH256371   3.829   5.211   1.119 -0.2296  0.0312  0.4059
11627TIP3    H156372   3.895   5.252   1.175 -0.1725 -1.0945  1.1601
11627TIP3    H256373   3.811   5.127   1.159 -2.7864  0.6827  0.7145
11628TIP3   OH256374   0.587   3.122  16.916 -0.0841 -0.2339  0.2125
11628TIP3    H156375   0.590   3.080  17.002 -0.8902 -0.0551  0.3410
11628TIP3    H256376   0.562   3.052  16.856 -2.3869  0.2360  0.5735
11629TIP3   OH256377   6.593   6.385  16.489  0.0549 -0.3964 -0.5497
11629TIP3    H156378   6.597   6.423  16.401  1.7798  0.8845  0.0523
11629TIP3    H256379   6.517   6.427  16.530  0.4124  0.4670 -0.7639
11630TIP3   OH256380   4.667   5.444   6.495 -0.1755  0.7151 -0.1349
11630TIP3    H156381   4.620   5.518   6.535 -2.9621 -1.6045  1.0514
11630TIP3    H256382   4.732   5.485   6.438 -0.7243  4.0844  1.5436
11631TIP3   OH256383   1.824   0.104  12.433  0.0828  0.2819  0.2455
11631TIP3    H156384   1.841   0.125  12.525  1.5831  0.2557 -0.0045
11631TIP3    H256385   1.788   0.016  12.435 -1.5091  0.9279  0.9263
11632TIP3   OH256386   2.455   6.346  12.861  0.3786  0.6778  0.0470
11632TIP3    H156387   2.378   6.402  12.855  1.4734  2.1574 -0.8431
11632TIP3    H256388   2.441   6.292  12.938 -2.0272  0.1429 -0.7375
11633TIP3   OH256389   1.050   4.012   5.614 -0.8423  0.0478  0.4472
11633TIP3    H156390   1.141   4.007   5.584 -0.4186 -3.2582  2.0383
11633TIP3    H256391   1.053   4.066   5.692 -0.1633 -0.3504  0.7022
11634TIP3   OH256392   6.698   4.044   2.244 -0.4416 -0.0845  0.1705
11634TIP3    H156393   6.665   3.981   2.181  0.9326  0.5735 -1.2400
11634TIP3    H256394   6.791   4.024   2.251 -0.3974  0.4662  1.2749
11635TIP3   OH256395   4.759   4.279  12.910  0.2771  0.3135  0.2504
11635TIP3    H156396   4.840   4.265  12.859  0.9347  1.6150  0.9279
11635TIP3    H256397   4.779   4.241  12.995 -0.2587 -0.4265  0.0497
11636TIP3   OH256398   4.640   6.270  11.453  0.0259  0.1148  0.2305
11636TIP3    H156399   4.647   6.354  11.500 -2.1573  0.6547 -0.3261
11636TIP3    H256400   4.729   6.250  11.426  0.5263  2.5693 -0.1191
11637TIP3   OH256401   1.162   1.075   2.805 -0.0210  0.0501 -0.1030
11637TIP3    H156402   1.231   1.054   2.741  0.2169 -1.7983  0.7203
11637TIP3    H256403   1.095   1.120   2.754  1.0621  0.3941 -1.2573
11638TIP3   OH256404   0.141   0.499   5.331 -0.1945  0.2193  0.2001
11638TIP3    H156405   0.064   0.543   5.368 -0.7621 -0.2168 -0.4392
11638TIP3    H256406   0.215   0.534   5.380 -0.7716  0.9058  0.5903
11639TIP3   OH256407   6.677   5.464   5.795 -0.0754  0.3386  0.3923
11639TIP3    H156408   6.595   5.481   5.842 -0.1339 -1.4644  0.9677
11639TIP3    H256409   6.724   5.401   5.851  0.9561  0.0630 -0.7643
11640TIP3   OH256410   2.917   3.690   2.122  0.4281  0.4539  0.4628
11640TIP3    H156411   2.930   3.595   2.121  0.4376  0.4617 -0.3437
11640TIP3    H256412   2.827   3.702   2.093  1.3373  0.8259 -2.3887
11641TIP3   OH256413   0.793   5.246   2.565 -0.2000 -0.4245  0.1696
11641TIP3    H156414   0.836   5.161   2.557  0.0395 -0.1650 -1.5819
11641TIP3    H256415   0.804   5.286   2.479 -1.0580  1.0258  0.7213
11642TIP3   OH256416   1.510   4.491   5.146  0.3821 -0.5746 -1.0008
11642TIP3    H156417   1.517   4.555   5.217  1.9486 -0.4059 -1.2983
11642TIP3    H256418   1.423   4.508   5.108 -1.0264 -1.5338  1.6678
11643TIP3   OH256419   0.417   5.241  14.743 -0.1135 -0.3284 -0.0689
11643TIP3    H156420   0.334   5.261  14.699 -0.9561 -2.1427  0.6476
11643TIP3    H256421   0.464   5.185  14.681  0.8267  1.1269 -0.6953
11644TIP3   OH256422   2.810   3.278   1.921 -0.5084  0.1922 -0.2546
11644TIP3    H156423   2.753   3.232   1.859  0.5310  0.5014 -1.4667
11644TIP3    H256424   2.802   3.228   2.002 -0.9185 -0.9657 -0.9934
11645TIP3   OH256425   6.201   2.597  12.761  0.0933 -0.1935 -0.3656
11645TIP3    H156426   6.146   2.541  12.707 -1.5301  0.5642  0.4660
11645TIP3    H256427   6.283   2.548  12.771  0.1420 -0.6965 -2.8070
11646TIP3   OH256428   0.879   3.421   1.482  0.5229  0.1065 -0.4265
11646TIP3    H156429   0.802   3.451   1.530  0.1124  0.2572 -1.1580
11646TIP3    H256430   0.845   3.355   1.422  0.7639  0.9759 -1.5417
11647TIP3   OH256431   0.959   4.212  11.153 -0.0115  0.4144 -0.3081
11647TIP3    H156432   0.999   4.242  11.071  0.6604  0.3081 -0.0266
11647TIP3    H256433   0.989   4.275  11.218  0.5580 -0.2676  0.0970
11648TIP3   OH256434   1.125   3.918  15.661 -0.2869  0.1071 -0.3789
11648TIP3    H156435   1.051   3.953  15.609 -0.0797  0.1316 -0.6624
11648TIP3    H256436   1.089   3.841  15.705 -0.1485 -0.6092 -1.4910
11649TIP3   OH256437   5.185   3.680   3.574  0.5871 -0.1444  0.9486
11649TIP3    H156438   5.140   3.598   3.594 -0.6759  0.3407  0.1175
11649TIP3    H256439   5.116   3.745   3.567  1.5041  0.8218  0.7079
11650TIP3   OH256440   0.681   6.404   3.085 -0.2192 -0.1183  0.2436
11650TIP3    H156441   0.689   6.311   3.063 -1.4773  0.0673 -1.0307
11650TIP3    H256442   0.602   6.433   3.039 -0.1730  1.4392  1.1246
11651TIP3   OH256443   2.305   0.486   1.977  0.2917  0.0395  0.1403
11651TIP3    H156444   2.224   0.515   2.017  0.3562 -0.0333  0.3240
11651TIP3    H256445   2.288   0.396   1.948 -0.5198  0.8980 -2.1402
11652TIP3   OH256446   3.231   5.306  11.864  0.5587 -0.3879  0.0487
11652TIP3    H156447   3.280   5.369  11.917  0.1332 -0.1074  0.1094
11652TIP3    H256448   3.143   5.306  11.901 -0.1180  0.8427 -1.5341
11653TIP3   OH256449   6.783   3.944   0.496  0.1650  0.3714 -0.0841
11653TIP3    H156450   6.803   3.858   0.459  0.1526 -0.7087  2.3367
11653TIP3    H256451   6.864   3.993   0.488  0.3177 -0.0258 -1.0196
11654TIP3   OH256452   3.063   4.672  14.208 -0.5005 -0.4936  0.2947
11654TIP3    H156453   2.974   4.650  14.237 -0.9636  0.5419 -0.3165
11654TIP3    H256454   3.080   4.612  14.135 -1.7282  1.0925 -1.3171
11655TIP3   OH256455   0.025   0.400  15.483  0.6209  0.0595  0.0629
11655TIP3    H156456   0.009   0.305  15.491  2.4806 -0.3413 -0.9358
11655TIP3    H256457  -0.051   0.432  15.435  0.1781 -0.9891  0.0322
11656TIP3   OH256458   6.058   2.457   1.451 -0.0075  0.3523 -0.4065
11656TIP3    H156459   6.041   2.368   1.482  2.4939 -0.3757 -0.9873
11656TIP3    H256460   5.996   2.511   1.499 -0.5995 -1.5296  1.0327
11657TIP3   OH256461   2.084   6.355  14.586  0.1734  0.7758  0.2767
11657TIP3    H156462   2.025   6.311  14.524  1.1413 -0.3896  0.1754
11657TIP3    H256463   2.170   6.350  14.545  0.5477  1.4553  0.9677
11658TIP3   OH256464   6.694   4.856  13.575 -0.3555  0.3468 -0.2783
11658TIP3    H156465   6.622   4.849  13.638  0.0367  0.8058  0.2278
11658TIP3    H256466   6.729   4.944  13.589  1.5416 -0.5424  0.8298
11659TIP3   OH256467   4.749   4.983  14.982 -0.4210  0.8433 -0.8333
11659TIP3    H156468   4.839   4.976  14.950  0.1955 -1.9205  1.3402
11659TIP3    H256469   4.751   5.058  15.043  0.7916 -0.1131  0.3386
11660TIP3   OH256470   5.916   6.759   5.810 -0.8315 -0.1083  0.4956
11660TIP3    H156471   5.939   6.846   5.844  0.4035 -0.5449  0.8045
11660TIP3    H256472   5.976   6.699   5.855 -1.4296 -1.0767  0.0101
11661TIP3   OH256473   3.374   0.704  12.456  0.2626 -0.4206  0.0915
11661TIP3    H156474   3.441   0.733  12.518 -1.2558 -1.0255  2.0543
11661TIP3    H256475   3.423   0.688  12.375  1.7343  4.0582 -0.0682
11662TIP3   OH256476   3.675   5.415  12.631  0.1444 -0.0587  0.0146
11662TIP3    H156477   3.652   5.503  12.660  0.5630  0.1970 -0.4330
11662TIP3    H256478   3.692   5.424  12.538 -1.3675 -0.9108 -0.3702
11663TIP3   OH256479   2.543   5.872   1.177 -0.5829  0.1007 -0.2382
11663TIP3    H156480   2.596   5.950   1.160 -0.3243  0.1144  0.6157
11663TIP3    H256481   2.524   5.836   1.090  1.5560 -0.3994 -0.5081
11664TIP3   OH256482   4.876   1.648   3.910  0.5343  0.3380  0.3691
11664TIP3    H156483   4.858   1.727   3.860  0.9736  0.5293  0.5112
11664TIP3    H256484   4.804   1.642   3.972 -0.7047 -0.6044 -1.1397
11665TIP3   OH256485   4.140   5.379   0.956  0.2611  0.0065 -0.4925
11665TIP3    H156486   4.141   5.302   1.011 -0.1270  1.2838  1.3440
11665TIP3    H256487   4.201   5.440   0.998  1.2707  0.3856 -2.4180
11666TIP3   OH256488   3.701   1.977  11.169 -0.4683 -0.0508 -0.3949
11666TIP3    H156489   3.715   1.887  11.200 -0.4737  1.0269  2.9516
11666TIP3    H256490   3.618   1.973  11.122 -1.5183 -1.4309  1.4803
11667TIP3   OH256491   3.231   4.031  15.680 -0.0041  0.3391 -0.0407
11667TIP3    H156492   3.315   4.009  15.718  0.6396  1.1293 -0.9761
11667TIP3    H256493   3.174   4.050  15.755  0.7206  0.0668  0.5795
11668TIP3   OH256494   0.311   0.687   6.940  0.3628 -0.7128 -0.1544
11668TIP3    H156495   0.320   0.597   6.908  1.5760 -0.7069  0.1417
11668TIP3    H256496   0.383   0.735   6.897 -0.8707  0.3380 -1.0924
11669TIP3   OH256497   2.844   1.195   5.168 -0.4816 -0.6160  0.3090
11669TIP3    H156498   2.774   1.230   5.223 -0.1988  2.0347 -0.9419
11669TIP3    H256499   2.808   1.197   5.079  0.3723 -1.4250 -0.0686
11670TIP3   OH256500   1.601   2.198  15.743  0.2365  0.5456  0.0924
11670TIP3    H156501   1.620   2.250  15.665 -0.5720  1.5061  0.5194
11670TIP3    H256502   1.512   2.224  15.768  0.0854 -0.5378  0.7198
11671TIP3   OH256503   2.948   4.260  14.190 -0.6640 -0.4709  0.1946
11671TIP3    H156504   2.999   4.309  14.254 -1.1348  0.4860 -0.1528
11671TIP3    H256505   2.995   4.177  14.179  2.0329  1.2614 -1.7375
11672TIP3   OH256506   3.836   4.938  16.967 -0.0463 -0.4730 -0.0573
11672TIP3    H156507   3.780   4.892  17.030 -0.4763  1.4341  0.9726
11672TIP3    H256508   3.776   4.990  16.914  0.4063 -1.3384 -1.4525
11673TIP3   OH256509   5.164   3.816  16.982  0.3344  0.6097  0.1584
11673TIP3    H156510   5.186   3.807  17.074  0.6709 -0.3816 -0.0107
11673TIP3    H256511   5.194   3.734  16.942  0.1495  1.0077 -0.8197
11674TIP3   OH256512   3.004   6.392   3.886 -0.7013 -0.4304 -0.2021
11674TIP3    H156513   3.063   6.467   3.889  0.3520 -1.1875 -1.6847
11674TIP3    H256514   3.006   6.363   3.795 -0.9497 -2.3688  0.3821
11675TIP3   OH256515   4.009   0.783  12.033  0.2202  0.5030 -0.6340
11675TIP3    H156516   3.982   0.775  11.941 -2.5888 -0.6594  0.2582
11675TIP3    H256517   4.060   0.703  12.049 -0.2502  0.1488 -0.8703
11676TIP3   OH256518   3.448   4.380   5.251  0.2171  0.0986 -0.4686
11676TIP3    H156519   3.386   4.452   5.236 -0.9005 -0.3372  1.7693
11676TIP3    H256520   3.503   4.378   5.173 -2.5555  0.5777 -2.5021
11677TIP3   OH256521   0.298   3.281   1.827 -0.0927 -0.3370  0.5863
11677TIP3    H156522   0.237   3.236   1.769  1.2988 -0.6860 -0.6518
11677TIP3    H256523   0.265   3.371   1.832  0.2569 -0.0562 -1.5187
11678TIP3   OH256524   0.653   6.032   0.430 -0.0218  0.4593  0.1949
11678TIP3    H156525   0.571   6.042   0.383  0.2536  0.2304 -0.3366
11678TIP3    H256526   0.717   6.083   0.379 -0.0240  1.3990  1.1063
11679TIP3   OH256527   6.782   0.570  14.013 -0.5108 -0.0734 -0.1041
11679TIP3    H156528   6.755   0.642  14.070 -0.6398 -0.5356  0.4277
11679TIP3    H256529   6.734   0.585  13.932 -0.2758  0.6315 -0.1165
11680TIP3   OH256530   5.175   1.280  14.221  0.2355  0.0542 -0.5384
11680TIP3    H156531   5.251   1.335  14.241  0.3975  0.4857 -2.2442
11680TIP3    H256532   5.211   1.193  14.207  0.2866  0.0453 -0.3592
11681TIP3   OH256533   5.596   1.699   3.665  0.0894  0.1857  0.0235
11681TIP3    H156534   5.633   1.669   3.582 -0.7058 -0.2035 -0.2045
11681TIP3    H256535   5.584   1.793   3.654  0.7966  0.2798  0.0234
11682TIP3   OH256536   4.264   3.999  15.860 -0.0736  0.2232 -0.0127
11682TIP3    H156537   4.305   4.081  15.834 -0.4003 -0.2074 -2.0084
11682TIP3    H256538   4.195   4.025  15.921  0.4916  1.3279  0.1645
11683TIP3   OH256539   6.428   2.806  11.815 -0.6457 -0.0866  1.5905
11683TIP3    H156540   6.335   2.786  11.805 -1.1610  3.2067 -0.6628
11683TIP3    H256541   6.430   2.882  11.874  0.6666 -0.3747  1.9264
11684TIP3   OH256542   6.031   2.156   6.181  0.1626 -0.4347  0.2524
11684TIP3    H156543   6.110   2.193   6.218 -0.6169  0.1334  1.3680
11684TIP3    H256544   5.968   2.157   6.253 -1.2612  0.3728 -0.9825
11685TIP3   OH256545   4.190   2.275   3.464  0.2994  0.8800  0.4350
11685TIP3    H156546   4.169   2.198   3.517  1.5427  0.7883  0.8130
11685TIP3    H256547   4.226   2.338   3.527  0.9507  1.1031 -0.1483
11686TIP3   OH256548   4.235   0.138   4.667  0.4352  0.8780 -0.4610
11686TIP3    H156549   4.196   0.223   4.688  0.1242  0.9013 -1.1309
11686TIP3    H256550   4.163   0.075   4.676  0.6888  0.6697  0.1289
11687TIP3   OH256551   3.564   2.535  13.468 -0.2049  0.0063 -0.2850
11687TIP3    H156552   3.481   2.562  13.508 -0.2999  0.9884 -1.1172
11687TIP3    H256553   3.613   2.496  13.540 -1.8216 -1.5876 -0.0211
11688TIP3   OH256554   0.736   4.003   4.179  0.1645  0.2625 -0.1712
11688TIP3    H156555   0.655   4.052   4.162  0.1641  0.0896 -0.6792
11688TIP3    H256556   0.746   4.006   4.274  0.5346  1.8509 -0.2336
11689TIP3   OH256557   0.595   2.528  11.501 -0.4783 -0.5985  0.4695
11689TIP3    H156558   0.623   2.618  11.514  0.7300 -0.9699  0.5380
11689TIP3    H256559   0.549   2.528  11.417 -1.6385  0.3244  1.0808
11690TIP3   OH256560   5.957   1.251   0.050 -0.4809  0.1193  0.3246
11690TIP3    H156561   6.051   1.235   0.037 -0.7263 -1.6188  0.5910
11690TIP3    H256562   5.928   1.291  -0.032  0.4548  0.5323  0.1872
11691TIP3   OH256563   4.162   2.736  15.749 -0.6195  0.7262  0.3628
11691TIP3    H156564   4.133   2.648  15.772 -0.2749  0.2039 -1.1486
11691TIP3    H256565   4.127   2.751  15.661  2.0593  0.8327 -0.7170
11692TIP3   OH256566   0.706   5.211   0.979  0.0124  0.1413  0.2964
11692TIP3    H156567   0.751   5.262   1.047 -1.6747  0.7585  0.9756
11692TIP3    H256568   0.633   5.266   0.952 -0.4775 -0.9485 -0.6463
11693TIP3   OH256569   5.515   3.183  13.422 -0.4855  0.0307 -0.2880
11693TIP3    H156570   5.488   3.255  13.366  1.4631  0.6415 -0.4790
11693TIP3    H256571   5.460   3.191  13.500 -1.0913  1.0078 -0.8165
11694TIP3   OH256572   6.592   3.418  13.219  0.5357  0.0763 -0.2922
11694TIP3    H156573   6.537   3.353  13.262 -1.2863  0.2707 -2.2374
11694TIP3    H256574   6.636   3.370  13.148  2.0541  0.1779  0.5441
11695TIP3   OH256575   0.022   4.045  13.119  0.6792  0.1246  0.3635
11695TIP3    H156576  -0.015   3.994  13.191 -0.6473 -0.2321 -0.5605
11695TIP3    H256577   0.054   3.979  13.057  0.9284  0.4354  0.1587
11696TIP3   OH256578   3.366   6.408  15.308 -0.2489 -0.6163  0.2469
11696TIP3    H156579   3.379   6.455  15.390  1.7691  2.1072 -1.5714
11696TIP3    H256580   3.440   6.347  15.303  0.3780  0.1650 -0.1549
11697TIP3   OH256581   2.578   2.294  10.995  0.1420  0.2051 -0.0330
11697TIP3    H156582   2.577   2.385  11.027 -4.6531  0.2729 -0.0312
11697TIP3    H256583   2.591   2.241  11.074 -0.8682  0.7634  0.5180
11698TIP3   OH256584   5.179   0.661   1.976 -0.0718 -0.3312 -0.4974
11698TIP3    H156585   5.141   0.616   1.900 -0.8829  0.9055 -0.8422
11698TIP3    H256586   5.240   0.724   1.939  0.3194 -0.4479 -0.0620
11699TIP3   OH256587   1.992   6.472   0.138 -0.4630  0.1150  0.0788
11699TIP3    H156588   2.056   6.420   0.186  1.1034  0.3354 -1.7287
11699TIP3    H256589   1.915   6.474   0.196  1.4092  0.5286  2.6234
11700TIP3   OH256590   3.587   5.314   1.251 -0.2818  0.2415  0.4457
11700TIP3    H156591   3.596   5.387   1.190  0.5580 -0.0904  0.1670
11700TIP3    H256592   3.658   5.254   1.228  0.5037  0.4536  2.2500
11701TIP3   OH256593   3.279   2.675  11.411  0.5774 -0.2488 -0.0636
11701TIP3    H156594   3.301   2.671  11.318 -1.0031 -1.0735 -0.4251
11701TIP3    H256595   3.234   2.759  11.422  1.8489  0.4008  0.2090
11702TIP3   OH256596   6.630   1.963   5.794 -0.1280 -0.2739 -0.4498
11702TIP3    H156597   6.710   2.014   5.800  0.2607 -1.0143  1.1324
11702TIP3    H256598   6.567   2.021   5.750  0.0661  1.8784  1.9806
11703TIP3   OH256599   4.192   1.276   0.545  0.3428 -0.1895  0.3954
11703TIP3    H156600   4.178   1.199   0.601  1.5783  0.4204  1.5622
11703TIP3    H256601   4.135   1.261   0.469 -0.1518 -1.7917  1.0629
11704TIP3   OH256602   1.579   0.834  12.350 -0.5006  0.0479  0.4659
11704TIP3    H156603   1.630   0.860  12.274 -2.5567  1.5083 -0.4739
11704TIP3    H256604   1.542   0.749  12.326 -2.3303  1.1742 -0.7964
11705TIP3   OH256605   4.555   3.983   2.264 -0.0324  0.0297  0.5295
11705TIP3    H156606   4.464   4.004   2.240 -0.1447 -1.1274 -0.1356
11705TIP3    H256607   4.595   3.955   2.181  0.6049 -0.5533  1.0326
11706TIP3   OH256608   3.618   1.602  16.061 -0.1792  0.3251 -0.2401
11706TIP3    H156609   3.536   1.572  16.022  0.5143 -0.9951 -0.6970
11706TIP3    H256610   3.632   1.544  16.136  0.5094  0.3297 -0.3605
11707TIP3   OH256611   2.256   4.561   1.707 -0.4235  0.3452 -0.2330
11707TIP3    H156612   2.215   4.524   1.629 -0.9749  0.4131  0.0225
11707TIP3    H256613   2.343   4.586   1.679 -0.1784 -0.7989 -0.5048
11708TIP3   OH256614   6.194   5.381  12.854 -0.3298  0.4929  0.1218
11708TIP3    H156615   6.146   5.305  12.822  0.9201 -1.1040  1.9112
11708TIP3    H256616   6.129   5.452  12.854 -0.5151  0.5032 -5.3077
11709TIP3   OH256617   6.495   6.654   1.891  0.5897 -0.6746  0.3115
11709TIP3    H156618   6.454   6.569   1.907 -0.6496  0.0446  1.0825
11709TIP3    H256619   6.421   6.713   1.873  1.5251 -0.0962 -1.7700
11710TIP3   OH256620   4.362   5.454  12.691 -0.0448  0.0862 -0.1762
11710TIP3    H156621   4.413   5.378  12.719  0.5228  0.3297 -0.5403
11710TIP3    H256622   4.370   5.454  12.596 -0.6784  0.1592 -0.2293
11711TIP3   OH256623   5.750   2.986   4.867 -0.2402  0.3170  0.8429
11711TIP3    H156624   5.836   3.010   4.902  1.1911  0.5084 -2.6482
11711TIP3    H256625   5.709   3.070   4.845 -0.4174  0.1194  0.4248
11712TIP3   OH256626   6.133   4.517   1.285 -0.3067  0.2612  0.3037
11712TIP3    H156627   6.215   4.523   1.335  0.2106  0.8776 -0.6196
11712TIP3    H256628   6.103   4.607   1.277  0.1178  0.2672 -1.3306
11713TIP3   OH256629   6.644   6.529   3.850 -0.4488 -0.2402 -0.5119
11713TIP3    H156630   6.691   6.599   3.804  1.5091 -0.2371  1.3712
11713TIP3    H256631   6.568   6.572   3.889  1.7410  1.3370  2.2135
11714TIP3   OH256632   3.694   6.203  16.134 -0.2561  0.6165  0.0139
11714TIP3    H156633   3.655   6.255  16.063  1.4351 -0.4776 -1.7777
11714TIP3    H256634   3.652   6.117  16.125  1.1479 -0.0060 -0.7198
11715TIP3   OH256635   0.834   2.128   3.635  1.0036 -0.0209 -0.0340
11715TIP3    H156636   0.771   2.057   3.622  1.9719 -0.7870 -0.5242
11715TIP3    H256637   0.804   2.171   3.715 -0.0130 -0.5189 -0.1336
11716TIP3   OH256638   3.437   6.056   5.542  1.2043  0.3905  0.5776
11716TIP3    H156639   3.366   6.118   5.559  2.6038  2.0935  0.2899
11716TIP3    H256640   3.409   5.975   5.585 -1.2270  0.8229 -0.1004
11717TIP3   OH256641   4.427   3.176  11.047  0.3483  0.2006 -0.4415
11717TIP3    H156642   4.462   3.133  10.969  0.5787  2.0888 -1.4079
11717TIP3    H256643   4.487   3.150  11.117 -0.3556 -2.2113 -0.6844
11718TIP3   OH256644   1.493   5.350  16.905  0.2363 -0.1173 -0.0483
11718TIP3    H156645   1.589   5.347  16.910  0.1593 -0.3180  1.3330
11718TIP3    H256646   1.465   5.392  16.986 -0.8802 -0.6417 -0.1455
11719TIP3   OH256647   5.988   0.207   3.474  0.3389 -0.2733 -0.6243
11719TIP3    H156648   6.003   0.207   3.379  0.6837  0.3827 -0.5728
11719TIP3    H256649   6.015   0.120   3.502 -0.0696 -0.5844 -1.1782
11720TIP3   OH256650   3.127   1.789  15.900  0.0298  0.1382 -0.0845
11720TIP3    H156651   3.145   1.706  15.855 -1.0153 -0.5578  0.7389
11720TIP3    H256652   3.070   1.837  15.841 -2.2725 -1.2484  0.9151
11721TIP3   OH256653   5.045   6.377  16.810 -0.5643  0.1504 -0.1380
11721TIP3    H156654   5.137   6.387  16.786 -0.5865  0.9473  0.0871
11721TIP3    H256655   4.997   6.387  16.728 -0.5906  2.0644  0.0796
11722TIP3   OH256656   2.083   1.813   1.601 -0.0736  0.5371  0.0458
11722TIP3    H156657   2.091   1.847   1.512  1.9211  0.6029  0.2337
11722TIP3    H256658   2.170   1.780   1.623 -0.7275 -0.1669  1.6997
11723TIP3   OH256659   4.384   4.936   2.543 -0.4220  0.0059 -0.5004
11723TIP3    H156660   4.364   5.025   2.572  1.5523 -0.1619  1.4943
11723TIP3    H256661   4.417   4.891   2.622  0.8857 -1.7700 -1.9992
11724TIP3   OH256662   4.166   4.626  15.396  0.2549 -0.0053  0.3660
11724TIP3    H156663   4.153   4.622  15.301 -2.3244  2.1995  0.5686
11724TIP3    H256664   4.261   4.616  15.408  0.6091 -0.3162 -2.4215
11725TIP3   OH256665   3.129   1.707  16.510  0.0562  0.4103 -0.7371
11725TIP3    H156666   3.082   1.789  16.491 -1.4894 -0.5129 -0.9698
11725TIP3    H256667   3.205   1.735  16.561 -1.3461  1.8538  0.6546
11726TIP3   OH256668   3.844   2.976  16.536  0.4994  0.2889  0.2107
11726TIP3    H156669   3.844   2.994  16.630 -0.0409 -1.9710  0.6680
11726TIP3    H256670   3.934   2.994  16.509  1.1193 -0.7496  1.5052
11727TIP3   OH256671   1.390   1.970   3.698 -0.2255  0.0314 -0.2178
11727TIP3    H156672   1.350   2.007   3.619  1.3936 -0.5784 -1.3402
11727TIP3    H256673   1.316   1.934   3.747 -1.1418 -0.5535 -1.9854
11728TIP3   OH256674   4.672   4.758  15.999  0.4581  0.2563 -0.4056
11728TIP3    H156675   4.688   4.686  16.060 -2.5752  0.5098  0.7749
11728TIP3    H256676   4.624   4.718  15.927 -0.2753  0.8825 -0.2719
11729TIP3   OH256677   3.466   4.767  12.767  0.0454 -1.1800  0.3668
11729TIP3    H156678   3.371   4.765  12.750  0.2696  2.2275 -1.7326
11729TIP3    H256679   3.499   4.688  12.723 -1.3683 -0.3878 -2.2084
11730TIP3   OH256680   4.491   5.843  17.116  0.1500 -0.1301 -0.3406
11730TIP3    H156681   4.422   5.864  17.179 -0.2953  0.7551 -1.1149
11730TIP3    H256682   4.570   5.883  17.151  0.1716 -0.6994  0.2795
11731TIP3   OH256683   1.909   3.353   6.443 -0.7766  0.1812 -0.6979
11731TIP3    H156684   1.845   3.335   6.512  0.7926 -0.3310  0.6466
11731TIP3    H256685   1.915   3.449   6.440  2.3552  0.1586  2.9174
11732TIP3   OH256686   6.772   1.146   1.969 -0.0077  0.0526 -0.0708
11732TIP3    H156687   6.808   1.233   1.954 -0.0430  0.5412  2.4824
11732TIP3    H256688   6.701   1.159   2.031 -0.5237 -1.6966 -0.2658
11733TIP3   OH256689   3.508   4.387   4.336 -0.0916  0.0526 -0.0174
11733TIP3    H156690   3.532   4.462   4.281 -2.8785  0.8092 -0.2448
11733TIP3    H256691   3.549   4.405   4.421 -0.1756  1.4891 -0.2747
11734TIP3   OH256692   3.718   0.608  16.515 -0.0553 -0.3275 -0.3547
11734TIP3    H156693   3.727   0.569  16.428  2.3504 -0.3686 -0.1387
11734TIP3    H256694   3.723   0.535  16.576 -1.7235 -0.2976 -0.1727
11735TIP3   OH256695   0.150   1.985  16.022  0.1738 -0.5411 -0.1067
11735TIP3    H156696   0.074   1.933  16.048 -0.9483  2.0350  1.9529
11735TIP3    H256697   0.117   2.046  15.957  0.4185  0.7243  0.9421
11736TIP3   OH256698   2.884   5.489   1.320 -0.2594 -0.0932  0.0104
11736TIP3    H156699   2.848   5.506   1.233 -1.7478 -0.3412  0.5608
11736TIP3    H256700   2.848   5.559   1.375  2.3780  1.3401  0.0254
11737TIP3   OH256701   1.827   1.498   6.384 -0.4155  0.5469 -0.4658
11737TIP3    H156702   1.792   1.454   6.462  2.9020  1.0787  1.4049
11737TIP3    H256703   1.921   1.482   6.388 -0.0331  1.6542 -3.7369
11738TIP3   OH256704   6.335   0.036  16.442 -0.0071 -0.1930 -0.0629
11738TIP3    H156705   6.358   0.014  16.352 -0.1152  1.4827 -0.5308
11738TIP3    H256706   6.404  -0.002  16.496  0.1101 -1.1077 -0.8734
11739TIP3   OH256707   1.938   3.914  14.425 -0.0440 -0.1138 -0.1065
11739TIP3    H156708   1.868   3.900  14.488  1.1868 -3.0029  0.6892
11739TIP3    H256709   2.004   3.964  14.472 -0.1941 -0.1121  0.1019
11740TIP3   OH256710   4.453   4.677  13.932 -0.2495  0.2273 -0.7864
11740TIP3    H156711   4.462   4.742  14.003  0.0687 -0.7455  0.0763
11740TIP3    H256712   4.378   4.708  13.881 -2.2568 -0.5594  1.5905
11741TIP3   OH256713   3.430   2.444   2.512  0.6621 -0.2824  0.7683
11741TIP3    H156714   3.429   2.536   2.535  1.3132 -0.6408  2.2428
11741TIP3    H256715   3.507   2.408   2.557  1.2703 -1.2391 -0.9763
11742TIP3   OH256716   1.313   4.838   3.792 -0.0562 -0.1811  0.0313
11742TIP3    H156717   1.222   4.836   3.762 -0.6864 -0.8234  1.9155
11742TIP3    H256718   1.326   4.755   3.837  1.2255  0.2320  0.4694
11743TIP3   OH256719   3.798   4.591   5.976 -0.7272  0.1327  0.2685
11743TIP3    H156720   3.845   4.592   6.060  0.6020  1.7032 -0.4745
11743TIP3    H256721   3.715   4.634   5.996  0.5183  2.6060  0.2859
11744TIP3   OH256722   4.425   0.465   4.675 -0.3353  0.1368  0.1971
11744TIP3    H156723   4.492   0.396   4.678  1.6780  2.0317 -0.2618
11744TIP3    H256724   4.350   0.423   4.631  0.9461 -1.6875 -0.3041
11745TIP3   OH256725   3.537   4.915   0.149 -0.0788 -0.9239 -0.7265
11745TIP3    H156726   3.526   4.940   0.057  0.2604 -0.1744 -0.5687
11745TIP3    H256727   3.507   4.991   0.198  1.6695 -0.5137 -0.2505
11746TIP3   OH256728   2.275   1.166  14.372 -0.1548 -0.0522  0.2556
11746TIP3    H156729   2.330   1.153  14.449 -0.1887 -0.5952  0.1870
11746TIP3    H256730   2.239   1.254  14.383 -2.0883 -1.0496  2.0966
11747TIP3   OH256731   4.086   4.892   1.198  0.2227  0.4148  0.1433
11747TIP3    H156732   4.053   4.813   1.156  0.9276  1.0937 -1.7165
11747TIP3    H256733   4.067   4.878   1.291 -1.0402 -1.2550 -0.3238
11748TIP3   OH256734   4.481   2.546  14.148  0.1909  0.0411 -0.1098
11748TIP3    H156735   4.500   2.640  14.148  1.2051 -0.1208  2.9315
11748TIP3    H256736   4.390   2.540  14.116  0.4309  1.9488 -1.2272
11749TIP3   OH256737   4.764   2.323  13.208  0.7422  0.2773  0.3339
11749TIP3    H156738   4.845   2.359  13.172  1.2416 -0.2199  0.9637
11749TIP3    H256739   4.792   2.259  13.273 -0.1584  0.1984  0.6534
11750TIP3   OH256740   0.928   3.723   1.478 -0.0810  0.2299  0.5694
11750TIP3    H156741   0.900   3.814   1.487  1.5058  0.8071 -0.2821
11750TIP3    H256742   0.901   3.682   1.561  1.5515  2.0954  2.0819
11751TIP3   OH256743   1.090   0.237   0.607  0.1991  0.0312  0.8983
11751TIP3    H156744   1.118   0.262   0.519  0.7678 -0.4355  0.9441
11751TIP3    H256745   1.003   0.199   0.594  1.5470 -2.9486  0.0921
11752TIP3   OH256746   3.883   2.377  15.649  0.5479  0.6160 -0.2604
11752TIP3    H156747   3.977   2.358  15.642  0.2745  0.1385 -2.9834
11752TIP3    H256748   3.860   2.350  15.738  2.1273 -3.2287 -0.9283
11753TIP3   OH256749   1.983   3.431   5.276  0.3379 -0.5800 -0.5037
11753TIP3    H156750   2.066   3.453   5.234  1.2296 -1.3476  0.8560
11753TIP3    H256751   1.966   3.505   5.335  0.1562 -0.5215 -0.6287
11754TIP3   OH256752   5.582   1.076  16.209 -0.0923 -0.9848 -0.1300
11754TIP3    H156753   5.643   1.072  16.282 -0.1867  0.8123  0.0716
11754TIP3    H256754   5.625   1.028  16.139  0.0706 -2.5831  1.0350
11755TIP3   OH256755   5.812   1.796   3.807 -0.0124  0.1643  0.3147
11755TIP3    H156756   5.840   1.708   3.834  1.2385 -0.2388 -2.2122
11755TIP3    H256757   5.732   1.782   3.758 -0.5658  0.5966  1.0777
11756TIP3   OH256758   5.503   3.487  12.438  0.2333 -0.2671 -0.3507
11756TIP3    H156759   5.555   3.482  12.357  1.5971  0.4720  0.4657
11756TIP3    H256760   5.534   3.415  12.491  0.4404  0.1921  0.1551
11757TIP3   OH256761   6.107   0.799  15.370  0.0899 -1.0464 -0.8322
11757TIP3    H156762   6.025   0.787  15.323 -0.0641 -0.0280 -0.8311
11757TIP3    H256763   6.170   0.828  15.304  0.2129 -0.9225 -0.6628
11758TIP3   OH256764   1.487   0.605  12.229  0.3363  0.1945  0.3485
11758TIP3    H156765   1.555   0.561  12.280 -0.6231 -1.0310  0.5773
11758TIP3    H256766   1.405   0.572  12.264 -0.3393 -0.5094 -1.8469
11759TIP3   OH256767   3.808   1.130  17.074 -0.0212  0.4338  0.2451
11759TIP3    H156768   3.814   1.035  17.060 -0.4030  0.2973  0.9776
11759TIP3    H256769   3.898   1.161  17.060  0.1313 -0.0496  0.1130
11760TIP3   OH256770   5.195   4.257  13.819  0.4351 -0.5567 -0.0520
11760TIP3    H156771   5.281   4.253  13.779 -0.2764 -1.9325 -1.5092
11760TIP3    H256772   5.134   4.266  13.745 -0.5606  2.6954  1.0463
11761TIP3   OH256773   0.043   0.332   5.707 -0.0283  0.0698  0.4883
11761TIP3    H156774   0.106   0.372   5.647  0.1597 -1.0715 -0.0992
11761TIP3    H256775   0.033   0.242   5.675 -1.6101  0.0954  0.8346
11762TIP3   OH256776   3.096   4.132   5.446 -0.0508  0.7069 -0.3837
11762TIP3    H156777   3.054   4.146   5.362 -1.4732 -0.9625  0.0390
11762TIP3    H256778   3.182   4.174   5.437 -0.4175  1.0531 -2.4453
11763TIP3   OH256779   2.934   5.748  10.822 -0.3944  0.0473 -1.1112
11763TIP3    H156780   2.982   5.791  10.751 -2.0605  1.3993 -1.4548
11763TIP3    H256781   3.001   5.729  10.888  1.2598 -1.5923 -3.1909
11764TIP3   OH256782   4.890   0.731  11.396  0.0377 -0.2484 -0.2515
11764TIP3    H156783   4.907   0.658  11.456 -0.2287  0.6438  0.9247
11764TIP3    H256784   4.947   0.801  11.427  0.2269  0.0771 -1.3204
11765TIP3   OH256785   4.464   4.027   3.584 -0.0813 -0.4096  0.4699
11765TIP3    H156786   4.559   4.029   3.571 -0.2637 -1.5767 -1.2332
11765TIP3    H256787   4.452   3.966   3.657  0.4551 -0.7330  0.2988
11766TIP3   OH256788   3.631   4.703   1.865 -0.2156 -0.6820 -0.1673
11766TIP3    H156789   3.548   4.749   1.848  0.1978  0.6824  1.3514
11766TIP3    H256790   3.669   4.689   1.778 -0.5526  1.5248 -0.6949
11767TIP3   OH256791   5.241   4.002   3.715 -0.0952  0.0194 -0.9039
11767TIP3    H156792   5.272   3.946   3.643 -1.5100 -0.2683 -1.3051
11767TIP3    H256793   5.243   3.945   3.792  1.3880  0.3161 -0.6927
11768TIP3   OH256794   6.371   3.708   1.678 -0.1600  0.3012 -0.4475
11768TIP3    H156795   6.297   3.686   1.734 -0.0463  2.8941  0.7787
11768TIP3    H256796   6.365   3.646   1.605 -0.7922 -2.5884  1.9721
11769TIP3   OH256797   0.523   4.675  15.596  0.5998 -0.2400  0.5759
11769TIP3    H156798   0.468   4.632  15.662 -0.4183  0.3741  0.1400
11769TIP3    H256799   0.485   4.762  15.586  1.2034 -0.0654 -0.2893
11770TIP3   OH256800   4.731   2.962  17.145 -0.2804 -0.0277  0.0864
11770TIP3    H156801   4.752   2.871  17.127 -0.5796 -0.0900  0.0513
11770TIP3    H256802   4.773   2.980  17.229  1.2638  0.3128 -0.7239
11771TIP3   OH256803   5.908   1.389   3.265  0.0102  0.3256 -0.0374
11771TIP3    H156804   5.818   1.357   3.262  0.4545 -0.7875 -1.7619
11771TIP3    H256805   5.900   1.476   3.306 -2.2008  1.3948 -2.5430
11772TIP3   OH256806   4.810   2.116   2.241 -0.3353 -0.1516  0.3152
11772TIP3    H156807   4.815   2.157   2.328 -0.3146  0.5367 -0.0042
11772TIP3    H256808   4.886   2.151   2.194 -0.3273 -0.5527  0.0313
11773TIP3   OH256809   2.616   0.753   5.887  0.5792 -0.4594  0.1082
11773TIP3    H156810   2.677   0.784   5.820  1.1450 -1.1340  0.3039
11773TIP3    H256811   2.631   0.813   5.961 -0.4238  0.6135 -0.5438
11774TIP3   OH256812   3.229   4.309  17.159 -0.0801  0.3022 -0.2031
11774TIP3    H156813   3.136   4.318  17.135 -0.0331  0.6090 -0.2752
11774TIP3    H256814   3.231   4.237  17.222 -0.3698  0.2999 -0.1953
11775TIP3   OH256815   3.826   1.730   1.792  0.2681 -0.4162  0.5730
11775TIP3    H156816   3.752   1.739   1.852 -1.2395  1.0199 -1.4207
11775TIP3    H256817   3.856   1.819   1.777  1.5399 -0.8798  0.2987
11776TIP3   OH256818   6.819   6.070  14.850 -0.1402 -0.4894 -0.2879
11776TIP3    H156819   6.908   6.076  14.887 -0.4254  1.1085  0.1665
11776TIP3    H256820   6.827   6.106  14.762 -0.5253  0.5853  0.1058
11777TIP3   OH256821   2.802   1.520  12.975  0.2999  0.0732 -0.2507
11777TIP3    H156822   2.811   1.444  13.032 -1.9962 -0.0859 -0.0718
11777TIP3    H256823   2.814   1.485  12.886 -0.9965 -0.5476 -0.1873
11778TIP3   OH256824   3.216   4.684   4.604  0.3128  0.6451  0.1921
11778TIP3    H156825   3.253   4.662   4.518  1.8011  0.0636  0.9656
11778TIP3    H256826   3.134   4.729   4.584 -1.5948 -3.3408 -1.5061
11779TIP3   OH256827   4.721   4.502  14.264  0.1868  0.0185  0.2870
11779TIP3    H156828   4.664   4.570  14.229 -0.1481  0.1878  1.1563
11779TIP3    H256829   4.735   4.442  14.190 -1.0578  0.0122  0.0459
11780TIP3   OH256830   6.433   4.726  16.030  0.4466 -0.1809  0.4403
11780TIP3    H156831   6.425   4.643  16.075  0.2820 -0.7129 -0.5561
11780TIP3    H256832   6.485   4.707  15.952  0.9599  0.7760  0.5351
11781TIP3   OH256833   5.657   3.960   5.701  0.0433  0.3991  0.2807
11781TIP3    H156834   5.737   3.959   5.648 -0.7018 -0.4858 -0.8625
11781TIP3    H256835   5.662   4.042   5.750  1.9885  0.0321  0.7684
11782TIP3   OH256836   2.798   5.930   2.793  0.3240  0.5775 -0.1445
11782TIP3    H156837   2.772   5.905   2.881  1.4629  0.0072  0.0486
11782TIP3    H256838   2.852   6.008   2.806  1.0885  0.0727 -0.2643
11783TIP3   OH256839   1.622   0.931   2.511 -0.1971 -0.0517  0.2729
11783TIP3    H156840   1.614   0.920   2.606 -0.9073 -1.0974  0.1018
11783TIP3    H256841   1.592   0.847   2.475 -1.9095  1.0632 -0.9530
11784TIP3   OH256842   5.589   3.748  15.101  0.1409 -0.5402  0.4331
11784TIP3    H156843   5.567   3.833  15.140  1.4142  0.0828 -0.1691
11784TIP3    H256844   5.592   3.688  15.175  0.5603  0.2220  1.0369
11785TIP3   OH256845   1.651   0.975   4.769  0.6355 -0.0185  0.0922
11785TIP3    H156846   1.599   0.901   4.799  0.4114  0.0666 -0.0834
11785TIP3    H256847   1.586   1.043   4.749  0.8887  0.5636  1.1884
11786TIP3   OH256848   0.032   2.328   5.224  0.4008  0.4373  0.0371
11786TIP3    H156849   0.014   2.234   5.225 -0.5017  0.6140  0.8353
11786TIP3    H256850   0.105   2.339   5.285  0.2301  0.3092  0.2655
11787TIP3   OH256851   2.527   3.920   2.559 -0.2608  0.0287  0.7117
11787TIP3    H156852   2.615   3.886   2.543 -0.7612 -1.0234  0.1585
11787TIP3    H256853   2.480   3.848   2.601 -0.5561  0.9526  2.0176
11788TIP3   OH256854   4.508   5.029  11.836 -0.7598 -0.4077 -0.3088
11788TIP3    H156855   4.518   5.123  11.855 -2.1840 -0.3530  0.2106
11788TIP3    H256856   4.517   4.987  11.921 -2.2570 -0.5585 -0.2111
11789TIP3   OH256857   3.650   3.186   1.290 -0.2962 -0.9271  0.0313
11789TIP3    H156858   3.741   3.214   1.293 -0.6002 -0.0154  1.2858
11789TIP3    H256859   3.601   3.267   1.277 -0.9281 -1.4060 -0.5744
11790TIP3   OH256860   1.406   0.990  11.492  0.3266  0.1389 -0.1638
11790TIP3    H156861   1.377   0.970  11.403  0.5967 -0.4929 -0.1091
11790TIP3    H256862   1.340   0.948  11.548 -0.3534  1.3064 -0.0692
11791TIP3   OH256863   1.375   2.949   4.224  0.3463 -0.0909 -0.2163
11791TIP3    H156864   1.458   2.918   4.260  0.3359  0.2115  0.0676
11791TIP3    H256865   1.374   2.917   4.134  1.3999  1.0771 -0.6611
11792TIP3   OH256866   3.631   3.800   1.158 -0.2574 -1.0201  0.0887
11792TIP3    H156867   3.537   3.803   1.139 -0.1642  1.6723 -0.0235
11792TIP3    H256868   3.673   3.791   1.073 -0.2811  1.0812 -0.1566
11793TIP3   OH256869   1.824   0.158   3.208  0.0277 -0.3181 -0.1927
11793TIP3    H156870   1.843   0.065   3.220  0.1827 -0.3521 -0.7093
11793TIP3    H256871   1.733   0.160   3.178  0.5112 -0.3988 -1.6928
11794TIP3   OH256872   0.324   4.436  13.489  0.0886  0.2707 -0.4724
11794TIP3    H156873   0.235   4.421  13.520  0.4902 -1.0507  0.1286
11794TIP3    H256874   0.366   4.483  13.561  0.5033 -1.1635  0.2558
11795TIP3   OH256875   6.057   3.418  11.574  0.2973  0.5072  0.0849
11795TIP3    H156876   5.966   3.426  11.546  0.2922  0.2152  0.0251
11795TIP3    H256877   6.062   3.471  11.654  0.5374  2.1121 -0.9623
11796TIP3   OH256878   5.348   1.630   2.075  0.5964 -0.0912 -0.3193
11796TIP3    H156879   5.309   1.558   2.124  0.4240  1.6934  2.2162
11796TIP3    H256880   5.280   1.658   2.014 -0.1885 -0.4430  0.3993
11797TIP3   OH256881   5.697   4.883  10.936  0.1284 -0.2725  0.1296
11797TIP3    H156882   5.655   4.941  10.873  1.3556 -0.4610 -0.8696
11797TIP3    H256883   5.625   4.851  10.990 -0.9651 -0.2284 -1.2658
11798TIP3   OH256884   2.268   3.016  10.850  0.1510 -0.4239  0.1224
11798TIP3    H156885   2.272   3.111  10.854 -2.8401 -0.0851 -2.8284
11798TIP3    H256886   2.317   2.993  10.770  1.3094 -1.4273  1.0945
11799TIP3   OH256887   0.805   2.291  14.978 -0.6052 -0.2362  0.4189
11799TIP3    H156888   0.881   2.240  14.951  0.5668  0.7784  1.6780
11799TIP3    H256889   0.815   2.374  14.932 -0.5213  0.1719  1.1537
11800TIP3   OH256890   4.281   5.948  16.565  0.5456  1.0665  0.9607
11800TIP3    H156891   4.288   6.039  16.593 -1.3361  0.3364  4.1016
11800TIP3    H256892   4.247   5.902  16.642 -0.8739 -1.8537 -1.3118
11801TIP3   OH256893   0.007   4.803   5.362  0.0010 -0.1177 -0.1583
11801TIP3    H156894   0.014   4.737   5.431 -0.9305 -0.7842 -0.6852
11801TIP3    H256895  -0.031   4.756   5.288  4.1158 -0.2448 -2.2839
11802TIP3   OH256896   0.376   5.103  15.178 -0.4964 -0.9551  0.3448
11802TIP3    H156897   0.334   5.041  15.119 -1.4137 -1.3488  1.3817
11802TIP3    H256898   0.386   5.055  15.260  0.3632 -0.2795  0.6426
11803TIP3   OH256899   3.305   1.084  11.871 -0.0947  0.8265 -0.0551
11803TIP3    H156900   3.377   1.098  11.810  0.4190  0.6356  0.5057
11803TIP3    H256901   3.283   1.172  11.903  0.0427  0.8598 -0.0518
11804TIP3   OH256902   0.246   0.384   0.949  0.2036 -0.6739  0.0938
11804TIP3    H156903   0.177   0.353   0.891 -0.2808 -0.7983  0.7315
11804TIP3    H256904   0.243   0.326   1.025  1.1583 -0.8199  0.0293
11805TIP3   OH256905   2.864   2.575   3.098  0.0618  0.4728 -0.3690
11805TIP3    H156906   2.902   2.556   3.012  0.4762 -0.6886  0.0721
11805TIP3    H256907   2.921   2.643   3.134  0.2078  0.5723 -0.7846
11806TIP3   OH256908   1.502   6.304   2.412 -0.4172 -0.3515 -0.2260
11806TIP3    H156909   1.504   6.260   2.327  0.0482 -2.6075  0.9127
11806TIP3    H256910   1.480   6.395   2.392  0.2089 -0.7340 -2.8016
11807TIP3   OH256911   1.762   6.704  13.787 -0.0037  0.3825 -0.0310
11807TIP3    H156912   1.734   6.780  13.734 -1.4499 -0.3035 -0.2759
11807TIP3    H256913   1.818   6.654  13.728 -0.8531  0.1089 -0.6172
11808TIP3   OH256914   1.119   2.566  15.946 -0.0648  0.5056 -0.2250
11808TIP3    H156915   1.157   2.490  15.903 -1.2755 -0.9062  1.1288
11808TIP3    H256916   1.088   2.621  15.874  0.6744 -0.3538 -1.2177
11809TIP3   OH256917   4.641   5.791   4.712 -0.0960 -0.5696  0.3653
11809TIP3    H156918   4.571   5.813   4.773  0.4239 -1.5753  1.3341
11809TIP3    H256919   4.682   5.875   4.692 -1.0519 -0.0802  0.4264
11810TIP3   OH256920   4.319   2.193  11.965  0.4553  0.2034 -0.1472
11810TIP3    H156921   4.280   2.114  12.002 -0.5329 -0.0107 -1.5927
11810TIP3    H256922   4.316   2.257  12.037  1.9583 -1.2613  1.2626
11811TIP3   OH256923   3.153   4.704  16.449  0.2353 -0.4821  0.1771
11811TIP3    H156924   3.180   4.784  16.493  1.4580 -0.5098 -0.5109
11811TIP3    H256925   3.197   4.634  16.498  1.1842 -0.5496 -0.7607
11812TIP3   OH256926   3.731   0.505  16.950  0.1213 -0.5494  0.0582
11812TIP3    H156927   3.687   0.471  16.872  0.1283  1.5753 -0.9299
11812TIP3    H256928   3.803   0.558  16.915  0.9532 -0.6844  1.5440
11813TIP3   OH256929   2.016   2.658   4.666  0.3367 -0.5830  0.0489
11813TIP3    H156930   1.955   2.617   4.727 -0.8198 -0.1319 -0.7983
11813TIP3    H256931   2.101   2.620   4.688 -0.2185 -1.0812  1.3487
11814TIP3   OH256932   0.443   0.358   0.235 -0.6064  0.1573  0.0401
11814TIP3    H156933   0.497   0.280   0.241  0.3999  0.4615 -4.0021
11814TIP3    H256934   0.356   0.326   0.211 -0.1764  0.2694 -1.6878
11815TIP3   OH256935   6.384   1.778  10.570 -0.1321  0.4683  0.1593
11815TIP3    H156936   6.304   1.804  10.614 -0.3673  1.0072 -0.5861
11815TIP3    H256937   6.381   1.682  10.569  0.6357  0.3787  2.7117
11816TIP3   OH256938   6.584   4.279   3.195  0.0926  0.0562 -0.2608
11816TIP3    H156939   6.537   4.278   3.278  0.3667  0.5244 -0.1043
11816TIP3    H256940   6.674   4.301   3.218 -0.0466  1.2141 -0.7901
11817TIP3   OH256941   1.438   0.912   1.052 -0.3757  0.0432  0.3058
11817TIP3    H156942   1.491   0.885   0.976 -0.9588 -1.9121  0.5503
11817TIP3    H256943   1.503   0.935   1.119  0.1954 -1.8379  0.4336
11818TIP3   OH256944   1.179   1.593  16.795  0.8679  0.6403 -0.8161
11818TIP3    H156945   1.175   1.533  16.720 -1.5640  0.8072 -0.8542
11818TIP3    H256946   1.224   1.670  16.761  0.9501  0.2046 -1.7320
11819TIP3   OH256947   5.781   4.121   0.985  0.2494 -0.0852 -0.1856
11819TIP3    H156948   5.829   4.203   0.973  0.8293 -0.2530  0.8496
11819TIP3    H256949   5.706   4.145   1.040  0.6331 -0.3095  0.4440
11820TIP3   OH256950   5.608   4.120  12.959 -0.1589  0.1653  0.2948
11820TIP3    H156951   5.537   4.064  12.928 -0.0294  0.2395 -0.1464
11820TIP3    H256952   5.572   4.209  12.957  0.3165  0.3416 -1.0678
11821TIP3   OH256953   1.230   1.045   1.560 -0.3065 -0.2914 -0.3276
11821TIP3    H156954   1.275   0.969   1.596  1.5608  1.3027  0.8759
11821TIP3    H256955   1.155   1.059   1.618 -1.9935 -2.4968 -1.8807
11822TIP3   OH256956   3.653   4.554   4.150 -0.0180 -0.3575  0.0820
11822TIP3    H156957   3.665   4.500   4.072 -0.5385  0.8499 -0.8678
11822TIP3    H256958   3.741   4.566   4.185  0.1443 -1.4530  0.0502
11823TIP3   OH256959   2.045   5.982   4.164  0.4155 -0.5663  0.0902
11823TIP3    H156960   2.054   5.922   4.239  0.9136  0.0968  0.5685
11823TIP3    H256961   2.135   6.000   4.137  0.2674 -0.0453 -0.0616
11824TIP3   OH256962   3.329   5.345  17.283  0.0866 -0.6779  0.0159
11824TIP3    H156963   3.326   5.271  17.224  0.0117 -0.3318 -0.4143
11824TIP3    H256964   3.392   5.319  17.351 -0.1090 -1.2198 -0.0118
11825TIP3   OH256965   4.501   2.305  10.427  0.1229 -0.2657  0.3663
11825TIP3    H156966   4.478   2.273  10.514 -0.1768  0.6405  0.6212
11825TIP3    H256967   4.506   2.400  10.436  2.6409 -0.3262  0.0035
11826TIP3   OH256968   3.570   4.211   6.598  0.1078  0.4021  0.0386
11826TIP3    H156969   3.647   4.221   6.654 -0.8998  0.5108  1.4314
11826TIP3    H256970   3.581   4.125   6.557  2.2131  1.4738 -1.7380
11827TIP3   OH256971   6.411   6.264  15.504 -1.0045  0.6621  0.1050
11827TIP3    H156972   6.346   6.239  15.439  0.7966 -0.3648 -1.3688
11827TIP3    H256973   6.470   6.323  15.456 -0.4328  0.9918  1.2030
11828TIP3   OH256974   6.282   0.040  12.636 -0.6637 -0.7426  0.6387
11828TIP3    H156975   6.217  -0.023  12.605 -0.2159  0.1493 -2.2387
11828TIP3    H256976   6.353  -0.014  12.669 -1.6104 -1.7297  1.1182
11829TIP3   OH256977   1.822   4.504   0.956 -0.7688  0.2445  0.4235
11829TIP3    H156978   1.748   4.565   0.951  0.8003  2.1154 -0.3410
11829TIP3    H256979   1.790   4.425   0.911 -1.3386  2.0571 -2.4875
11830TIP3   OH256980   4.305   1.782  12.900 -0.2906  0.2343 -0.8605
11830TIP3    H156981   4.332   1.862  12.945 -0.8076  0.1945 -0.4799
11830TIP3    H256982   4.337   1.711  12.956 -0.5758  0.1802 -0.7686
11831TIP3   OH256983   1.408   4.747  12.875 -0.1240  0.1437 -0.1038
11831TIP3    H156984   1.336   4.763  12.936  1.1086  2.5046  0.7878
11831TIP3    H256985   1.412   4.826  12.821  1.3930 -0.2273 -0.5610
11832TIP3   OH256986   4.206   5.124  16.396  0.2181  0.4634  0.2487
11832TIP3    H156987   4.253   5.069  16.458  1.8278  0.3919 -1.0003
11832TIP3    H256988   4.271   5.190  16.368 -1.1184  1.8348  0.2905
11833TIP3   OH256989   2.804   1.419   3.361  0.7869 -0.1347 -0.2704
11833TIP3    H156990   2.728   1.410   3.303  0.4526  1.9949 -0.2053
11833TIP3    H256991   2.879   1.412   3.302  0.4729  0.4840 -0.7580
11834TIP3   OH256992   2.458   0.200  14.693 -0.1249 -0.1592  0.0147
11834TIP3    H156993   2.548   0.195  14.661 -0.4595 -0.6675 -0.8558
11834TIP3    H256994   2.408   0.235  14.620 -0.8635 -1.1805  0.0238
11835TIP3   OH256995   5.335   2.810   5.556 -0.1242  0.3316  0.5378
11835TIP3    H156996   5.390   2.888   5.541 -1.3146  1.0468 -0.1831
11835TIP3    H256997   5.259   2.844   5.604  0.1451 -0.6971  1.7269
11836TIP3   OH256998   3.094   3.093   0.921 -0.0973  0.5486  0.0341
11836TIP3    H156999   3.158   3.163   0.928  2.8326 -2.0359  0.0277
11836TIP3    H257000   3.043   3.098   1.002  1.2069  1.6233  0.7998
11837TIP3   OH257001   4.784   4.891  15.603  0.3352  0.0696  0.4975
11837TIP3    H157002   4.770   4.953  15.675 -0.4871  1.0677 -0.5108
11837TIP3    H257003   4.725   4.818  15.623 -0.5624  0.7525  0.3613
11838TIP3   OH257004   5.254   4.721   3.966  0.6066  0.2199 -0.5510
11838TIP3    H157005   5.228   4.647   4.022 -0.1735  0.2156 -0.9130
11838TIP3    H257006   5.272   4.682   3.881  3.5221 -0.0318  0.1053
11839TIP3   OH257007   1.035   5.651   2.015  0.5225 -0.0664  0.1361
11839TIP3    H157008   1.107   5.692   1.967 -0.3722 -1.8755 -2.9088
11839TIP3    H257009   0.986   5.724   2.053  1.1152  1.4548 -1.9715
11840TIP3   OH257010   3.412   4.051  12.295 -0.4914  0.0380 -0.0450
11840TIP3    H157011   3.323   4.032  12.325 -0.9207  0.0710 -1.2678
11840TIP3    H257012   3.437   4.130  12.342 -0.5978 -0.7281  1.3216
11841TIP3   OH257013   3.668   4.291  13.132 -0.5575 -0.0691  0.1220
11841TIP3    H157014   3.736   4.287  13.065 -0.3097  1.3816  0.2706
11841TIP3    H257015   3.627   4.205  13.130  0.3364 -0.4780 -0.9592
11842TIP3   OH257016   6.117   1.375   3.974  0.6737 -0.1784 -0.1762
11842TIP3    H157017   6.162   1.348   4.054 -0.1076  1.1673  0.7364
11842TIP3    H257018   6.049   1.309   3.962 -0.1437  0.4089  1.0997
11843TIP3   OH257019   2.768   3.937  13.901  0.2789 -0.2321 -0.3987
11843TIP3    H157020   2.687   3.946  13.851  0.5680 -2.3428 -1.3157
11843TIP3    H257021   2.821   4.013  13.877 -0.2716 -0.3649 -2.0313
11844TIP3   OH257022   0.351   3.067  15.242  0.0759 -0.0918 -0.6183
11844TIP3    H157023   0.397   2.983  15.237  1.1134  0.5003 -1.0544
11844TIP3    H257024   0.363   3.096  15.332 -0.9220 -0.7584 -0.2589
11845TIP3   OH257025   2.649   2.866  14.448 -0.5866 -0.6083 -0.1529
11845TIP3    H157026   2.644   2.955  14.482  0.0117 -0.5841 -0.1347
11845TIP3    H257027   2.741   2.854  14.423 -1.0590 -0.5089 -2.0635
11846TIP3   OH257028   2.249   5.531  16.057 -0.0231  0.4260  0.0236
11846TIP3    H157029   2.234   5.505  16.148  0.9590  2.4555  0.7757
11846TIP3    H257030   2.207   5.616  16.048  0.1478  0.3849 -1.3558
11847TIP3   OH257031   0.413   6.128   3.119  0.0536 -0.0884 -0.2608
11847TIP3    H157032   0.365   6.209   3.136 -0.3947 -0.1217 -1.3320
11847TIP3    H257033   0.418   6.122   3.023  0.4601 -1.1074 -0.1879
11848TIP3   OH257034   6.020   1.751   0.889 -0.2734  0.3361 -0.3555
11848TIP3    H157035   5.974   1.687   0.943  0.2994 -1.4964 -2.0049
11848TIP3    H257036   6.113   1.732   0.902 -0.0781  1.3373 -0.2496
11849TIP3   OH257037   4.929   2.544   1.787  0.4780 -0.3226  0.3766
11849TIP3    H157038   4.984   2.466   1.795  0.3519 -0.3480  1.1002
11849TIP3    H257039   4.897   2.559   1.876 -1.9951 -1.2587 -0.2993
11850TIP3   OH257040   0.502   0.404   3.496 -0.0514 -0.2699 -0.3444
11850TIP3    H157041   0.525   0.480   3.551 -0.7631  0.4681 -1.0460
11850TIP3    H257042   0.568   0.404   3.427 -0.4220  0.0942 -0.7016
11851TIP3   OH257043   2.251   4.903  12.948 -0.3832  0.6846 -0.5225
11851TIP3    H157044   2.263   4.883  12.855  0.3939  0.6803 -0.4197
11851TIP3    H257045   2.173   4.852  12.973  1.9244 -2.8153 -0.1172
11852TIP3   OH257046   3.420   4.749   0.394  0.1191  0.2006  0.4342
11852TIP3    H157047   3.466   4.803   0.330 -0.7641  0.1109 -0.2813
11852TIP3    H257048   3.434   4.794   0.478 -1.0464  1.8630 -0.2191
11853TIP3   OH257049   0.336   3.615   3.453 -0.0107 -0.0193  0.4335
11853TIP3    H157050   0.273   3.629   3.382  0.9278 -0.2134 -0.4519
11853TIP3    H257051   0.377   3.701   3.466  1.8362 -0.5966 -1.2320
11854TIP3   OH257052   6.620   3.445  11.721  0.0633  0.2497 -0.1326
11854TIP3    H157053   6.634   3.502  11.797  0.1059  1.0422 -0.7270
11854TIP3    H257054   6.539   3.477  11.682  0.0376 -0.1616 -0.4187
11855TIP3   OH257055   3.133   5.872   0.451  0.5088 -0.1251 -0.0863
11855TIP3    H157056   3.179   5.953   0.474  0.5073 -0.1299 -0.0658
11855TIP3    H257057   3.093   5.892   0.366 -2.2563  1.0112  1.4449
11856TIP3   OH257058   3.033   6.129   0.988  0.5307 -0.1455 -0.6839
11856TIP3    H157059   3.053   6.039   0.960  0.3739 -0.4113  0.0393
11856TIP3    H257060   3.091   6.184   0.935  0.9852 -0.7098 -0.7782
11857TIP3   OH257061   3.120   4.314   2.297 -0.0060 -0.1290 -0.0322
11857TIP3    H157062   3.122   4.397   2.344  0.1336 -0.2147  0.1162
11857TIP3    H257063   3.094   4.250   2.363  0.2943 -0.2660 -0.0459
11858TIP3   OH257064   4.119   0.831   6.009  0.3054 -0.4547  0.0462
11858TIP3    H157065   4.177   0.888   6.060 -0.6797  0.8345 -0.2339
11858TIP3    H257066   4.172   0.802   5.935  1.0324 -0.4502  0.5650
11859TIP3   OH257067   5.606   2.387   0.995  0.4931  0.2568  0.0321
11859TIP3    H157068   5.531   2.385   1.053 -1.3491  1.3551 -2.2352
11859TIP3    H257069   5.613   2.297   0.962  0.1773  0.1519  0.2506
11860TIP3   OH257070   4.924   6.717  16.104  0.0397  0.1058 -0.2034
11860TIP3    H157071   4.885   6.631  16.120  1.8315 -0.8900 -0.9964
11860TIP3    H257072   5.001   6.699  16.051  1.2467  2.0703  0.8165
11861TIP3   OH257073   0.196   4.034   4.487  0.0618  0.4137 -0.1563
11861TIP3    H157074   0.229   3.961   4.539  2.3943 -0.6762 -3.1060
11861TIP3    H257075   0.220   4.112   4.538 -0.0718 -0.6954  1.6753
11862TIP3   OH257076   5.101   3.490  12.834  0.0748  0.0877  0.2348
11862TIP3    H157077   5.124   3.573  12.792  2.7180 -1.9627 -2.6356
11862TIP3    H257078   5.178   3.468  12.886 -0.9833 -0.1544  1.7331
11863TIP3   OH257079   6.190   0.500   0.273 -0.2972 -0.6998  0.0598
11863TIP3    H157080   6.245   0.499   0.195  1.0548  2.8572  0.8594
11863TIP3    H257081   6.104   0.529   0.241 -0.2257 -0.9424 -0.3579
11864TIP3   OH257082   5.474   3.434  15.593 -0.1837 -0.7346  0.3087
11864TIP3    H157083   5.426   3.466  15.517  1.7603 -0.9574 -1.0567
11864TIP3    H257084   5.543   3.499  15.608  0.7980 -1.7960  0.5225
11865TIP3   OH257085   0.397   4.184  11.404 -0.0988  0.3495  0.3314
11865TIP3    H157086   0.457   4.244  11.449 -0.1301  1.8222 -1.5297
11865TIP3    H257087   0.310   4.210  11.434 -0.1817  1.8876 -1.1836
11866TIP3   OH257088   2.188   2.121  14.701  0.1592  0.6484 -0.3223
11866TIP3    H157089   2.282   2.104  14.706  0.1357  0.9140  1.5391
11866TIP3    H257090   2.153   2.086  14.783 -1.6690 -1.1432 -1.8185
11867TIP3   OH257091   6.528   4.729   1.142 -0.0569  0.6027 -0.6096
11867TIP3    H157092   6.603   4.743   1.085  0.3492  1.1498  0.0476
11867TIP3    H257093   6.506   4.817   1.174 -0.7686  0.4008 -0.5431
11868TIP3   OH257094   5.344   6.671  14.993  0.2550  0.0150 -0.5420
11868TIP3    H157095   5.363   6.750  14.943  0.4176 -0.0645 -0.6041
11868TIP3    H257096   5.275   6.627  14.944  0.7003 -0.2699 -0.9109
11869TIP3   OH257097   5.350   4.114  15.683 -0.4830  0.5721 -0.5608
11869TIP3    H157098   5.315   4.037  15.729 -0.1002  0.2751 -0.7638
11869TIP3    H257099   5.285   4.134  15.617  0.5425 -1.0788 -2.1336
11870TIP3   OH257100   6.755   2.972  13.334 -0.2443 -0.9085  0.1174
11870TIP3    H157101   6.705   2.978  13.252  0.1078  0.0896 -0.0321
11870TIP3    H257102   6.688   2.971  13.402 -0.4930  0.1221 -0.0977
11871TIP3   OH257103   6.458   1.467  14.248  0.2409  0.3574  0.1345
11871TIP3    H157104   6.466   1.501  14.159  0.9816  1.1144  0.4852
11871TIP3    H257105   6.387   1.403  14.243  1.8033 -1.3217 -1.5126
11872TIP3   OH257106   6.409   1.625   4.964 -0.5677 -0.3019 -0.0269
11872TIP3    H157107   6.453   1.551   5.006 -0.6793  0.5062  1.5598
11872TIP3    H257108   6.398   1.689   5.034  0.2955  1.5680 -1.5761
11873TIP3   OH257109   3.343   5.213   2.279  0.1388 -0.4235 -0.3190
11873TIP3    H157110   3.418   5.175   2.232  0.4969 -0.5623  0.3559
11873TIP3    H257111   3.267   5.165   2.244  0.6558 -2.2860  1.0191
11874TIP3   OH257112   0.315   1.493  15.364  0.3972 -0.3760 -0.3248
11874TIP3    H157113   0.386   1.470  15.304 -0.1075  1.0004 -1.4798
11874TIP3    H257114   0.349   1.567  15.414 -0.2843  0.3887 -0.9938
11875TIP3   OH257115   1.504   4.016  12.835  0.2133  0.1649  0.4315
11875TIP3    H157116   1.544   3.974  12.759  2.6494 -0.8335  2.2089
11875TIP3    H257117   1.417   4.042  12.805  1.3190  0.3071 -2.8657
11876TIP3   OH257118   4.305   0.984   0.519  0.0382  0.4788  0.7015
11876TIP3    H157119   4.285   1.048   0.450  0.7370  2.9735  2.7625
11876TIP3    H257120   4.332   0.906   0.471  0.1185  2.0135 -1.8688
11877TIP3   OH257121   2.908   2.814   3.528 -0.0498  0.0243 -0.0345
11877TIP3    H157122   2.821   2.824   3.566 -0.0592  0.1562 -0.0911
11877TIP3    H257123   2.942   2.904   3.520  0.5101 -0.0869  0.9831
11878TIP3   OH257124   1.457   5.052  13.777  0.1138 -0.5775  0.5719
11878TIP3    H157125   1.503   5.087  13.853 -1.2820  0.4065  1.0026
11878TIP3    H257126   1.367   5.040  13.808 -0.6231  0.4830 -1.0989
11879TIP3   OH257127   0.542   0.256  11.793  0.3471 -0.3725  0.6131
11879TIP3    H157128   0.623   0.235  11.838  0.0416 -1.1553  0.8041
11879TIP3    H257129   0.559   0.236  11.701  0.1989 -1.0348  0.7309
11880TIP3   OH257130   6.243   3.989  13.673 -0.4676  0.1227 -0.2107
11880TIP3    H157131   6.209   4.049  13.738  0.3484  0.7326 -0.3425
11880TIP3    H257132   6.249   3.905  13.719  0.8430  0.7173  0.7409
11881TIP3   OH257133   3.767   2.206  11.483  0.1963 -0.0743  0.4079
11881TIP3    H157134   3.857   2.206  11.516  0.2823 -4.5744  0.4675
11881TIP3    H257135   3.714   2.227  11.560  0.9990 -0.0759  0.9758
11882TIP3   OH257136   0.852   0.197  13.839 -0.1690  0.0975  0.1861
11882TIP3    H157137   0.785   0.223  13.902 -1.0020 -0.6708 -0.3672
11882TIP3    H257138   0.931   0.184  13.891 -1.2265 -2.0202  1.3274
11883TIP3   OH257139   3.802   4.774   5.014  0.3607 -0.6814 -0.2319
11883TIP3    H157140   3.884   4.766   4.965  0.5793  0.7763 -0.1053
11883TIP3    H257141   3.814   4.851   5.069 -1.5462  0.2814 -1.1088
11884TIP3   OH257142   5.034   3.020  11.625 -0.0758 -0.0957  0.3106
11884TIP3    H157143   5.046   2.933  11.662  0.5517 -0.0215  0.2775
11884TIP3    H257144   4.974   3.063  11.686 -0.2458 -0.4891  0.4230
11885TIP3   OH257145   5.087   5.300  12.172 -0.0296  0.1622  0.1529
11885TIP3    H157146   5.169   5.273  12.212  0.9004  0.1765 -1.6808
11885TIP3    H257147   5.023   5.297  12.243  1.3377 -0.8458  1.3628
11886TIP3   OH257148   3.396   3.280   3.302  0.0911  0.2242 -0.1809
11886TIP3    H157149   3.442   3.203   3.335 -1.1239 -0.2285  0.5046
11886TIP3    H257150   3.311   3.246   3.274  0.2417  1.0058 -1.6217
11887TIP3   OH257151   5.714   3.795   2.571  0.0424  0.0307 -0.1924
11887TIP3    H157152   5.653   3.867   2.554  0.2566  0.7689  1.9443
11887TIP3    H257153   5.730   3.756   2.486 -1.7187  1.2074 -1.0897
11888TIP3   OH257154   6.345   3.761   3.596  0.2312  0.0820 -0.2787
11888TIP3    H157155   6.406   3.691   3.618 -0.4337 -0.9063 -1.5187
11888TIP3    H257156   6.272   3.750   3.657  0.3212 -0.0399 -0.1930
11889TIP3   OH257157   4.331   5.191   4.600 -0.3153  0.6037 -0.2316
11889TIP3    H157158   4.364   5.215   4.687  0.9338  0.0675 -0.5547
11889TIP3    H257159   4.332   5.095   4.600  0.8054  0.6047 -1.2514
11890TIP3   OH257160   4.914   0.619   0.058  0.4812 -0.4260 -0.2610
11890TIP3    H157161   4.915   0.596  -0.035 -0.2852  2.5354 -1.0414
11890TIP3    H257162   4.824   0.606   0.085  0.7777 -1.6184  0.1626
11891TIP3   OH257163   1.258   3.319  11.202  0.3321 -0.6409  0.2995
11891TIP3    H157164   1.194   3.371  11.250  0.1344 -0.8674  0.2786
11891TIP3    H257165   1.342   3.339  11.245  0.0647 -1.3608  1.1665
11892TIP3   OH257166   6.313   4.840  16.297  0.0579 -0.3142  0.0154
11892TIP3    H157167   6.317   4.920  16.245  0.0473 -1.1163 -1.2529
11892TIP3    H257168   6.252   4.860  16.368 -0.0995  0.7336 -0.4034
11893TIP3   OH257169   3.713   6.709  12.262  0.1808  0.3399 -0.0987
11893TIP3    H157170   3.674   6.627  12.295 -0.3681  1.2553  1.5540
11893TIP3    H257171   3.786   6.680  12.207 -0.7677 -1.3051 -0.5361
11894TIP3   OH257172   0.286   1.492  16.568  0.4409  0.0451 -0.3560
11894TIP3    H157173   0.248   1.579  16.556 -1.5127 -1.0738 -2.5970
11894TIP3    H257174   0.363   1.507  16.623  0.6300  3.2956 -1.4079
11895TIP3   OH257175   3.245   5.130  12.873  0.7361 -0.4173 -0.4820
11895TIP3    H157176   3.181   5.117  12.943 -0.7054 -1.1942 -1.8934
11895TIP3    H257177   3.324   5.162  12.917 -0.9176  1.4837  1.1832
11896TIP3   OH257178   5.449   3.732   3.672 -0.2114  0.2413  0.5865
11896TIP3    H157179   5.355   3.716   3.678  0.0789 -1.2835  1.5046
11896TIP3    H257180   5.475   3.688   3.590 -0.3611  1.0233  0.1157
11897TIP3   OH257181   6.715   4.031  11.555  0.3545  0.0208  0.4263
11897TIP3    H157182   6.634   3.981  11.565  0.2784  0.6090  3.1297
11897TIP3    H257183   6.774   3.972  11.509 -1.3755 -0.6617 -0.9812
11898TIP3   OH257184   5.857   2.297   5.307 -0.3944 -0.1422 -0.6722
11898TIP3    H157185   5.824   2.369   5.254  0.2424  0.7277  0.0757
11898TIP3    H257186   5.811   2.306   5.391 -0.6525 -0.8858 -0.7326
11899TIP3   OH257187   6.285   1.891  17.243  0.1151  0.1017 -0.2892
11899TIP3    H157188   6.377   1.917  17.250  0.1583  0.3091 -1.4236
11899TIP3    H257189   6.266   1.897  17.149 -0.8241 -0.7353 -0.1597
11900TIP3   OH257190   1.651   3.467   1.463  0.0354 -0.6721  0.0975
11900TIP3    H157191   1.584   3.531   1.487 -0.4685 -2.4029  3.6160
11900TIP3    H257192   1.731   3.500   1.504  0.4694 -0.7269 -0.6921
11901TIP3   OH257193   5.893   6.791  11.328 -0.2348  0.1430  0.0449
11901TIP3    H157194   5.942   6.816  11.249  0.7126 -1.4670  0.1123
11901TIP3    H257195   5.871   6.699  11.314 -2.2844  0.5406  0.5306
11902TIP3   OH257196   6.484   1.958  13.273  0.1327 -0.2336 -0.3980
11902TIP3    H157197   6.507   1.945  13.181 -2.2797  1.2712 -1.2688
11902TIP3    H257198   6.568   1.972  13.317  1.1543  1.7344 -2.8432
11903TIP3   OH257199   2.131   5.680  11.149  0.4623 -0.6554 -0.0145
11903TIP3    H157200   2.055   5.733  11.173  0.8632 -0.0381 -0.1018
11903TIP3    H257201   2.187   5.739  11.100  0.1441 -1.6283 -1.5707
11904TIP3   OH257202   2.313   4.608  13.173 -0.1383  0.3628 -0.2669
11904TIP3    H157203   2.330   4.626  13.081  0.6559  0.0960 -0.1801
11904TIP3    H257204   2.236   4.551  13.173 -0.0836  0.2899 -0.7735
11905TIP3   OH257205   2.130   5.101   6.010 -0.2587  0.7378 -0.3555
11905TIP3    H157206   2.070   5.142   6.073 -1.4825  0.2377 -1.1677
11905TIP3    H257207   2.103   5.009   6.009 -0.8924  0.9226 -2.3002
11906TIP3   OH257208   3.051   5.324   0.564 -0.1804  0.5121  0.7467
11906TIP3    H157209   3.030   5.401   0.617 -0.1946  1.2447 -0.3060
11906TIP3    H257210   3.052   5.251   0.626  0.3464  1.4412  1.8372
11907TIP3   OH257211   2.125   1.304   0.701  0.2276  0.0019 -0.1825
11907TIP3    H157212   2.050   1.360   0.681  0.5317  0.2207 -0.7252
11907TIP3    H257213   2.145   1.261   0.617 -1.1212 -2.2740  0.6005
11908TIP3   OH257214   5.245   6.191  15.802  0.5253  0.2516  0.1671
11908TIP3    H157215   5.310   6.261  15.802 -0.9503  1.6613 -0.1950
11908TIP3    H257216   5.263   6.141  15.882  1.6081  1.0424  0.4217
11909TIP3   OH257217   3.528   2.153  12.814  0.1231 -0.0788 -0.4360
11909TIP3    H157218   3.447   2.111  12.785 -0.9080  1.0574  0.6811
11909TIP3    H257219   3.586   2.152  12.738 -1.7940  1.1406 -1.9431
11910TIP3   OH257220   1.064   0.111   2.361  0.0539 -0.2658 -0.4455
11910TIP3    H157221   0.969   0.112   2.355 -0.1131 -1.4202  1.3608
11910TIP3    H257222   1.088   0.201   2.382 -0.6978 -0.1032 -0.2636
11911TIP3   OH257223   2.368   1.878  11.253  0.0461 -0.4260  0.1005
11911TIP3    H157224   2.434   1.810  11.271  0.5323 -0.5744 -2.0594
11911TIP3    H257225   2.287   1.830  11.239  0.0191 -0.4367  0.2986
11912TIP3   OH257226   0.492   0.394  16.021  0.2013 -0.3555 -0.1421
11912TIP3    H157227   0.414   0.436  16.060 -0.9366  0.1028 -2.7733
11912TIP3    H257228   0.456   0.326  15.965  1.9395 -2.9387  1.7855
11913TIP3   OH257229   3.144   3.070  13.057 -0.4732  0.1788  0.7159
11913TIP3    H157230   3.220   3.016  13.080 -0.7936 -0.2203  0.8293
11913TIP3    H257231   3.137   3.063  12.962 -1.2960 -1.0251  0.8537
11914TIP3   OH257232   4.455   1.694   3.216  0.7434  0.3967  0.1927
11914TIP3    H157233   4.548   1.678   3.233  0.3807 -0.0509  1.9064
11914TIP3    H257234   4.410   1.626   3.267 -0.4921 -0.2781 -1.7361
11915TIP3   OH257235   4.577   5.230  11.445 -0.1343 -0.0256 -0.0283
11915TIP3    H157236   4.603   5.139  11.433  1.1695  0.1480  1.4251
11915TIP3    H257237   4.658   5.280  11.437 -0.7180  0.9374 -0.0250
11916TIP3   OH257238   4.777   2.985  13.752 -0.2341 -0.2310  0.0377
11916TIP3    H157239   4.717   2.949  13.686 -0.0900  0.8116 -0.6696
11916TIP3    H257240   4.765   3.079  13.747  0.3813 -0.0914  0.9481
11917TIP3   OH257241   4.486   1.768  10.782 -0.8404 -0.3631 -0.2325
11917TIP3    H157242   4.581   1.763  10.771 -0.6187 -0.5286  1.7002
11917TIP3    H257243   4.451   1.744  10.696  0.8615 -0.0796 -1.0215
11918TIP3   OH257244   5.640   6.242   2.928 -0.1180 -0.2478 -0.2150
11918TIP3    H157245   5.718   6.198   2.963 -0.3880 -0.6783 -0.1525
11918TIP3    H257246   5.642   6.224   2.834  1.4532  2.2043 -0.7209
11919TIP3   OH257247   2.355   4.250   0.031  0.0228 -0.0129 -0.6750
11919TIP3    H157248   2.398   4.280   0.111 -1.9626 -1.2538  0.9280
11919TIP3    H257249   2.360   4.324  -0.030  0.9463  1.1995  0.8589
11920TIP3   OH257250   5.283   6.515   4.993 -0.1850  0.1285  0.5491
11920TIP3    H157251   5.211   6.532   5.054  0.1567 -0.2449  1.0590
11920TIP3    H257252   5.274   6.422   4.971 -1.1676  0.5843 -1.0935
11921TIP3   OH257253   3.844   1.092  12.620  0.9428  0.2305 -0.1836
11921TIP3    H157254   3.935   1.119  12.613  0.4373  1.2595 -3.7743
11921TIP3    H257255   3.828   1.040  12.542 -1.6801  0.4381  0.1743
11922TIP3   OH257256   0.433   4.493   5.630  0.1712  0.4786  0.1601
11922TIP3    H157257   0.503   4.507   5.695  1.0018 -0.1284 -0.5922
11922TIP3    H257258   0.479   4.482   5.547 -0.6045 -2.7138  0.0715
11923TIP3   OH257259   0.224   4.058   0.499  0.0489  0.4503  0.4925
11923TIP3    H157260   0.184   4.097   0.421  0.3158  0.1849  0.2170
11923TIP3    H257261   0.298   4.116   0.519 -0.7030  1.1695  1.2435
11924TIP3   OH257262   2.546   2.718   2.971 -0.7090  0.5544  0.2496
11924TIP3    H157263   2.572   2.627   2.957  1.1785  0.6150  2.9507
11924TIP3    H257264   2.451   2.719   2.958 -0.2710 -0.9750 -3.6582
11925TIP3   OH257265   3.985   3.269   3.623  0.4716  0.0117 -0.7134
11925TIP3    H157266   3.988   3.270   3.527  0.8832  1.3803 -0.6971
11925TIP3    H257267   3.918   3.203   3.644 -0.5947  0.6637 -1.9763
11926TIP3   OH257268   6.572   2.198   5.313 -0.4560 -0.4242 -0.4810
11926TIP3    H157269   6.583   2.119   5.260 -0.5656 -0.4365 -0.4864
11926TIP3    H257270   6.488   2.235   5.283 -0.7575 -0.6958  0.0289
11927TIP3   OH257271   0.378   6.139   3.843 -0.2982 -0.3041 -0.2676
11927TIP3    H157272   0.289   6.136   3.807  0.0895 -1.0440 -1.2088
11927TIP3    H257273   0.397   6.048   3.867 -0.1320  0.0037  0.7848
11928TIP3   OH257274   0.509   1.621   1.005  0.2212  0.7626 -0.5757
11928TIP3    H157275   0.557   1.656   0.929  0.1935  2.0478 -0.0171
11928TIP3    H257276   0.417   1.630   0.981  0.2211  0.4331 -0.7053
11929TIP3   OH257277   0.312   0.403  12.190  0.2034  0.3561  0.0390
11929TIP3    H157278   0.364   0.431  12.115  0.3090 -0.7146 -0.2956
11929TIP3    H257279   0.331   0.469  12.257  2.5531 -0.3697  0.1631
11930TIP3   OH257280   4.484   3.530   4.553  0.2071 -0.5101 -0.2788
11930TIP3    H157281   4.485   3.595   4.623 -2.6278 -0.2704 -0.3687
11930TIP3    H257282   4.450   3.578   4.477 -1.4965 -1.9219 -0.4524
11931TIP3   OH257283   2.922   1.539   4.310  0.3510  0.0226  0.2931
11931TIP3    H157284   2.863   1.490   4.367 -1.1347  0.7005 -0.6366
11931TIP3    H257285   2.968   1.472   4.259 -0.0612 -0.4836  0.5879
11932TIP3   OH257286   6.601   5.153  16.134  0.1081  0.3532 -0.3285
11932TIP3    H157287   6.519   5.191  16.166  0.3742  0.9376 -0.3521
11932TIP3    H257288   6.577   5.063  16.111  0.0243 -0.2052  1.9019
11933TIP3   OH257289   0.582   2.273  15.451 -0.2893  0.0822 -0.4894
11933TIP3    H157290   0.555   2.250  15.363  1.8809  2.0618 -1.7130
11933TIP3    H257291   0.637   2.200  15.479  0.3238  0.2071 -1.3778
11934TIP3   OH257292   1.016   4.762   3.455 -0.3048  0.1587 -0.6987
11934TIP3    H157293   0.994   4.831   3.392 -2.5545  1.2131  1.1827
11934TIP3    H257294   0.956   4.691   3.435  0.1620 -0.1829 -0.8792
11935TIP3   OH257295   2.065   4.281  17.190 -0.4335 -0.4754  0.3149
11935TIP3    H157296   2.011   4.252  17.117 -1.4883 -0.4921  1.0871
11935TIP3    H257297   2.006   4.281  17.265  0.6363 -0.4719  1.1731
11936TIP3   OH257298   6.110   3.424   0.564 -0.2258  0.7441 -0.1828
11936TIP3    H157299   6.159   3.368   0.624 -2.9932 -0.5791  0.8679
11936TIP3    H257300   6.109   3.510   0.606  0.6204  0.6327  0.0792
11937TIP3   OH257301   4.324   0.153  15.391 -0.0638 -0.0221 -0.0772
11937TIP3    H157302   4.257   0.200  15.342  1.6545  0.9763 -1.5378
11937TIP3    H257303   4.389   0.220  15.414  1.7143 -1.3853 -0.9508
11938TIP3   OH257304   5.850   4.882  13.508 -0.5291  0.0378 -0.8186
11938TIP3    H157305   5.915   4.953  13.503  1.4352 -1.7093 -0.6631
11938TIP3    H257306   5.872   4.824  13.436 -0.4727 -1.7677  0.6089
11939TIP3   OH257307   5.211   1.746   0.970  0.9268  0.1227  0.4181
11939TIP3    H157308   5.257   1.750   0.886 -0.9592  0.5120 -0.6151
11939TIP3    H257309   5.245   1.820   1.019  0.8583  0.8618 -0.6283
11940TIP3   OH257310   3.510   4.375  14.520  0.2330 -0.1504  0.8241
11940TIP3    H157311   3.492   4.287  14.551  1.5616 -0.4363  0.8084
11940TIP3    H257312   3.539   4.364  14.429 -2.9267  0.6187 -0.3443
11941TIP3   OH257313   3.419   5.371  12.768 -1.1718 -0.1551  0.0572
11941TIP3    H157314   3.508   5.406  12.759 -0.3671 -1.3257  2.8770
11941TIP3    H257315   3.397   5.339  12.681  0.6758  1.2720 -0.9786
11942TIP3   OH257316   5.677   2.858   2.419 -1.1579  0.8652  0.2030
11942TIP3    H157317   5.703   2.785   2.476 -1.9617  0.6181  0.2599
11942TIP3    H257318   5.629   2.816   2.348  2.4263  0.8176 -2.3561
11943TIP3   OH257319   3.957   4.832  11.043 -0.3175  0.5305  0.1714
11943TIP3    H157320   4.021   4.818  11.113  0.1360  0.3634 -0.2797
11943TIP3    H257321   3.873   4.817  11.085 -0.0665  0.7905  0.7782
11944TIP3   OH257322   2.298   6.079  11.837 -0.2315 -0.4195  0.0908
11944TIP3    H157323   2.224   6.130  11.803 -0.5836 -1.1068 -0.1796
11944TIP3    H257324   2.258   5.999  11.871  0.6332 -1.7617 -2.0160
11945TIP3   OH257325   3.325   6.334   1.819  0.0643  0.6574  0.1344
11945TIP3    H157326   3.259   6.275   1.856  0.0106  0.5576 -0.1164
11945TIP3    H257327   3.400   6.278   1.800 -0.4406  0.4435 -1.2527
11946TIP3   OH257328   6.464   2.509  17.211  0.2358  0.0167  0.1345
11946TIP3    H157329   6.521   2.475  17.142  0.0626 -0.7431  0.3577
11946TIP3    H257330   6.419   2.432  17.246 -0.6096  0.5539  0.2502
11947TIP3   OH257331   5.783   6.646   3.422  0.0161 -0.2880  0.0338
11947TIP3    H157332   5.705   6.667   3.474  0.2425  1.2558 -0.2262
11947TIP3    H257333   5.788   6.717   3.358  1.5325 -0.4767 -0.0595
11948TIP3   OH257334   2.431   3.588  15.183 -0.2973 -0.2199  0.6493
11948TIP3    H157335   2.461   3.673  15.217 -0.8867 -0.0218  0.6741
11948TIP3    H257336   2.511   3.546  15.152  0.0834  0.0916  1.1915
11949TIP3   OH257337   0.157   6.254   1.699  0.1754  0.1189  0.6857
11949TIP3    H157338   0.146   6.159   1.698  1.4920 -0.0352  1.0068
11949TIP3    H257339   0.209   6.271   1.777 -0.9707  1.2148  1.2263
11950TIP3   OH257340   1.396   0.084   4.652 -0.0998  0.1212 -0.7420
11950TIP3    H157341   1.307   0.099   4.684 -0.4729 -0.1718 -1.6252
11950TIP3    H257342   1.395  -0.007   4.622  0.5477  0.0657 -0.6028
11951TIP3   OH257343   5.607   6.028  13.913 -0.3414 -1.0357  0.2974
11951TIP3    H157344   5.539   6.094  13.926 -1.3246 -1.6620 -1.4728
11951TIP3    H257345   5.689   6.074  13.930 -1.1439 -0.0360  1.5691
11952TIP3   OH257346   3.398   4.881  14.595 -0.3573  0.3503 -0.9173
11952TIP3    H157347   3.342   4.870  14.518  1.5189  0.3301 -2.3016
11952TIP3    H257348   3.378   4.805  14.650 -2.6094  1.0062 -0.7830
11953TIP3   OH257349   4.863   5.226  13.910  0.5125  0.2500  0.2565
11953TIP3    H157350   4.914   5.182  13.842  0.9281  0.6389  0.3106
11953TIP3    H257351   4.795   5.164  13.933 -0.3568  0.5864 -1.3568
11954TIP3   OH257352   3.555   5.104   6.052 -0.0055  0.1411 -0.3670
11954TIP3    H157353   3.499   5.077   5.979  2.4109 -2.0600 -1.5074
11954TIP3    H257354   3.537   5.040   6.121 -2.0611  2.0386  0.9341
11955TIP3   OH257355   4.286   4.125   2.309 -0.4426  0.4642 -0.2904
11955TIP3    H157356   4.338   4.205   2.315 -0.6242  0.6084 -0.6468
11955TIP3    H257357   4.230   4.138   2.233  1.1773 -0.9539 -1.7833
11956TIP3   OH257358   6.560   3.939  11.282  0.3122 -0.0902  0.2561
11956TIP3    H157359   6.482   3.922  11.230  0.3592 -0.2206  0.2288
11956TIP3    H257360   6.618   3.866  11.263  0.9290  0.6314 -0.6492
11957TIP3   OH257361   6.170   5.201  16.975 -0.4165 -0.0387  0.1839
11957TIP3    H157362   6.138   5.228  16.888 -0.4644 -1.6506 -0.3081
11957TIP3    H257363   6.250   5.251  16.987 -1.4573  1.6978  0.0712
11958TIP3   OH257364   1.150   4.558   5.311  0.3915 -0.0132  0.4370
11958TIP3    H157365   1.157   4.648   5.278  0.7745  0.1689  0.9885
11958TIP3    H257366   1.240   4.526   5.311  0.3378 -0.1697  0.8465
11959TIP3   OH257367   1.045   1.290   4.615  0.2318 -0.0098 -0.2962
11959TIP3    H157368   1.033   1.310   4.522  1.5049  1.0169 -0.2569
11959TIP3    H257369   1.023   1.371   4.660 -1.8566 -0.9511  0.4288
11960TIP3   OH257370   0.114   6.014  10.492  0.8908  0.2262  0.8398
11960TIP3    H157371   0.067   6.098  10.490  0.6843  0.1552  2.2108
11960TIP3    H257372   0.188   6.027  10.433 -0.6276  0.4647 -1.0724
11961TIP3   OH257373   6.270   1.746  11.202 -0.2854 -0.0195 -0.9047
11961TIP3    H157374   6.357   1.767  11.168 -1.0161  1.8187 -1.7151
11961TIP3    H257375   6.251   1.659  11.169  0.7842  0.0124 -1.6282
11962TIP3   OH257376   1.146   0.442   5.494 -0.1723 -0.5724  0.5957
11962TIP3    H157377   1.186   0.404   5.573  1.2715  0.2289  0.2570
11962TIP3    H257378   1.151   0.536   5.508 -0.0579 -0.4357 -0.3940
11963TIP3   OH257379   0.031   2.994   1.405  0.1098 -0.3209  0.4216
11963TIP3    H157380   0.019   3.029   1.317  0.3185 -0.3406  0.3845
11963TIP3    H257381   0.079   2.912   1.392 -1.4574 -1.2564  0.4061
11964TIP3   OH257382   2.864   1.644   2.149 -0.2712  0.0740  0.2508
11964TIP3    H157383   2.833   1.727   2.112 -1.7405 -0.8584 -0.6371
11964TIP3    H257384   2.815   1.635   2.231 -0.2707 -0.0366  0.2386
11965TIP3   OH257385   5.376   4.719   6.250  0.6331 -0.4903 -0.0309
11965TIP3    H157386   5.342   4.797   6.295  1.0884 -0.2247 -0.1491
11965TIP3    H257387   5.462   4.745   6.218 -0.5322 -0.0245 -2.8655
11966TIP3   OH257388   3.142   1.600  14.861 -0.5804  0.0303  0.0341
11966TIP3    H157389   3.167   1.515  14.896  1.8982  1.4746  1.9790
11966TIP3    H257390   3.198   1.610  14.783 -0.6528  0.0057 -0.0216
11967TIP3   OH257391   1.519   0.695   4.726 -0.1110  0.2304 -0.0389
11967TIP3    H157392   1.452   0.626   4.729  0.2477 -0.1228 -0.0895
11967TIP3    H257393   1.601   0.650   4.744 -0.1587  1.0599  2.3662
11968TIP3   OH257394   1.913   0.451  14.909 -0.6928  0.0174  0.2600
11968TIP3    H157395   1.826   0.441  14.949 -1.3562  0.8801 -0.9459
11968TIP3    H257396   1.903   0.526  14.850  0.5260 -0.7193 -0.8741
11969TIP3   OH257397   5.984   2.212   0.832  0.1607  0.1643  0.0674
11969TIP3    H157398   5.932   2.171   0.902 -0.7201  0.8339 -0.2014
11969TIP3    H257399   6.032   2.139   0.793  0.5952 -0.2362  1.3079
11970TIP3   OH257400   6.272   3.256   5.701 -0.2918  0.2207  0.2488
11970TIP3    H157401   6.328   3.334   5.704 -0.8472  0.6816 -0.9743
11970TIP3    H257402   6.196   3.283   5.649 -1.2038 -0.6892  1.0853
11971TIP3   OH257403   2.330   3.979  14.502 -0.3855 -0.3105 -0.3741
11971TIP3    H157404   2.281   3.988  14.420  0.4497 -1.0474 -0.9694
11971TIP3    H257405   2.408   4.033  14.488 -1.7827  2.2367  1.2130
11972TIP3   OH257406   2.008   6.755   4.854 -0.5195  0.0918 -0.3087
11972TIP3    H157407   2.080   6.813   4.829  0.9965 -0.6097  2.2116
11972TIP3    H257408   1.930   6.811   4.854  0.5472  1.5947 -0.1258
11973TIP3   OH257409   4.455   3.400  10.701  0.7143 -0.0315  0.3574
11973TIP3    H157410   4.517   3.384  10.771  0.4286 -0.5703  0.4911
11973TIP3    H257411   4.506   3.443  10.632  1.1172 -0.0203  0.6676
11974TIP3   OH257412   4.468   4.967   1.748  0.1359  0.0574  0.1432
11974TIP3    H157413   4.495   4.944   1.659  2.9992 -0.3601  1.0594
11974TIP3    H257414   4.382   4.926   1.759 -0.0311 -0.3024 -2.2318
11975TIP3   OH257415   3.245   4.593   1.987 -0.1562  0.6096 -0.4548
11975TIP3    H157416   3.337   4.595   2.016  0.4846 -0.5765 -2.3392
11975TIP3    H257417   3.250   4.578   1.893 -2.2768  2.0335 -0.8304
11976TIP3   OH257418   0.425   2.118  13.043 -0.4530  0.0830 -0.4106
11976TIP3    H157419   0.357   2.052  13.028 -0.9701  0.7029 -0.8869
11976TIP3    H257420   0.482   2.112  12.966  0.2551 -0.6924  0.1685
11977TIP3   OH257421   3.040   4.317  16.751  0.4850 -0.6209 -0.3241
11977TIP3    H157422   2.967   4.255  16.748  0.8490 -1.0058 -1.6912
11977TIP3    H257423   2.999   4.403  16.755 -0.0436 -0.8525 -0.7583
11978TIP3   OH257424   4.964   0.423   5.154  0.0407 -0.3140  0.0245
11978TIP3    H157425   5.026   0.425   5.228 -1.8387 -0.1717  1.6417
11978TIP3    H257426   4.963   0.513   5.121  1.1083 -0.4422 -0.3783
11979TIP3   OH257427   3.828   3.465   1.583 -0.0663 -0.1140  0.4626
11979TIP3    H157428   3.768   3.526   1.539 -1.2861 -1.4443  0.2778
11979TIP3    H257429   3.793   3.455   1.671 -0.0029 -0.7423  0.4190
11980TIP3   OH257430   1.557   3.135   5.585  0.0941 -0.0883 -0.7102
11980TIP3    H157431   1.611   3.060   5.610 -1.1395 -0.6884  0.2465
11980TIP3    H257432   1.470   3.098   5.571 -0.9872  1.4050  1.6762
11981TIP3   OH257433   5.745   4.497  16.227 -0.4166  0.6971 -0.0547
11981TIP3    H157434   5.780   4.417  16.266  0.5839  1.9717  1.7198
11981TIP3    H257435   5.753   4.482  16.132 -1.0343 -1.6247  0.2255
11982TIP3   OH257436   0.596   6.228   1.353 -0.0348 -0.0765  0.2390
11982TIP3    H157437   0.535   6.298   1.328 -0.9933 -1.5382 -1.6494
11982TIP3    H257438   0.544   6.168   1.405  0.2936 -0.3552  0.2427
11983TIP3   OH257439   5.878   5.591  16.294 -0.7894 -0.7822 -0.5805
11983TIP3    H157440   5.863   5.641  16.214 -0.5262  0.7841  0.3520
11983TIP3    H257441   5.973   5.581  16.300 -0.7609 -0.1606 -0.0048
11984TIP3   OH257442   0.852   2.700   4.491 -0.0123  0.6331 -0.0952
11984TIP3    H157443   0.766   2.716   4.530 -0.5087  2.8256 -1.9747
11984TIP3    H257444   0.850   2.607   4.467 -2.1805  0.8429 -0.8219
11985TIP3   OH257445   3.007   6.031   4.731 -0.0309 -0.0292  0.1182
11985TIP3    H157446   2.962   6.078   4.801 -1.6540  1.6917 -2.0141
11985TIP3    H257447   3.100   6.041   4.751 -0.4706  0.0434  2.2474
11986TIP3   OH257448   5.298   5.714  12.226 -0.3144 -0.2125  0.0289
11986TIP3    H157449   5.312   5.754  12.140  1.6465 -1.2493 -0.1617
11986TIP3    H257450   5.368   5.749  12.281 -0.0090 -1.5334  0.4945
11987TIP3   OH257451   4.594   0.745  10.950  0.4554 -0.0554  0.4890
11987TIP3    H157452   4.622   0.718  11.038 -0.6838 -1.1979  0.5015
11987TIP3    H257453   4.624   0.675  10.893  0.6454  0.3892  0.0358
11988TIP3   OH257454   0.400   6.369   1.566  0.2714 -0.7962  0.2159
11988TIP3    H157455   0.423   6.394   1.476  1.6425 -0.2880  0.6852
11988TIP3    H257456   0.321   6.316   1.557 -0.4295  0.4491 -1.1576
11989TIP3   OH257457   6.572   6.371  14.426 -0.2852  0.0480  0.0926
11989TIP3    H157458   6.558   6.442  14.490 -0.7772  1.3199 -1.3905
11989TIP3    H257459   6.516   6.300  14.457 -2.8629  1.7219 -0.5221
11990TIP3   OH257460   1.613   2.982   5.117 -0.2272 -0.2077 -0.0725
11990TIP3    H157461   1.547   2.959   5.181 -0.8361 -0.2605 -0.7121
11990TIP3    H257462   1.635   3.074   5.135  0.1398 -0.4390  0.6686
11991TIP3   OH257463   5.764   6.422  13.568 -0.3481 -0.1418  1.0005
11991TIP3    H157464   5.841   6.387  13.613 -0.9271 -1.9899  0.6125
11991TIP3    H257465   5.707   6.346  13.556 -0.9626  0.6482 -1.2733
11992TIP3   OH257466   6.512   5.277  11.045  0.2761 -0.1921 -0.0995
11992TIP3    H157467   6.519   5.367  11.013 -1.0857 -0.4894 -1.3005
11992TIP3    H257468   6.571   5.228  10.988  1.2471 -0.0275  0.7478
11993TIP3   OH257469   1.018   3.493  17.026  0.1712  0.1177 -0.5069
11993TIP3    H157470   1.043   3.483  16.934 -1.5376 -0.6454 -0.9077
11993TIP3    H257471   0.926   3.465  17.029 -0.7533  3.1592  0.8440
11994TIP3   OH257472   4.499   2.708  15.697  0.3069 -0.1162  0.1381
11994TIP3    H157473   4.520   2.791  15.654  2.7586 -1.2674 -1.0153
11994TIP3    H257474   4.443   2.662  15.634  0.1901  0.0538  0.1184
11995TIP3   OH257475   4.065   4.931  14.627 -0.5910  0.6904 -0.3111
11995TIP3    H157476   4.143   4.881  14.650  0.4746  2.6097  0.3205
11995TIP3    H257477   4.082   4.962  14.538 -0.5782  1.2247 -0.1217
11996TIP3   OH257478   5.165   1.738   0.365  0.2040  0.7113  0.7278
11996TIP3    H157479   5.188   1.824   0.401  2.7154  1.3805 -2.3113
11996TIP3    H257480   5.082   1.753   0.320 -0.9072  0.7928  2.7363
11997TIP3   OH257481   6.570   1.982   0.535  0.1418 -0.2747 -0.6275
11997TIP3    H157482   6.487   1.938   0.554 -0.1824  0.3743 -0.5268
11997TIP3    H257483   6.552   2.037   0.459  0.4526 -0.0710 -0.5559
11998TIP3   OH257484   2.236   5.684  11.857  1.0986 -0.5256  0.1829
11998TIP3    H157485   2.229   5.663  11.950  1.9612 -0.2159  0.3193
11998TIP3    H257486   2.185   5.764  11.846  2.9974  0.8037  0.8575
11999TIP3   OH257487   3.569   6.230   1.727 -0.3554 -0.0181 -0.5693
11999TIP3    H157488   3.592   6.249   1.637 -0.5821 -1.3148 -0.9157
11999TIP3    H257489   3.596   6.139   1.740  0.4545  0.4302  0.9283
12000TIP3   OH257490   2.958   3.059  15.681 -0.3879 -0.0313  0.2166
12000TIP3    H157491   2.965   3.081  15.589  3.7654 -0.0497  0.4188
12000TIP3    H257492   3.042   3.016  15.702 -0.8803  0.7447  4.1576
12001TIP3   OH257493   1.259   3.503  11.628  0.0487 -0.1227  0.3978
12001TIP3    H157494   1.232   3.557  11.554  1.9810 -0.5350 -0.6316
12001TIP3    H257495   1.254   3.413  11.596 -3.2350 -0.6023  2.1347
12002TIP3   OH257496   6.022   3.766  13.028 -0.4426  0.3897  0.3345
12002TIP3    H157497   5.940   3.815  13.024 -0.3615  0.5963  1.0912
12002TIP3    H257498   6.034   3.747  13.121 -0.1355 -0.5035  0.1112
12003TIP3   OH257499   4.100   4.419   6.400  0.2130  0.5725  0.0977
12003TIP3    H157500   4.027   4.455   6.450 -0.1572 -0.8906  0.6387
12003TIP3    H257501   4.060   4.383   6.321  0.6067  1.4922 -0.5347
12004TIP3   OH257502   4.139   1.606  11.936  0.1216 -0.1426 -0.2854
12004TIP3    H157503   4.108   1.557  12.012 -0.6193 -0.7380 -0.9713
12004TIP3    H257504   4.061   1.618  11.882  0.4205  1.2568 -0.4258
12005TIP3   OH257505   4.198   4.149  16.129  0.3175  0.4156  0.0033
12005TIP3    H157506   4.151   4.099  16.196 -1.7962  2.4046  0.0892
12005TIP3    H257507   4.227   4.228  16.175  3.2752 -0.4931 -0.2087
12006TIP3   OH257508   5.930   1.535   1.140 -0.4157 -0.4345  0.1437
12006TIP3    H157509   5.878   1.507   1.065 -0.9141 -0.3412  0.4513
12006TIP3    H257510   5.865   1.554   1.208  0.0007  0.0280  0.4129
12007TIP3   OH257511   2.292   2.876   3.707  0.1621  0.3742 -0.1997
12007TIP3    H157512   2.228   2.868   3.637 -3.2279 -0.4358  2.8754
12007TIP3    H257513   2.273   2.961   3.747  2.0775  0.8303 -0.1759
12008TIP3   OH257514   4.310   6.087   1.071 -0.1094 -0.7681 -0.2565
12008TIP3    H157515   4.368   6.107   0.998 -0.2640 -1.4627 -0.5744
12008TIP3    H257516   4.333   6.152   1.138  1.3942 -1.3472 -0.1779
12009TIP3   OH257517   2.739   4.784  15.323  0.0137 -0.0229 -0.0988
12009TIP3    H157518   2.786   4.702  15.339  1.6059  0.7977 -0.4526
12009TIP3    H257519   2.709   4.811  15.410 -1.4514 -1.5053 -0.1149
12010TIP3   OH257520   4.686   3.901  14.581  0.2677 -0.1568  0.2775
12010TIP3    H157521   4.766   3.907  14.633  2.5070 -0.1699 -2.9648
12010TIP3    H257522   4.717   3.878  14.493 -3.3800 -0.8019 -0.9159
12011TIP3   OH257523   2.281   3.473   1.053  0.1250  0.4641 -0.0523
12011TIP3    H157524   2.274   3.562   1.019 -0.8732  0.4072  0.0043
12011TIP3    H257525   2.202   3.429   1.022 -0.0766 -0.0062  1.1214
12012TIP3   OH257526   4.068   2.799   0.276  0.3253 -0.4632  0.6238
12012TIP3    H157527   4.051   2.716   0.319 -0.2418 -0.7858 -0.2188
12012TIP3    H257528   4.164   2.803   0.269  0.3477 -1.0850  0.5777
12013TIP3   OH257529   1.989   2.371  15.718  0.2844 -0.0336 -0.3704
12013TIP3    H157530   1.938   2.322  15.783 -1.3403 -0.1005 -1.6626
12013TIP3    H257531   2.000   2.457  15.758 -1.5838  0.2500 -0.3923
12014TIP3   OH257532   0.149   2.497  16.936 -0.0812  0.4065 -0.0219
12014TIP3    H157533   0.243   2.515  16.942  0.4008 -2.5563  2.1912
12014TIP3    H257534   0.140   2.441  16.859 -0.2138  1.6050 -0.8936
12015TIP3   OH257535   0.074   0.999   1.529 -0.2543 -0.1860 -0.0839
12015TIP3    H157536   0.100   1.064   1.595  0.1359  0.9168 -1.2972
12015TIP3    H257537   0.063   1.050   1.449 -0.1324 -1.6040 -1.0121
12016TIP3   OH257538   6.131   0.662  14.933  0.1185 -0.7049  0.6592
12016TIP3    H157539   6.084   0.579  14.937  0.3863 -0.8614  0.5996
12016TIP3    H257540   6.209   0.642  14.881  0.1533 -0.4030  0.5974
12017TIP3   OH257541   3.316   2.387   4.761  0.0730 -0.4473  0.5180
12017TIP3    H157542   3.305   2.391   4.856  1.1279 -0.5887  0.6440
12017TIP3    H257543   3.282   2.472   4.730 -1.7794 -1.0420  0.8546
12018TIP3   OH257544   6.146   2.003  11.669  0.0789  0.2064 -0.5514
12018TIP3    H157545   6.217   2.067  11.668 -0.6754  1.0265 -1.7269
12018TIP3    H257546   6.068   2.053  11.693 -0.2031 -0.6035  0.2612
12019TIP3   OH257547   0.032   1.659   3.939 -0.2904  0.0985  0.1191
12019TIP3    H157548  -0.016   1.650   3.857  0.8047  0.8045 -0.6241
12019TIP3    H257549   0.058   1.569   3.961 -0.2878 -0.0578 -0.4981
12020TIP3   OH257550   0.852   4.951  15.027 -0.5107  0.4884 -0.1273
12020TIP3    H157551   0.841   4.912  15.113 -0.6826 -0.7041 -0.6822
12020TIP3    H257552   0.766   4.986  15.005 -0.4369  0.8970  0.2293
12021TIP3   OH257553   5.121   3.596   6.334  0.1145  0.1038  0.5418
12021TIP3    H157554   5.058   3.647   6.385  0.9773  0.4615  1.2521
12021TIP3    H257555   5.181   3.559   6.399  0.3815 -0.5943 -0.0964
12022TIP3   OH257556   3.464   5.556  16.253  0.1751 -0.1515  0.0219
12022TIP3    H157557   3.396   5.529  16.314 -0.4643  0.8167 -0.2503
12022TIP3    H257558   3.546   5.530  16.295 -0.2783  0.1840  1.1204
12023TIP3   OH257559   2.333   1.070   0.897 -0.0281  0.0950 -0.3211
12023TIP3    H157560   2.393   0.996   0.913 -0.1972 -0.2174 -1.1072
12023TIP3    H257561   2.391   1.145   0.886  0.1147  0.2087  1.1518
12024TIP3   OH257562   2.443   6.002  12.873 -0.3085  0.5278 -0.4941
12024TIP3    H157563   2.367   5.974  12.924 -0.1999 -0.3948 -0.8233
12024TIP3    H257564   2.508   6.027  12.940  0.3697 -2.1065 -0.0977
12025TIP3   OH257565   4.033   0.842   3.993  0.5176 -0.5321 -0.7705
12025TIP3    H157566   4.075   0.920   3.956 -0.4396 -0.7051 -2.2364
12025TIP3    H257567   4.090   0.816   4.065  2.0887  0.1478 -1.7549
12026TIP3   OH257568   2.551   1.435  10.884  0.0616  0.0622 -0.6035
12026TIP3    H157569   2.614   1.484  10.832 -1.5769  0.7158 -2.0014
12026TIP3    H257570   2.492   1.396  10.820 -0.3240 -1.4513  0.6350
12027TIP3   OH257571   2.876   0.470   1.972  0.7210  0.2041 -0.0173
12027TIP3    H157572   2.821   0.403   1.931 -0.1028  1.6399 -1.3009
12027TIP3    H257573   2.962   0.459   1.931  1.4205 -1.9090  1.8465
12028TIP3   OH257574   3.191   2.127   5.049 -0.4927  0.6132  0.0135
12028TIP3    H157575   3.134   2.197   5.016  0.9252  1.4159 -0.7660
12028TIP3    H257576   3.266   2.127   4.990  1.3641  1.0070  2.3147
12029TIP3   OH257577   4.054   0.510   5.613 -0.0505 -0.1374  0.1189
12029TIP3    H157578   4.043   0.417   5.633 -1.8193 -0.4424 -2.1328
12029TIP3    H257579   4.084   0.512   5.522  0.1081  1.4996  0.1878
12030TIP3   OH257580   4.428   5.777   1.195  0.5707  0.0841 -0.0123
12030TIP3    H157581   4.357   5.759   1.256  1.6938 -0.5737  1.1076
12030TIP3    H257582   4.507   5.747   1.239  1.4250 -0.2862 -1.7299
12031TIP3   OH257583   5.739   5.710  14.062 -0.5108 -0.2588 -0.6512
12031TIP3    H157584   5.828   5.738  14.041 -0.4147  0.7496  1.0290
12031TIP3    H257585   5.699   5.787  14.103 -1.4838 -1.3451  0.4689
12032TIP3   OH257586   4.752   0.195   6.083  0.2618  0.7265  0.1885
12032TIP3    H157587   4.826   0.256   6.096 -1.4887  2.9386  0.0825
12032TIP3    H257588   4.692   0.215   6.154  0.0584 -1.5489  0.6772
12033TIP3   OH257589   3.430   5.372  15.760  0.2478  0.1383  0.0655
12033TIP3    H157590   3.429   5.288  15.716 -0.1339 -0.0301  0.3909
12033TIP3    H257591   3.354   5.419  15.724 -1.4269 -0.8632  2.1944
12034TIP3   OH257592   0.063   3.578   4.126  0.0163 -0.5672 -0.3822
12034TIP3    H157593   0.110   3.572   4.042 -1.1546 -1.9983 -0.9422
12034TIP3    H257594   0.079   3.494   4.168 -0.3315 -0.2615  0.3583
12035TIP3   OH257595   1.676   5.985  15.051 -0.2680 -0.0509 -0.3799
12035TIP3    H157596   1.652   5.988  14.958  0.9046  1.2361 -0.6548
12035TIP3    H257597   1.593   5.998  15.097 -0.8302 -0.4957 -1.2357
12036TIP3   OH257598   2.694   4.319  12.523 -0.5270 -0.6298 -0.5683
12036TIP3    H157599   2.635   4.379  12.476 -1.9244 -1.3536  0.2246
12036TIP3    H257600   2.655   4.312  12.610  1.0496 -0.7058  0.1379
12037TIP3   OH257601   0.704   1.515  13.738 -0.2426 -0.2631  0.0606
12037TIP3    H157602   0.686   1.588  13.798  0.7902  0.2224 -0.1967
12037TIP3    H257603   0.707   1.438  13.795 -1.3481 -0.1077  0.3362
12038TIP3   OH257604   0.924   3.423  12.258 -0.2084 -0.0553  0.1018
12038TIP3    H157605   0.902   3.355  12.194 -0.8380  0.4770 -0.2586
12038TIP3    H257606   0.998   3.469  12.219  2.0717 -2.2992  1.6414
12039TIP3   OH257607   5.205   2.407  12.906  0.0328 -0.4054  0.2434
12039TIP3    H157608   5.195   2.360  12.988  0.1805  0.4782  0.7785
12039TIP3    H257609   5.227   2.497  12.932 -0.1944 -0.0490 -0.7515
12040TIP3   OH257610   2.111   1.615   5.457  0.6446  0.3296  0.1519
12040TIP3    H157611   2.117   1.547   5.523 -1.9751 -0.8164 -0.6999
12040TIP3    H257612   2.020   1.645   5.462  1.2359  2.3699 -0.8360
12041TIP3   OH257613   3.406   5.711   2.414 -0.2877 -0.2887 -0.0287
12041TIP3    H157614   3.349   5.738   2.342  1.6087  0.0321 -1.4496
12041TIP3    H257615   3.395   5.616   2.418  1.7596 -0.6967 -2.7015
12042TIP3   OH257616   5.498   3.672  17.078  0.2803  0.0724 -0.6831
12042TIP3    H157617   5.421   3.635  17.034 -0.2109  1.5933 -1.1267
12042TIP3    H257618   5.550   3.709  17.007  0.4923  0.7287 -0.1885
12043TIP3   OH257619   0.573   6.565  10.625 -0.2820  0.0821 -0.3956
12043TIP3    H157620   0.504   6.503  10.600  0.1211 -0.1866 -0.8782
12043TIP3    H257621   0.654   6.518  10.606  0.0285  0.4393  0.0554
12044TIP3   OH257622   1.714   1.743   6.629  0.2122 -0.1055  0.0522
12044TIP3    H157623   1.748   1.729   6.541 -0.7828 -0.0459 -0.3473
12044TIP3    H257624   1.747   1.670   6.680  0.6320 -0.2437 -0.4210
12045TIP3   OH257625   0.492   0.365  15.658 -0.1445 -0.0415 -0.2664
12045TIP3    H157626   0.586   0.366  15.642 -0.0346 -0.9224  0.2935
12045TIP3    H257627   0.473   0.452  15.694  0.4636  0.0985 -0.2786
12046TIP3   OH257628   3.277   2.786   4.152  0.3251 -0.6884  0.3620
12046TIP3    H157629   3.197   2.747   4.118 -0.8812  1.3713  0.7479
12046TIP3    H257630   3.283   2.871   4.107  1.7882 -0.4233  1.0271
12047TIP3   OH257631   0.925   3.274  16.012 -0.3222  0.5924  0.2434
12047TIP3    H157632   0.875   3.328  15.950 -0.1772 -0.0861 -0.4789
12047TIP3    H257633   0.974   3.337  16.064 -1.4454  1.2340  0.5402
12048TIP3   OH257634   4.075   3.082  11.689  0.1352  0.6874 -0.1589
12048TIP3    H157635   4.109   3.127  11.767 -0.1054  1.2755 -0.3867
12048TIP3    H257636   4.147   3.027  11.659 -0.3030 -0.7894  1.4221
12049TIP3   OH257637   4.166   5.736  11.272  0.2669 -0.6680  0.2067
12049TIP3    H157638   4.116   5.694  11.201  0.9116 -0.9747 -0.0669
12049TIP3    H257639   4.168   5.671  11.341 -3.2351  0.8154  1.8610
12050TIP3   OH257640   3.087   0.957  11.652  0.2725 -0.0508 -0.2720
12050TIP3    H157641   3.171   0.938  11.692  0.4712 -0.4126 -0.8471
12050TIP3    H257642   3.100   0.939  11.559 -0.9053 -1.7459 -0.1443
12051TIP3   OH257643   2.476   3.198   3.201 -0.1320  0.0588 -0.0351
12051TIP3    H157644   2.465   3.103   3.200 -0.0388  0.0144  1.8205
12051TIP3    H257645   2.387   3.232   3.188 -0.0045 -0.2467 -1.9424
12052TIP3   OH257646   1.692   0.424   2.867  0.5242 -0.2945 -0.2394
12052TIP3    H157647   1.776   0.428   2.912  0.8243  0.2230 -0.8219
12052TIP3    H257648   1.647   0.350   2.906  0.2551  0.8912  1.8004
12053TIP3   OH257649   6.614   5.073   0.258  0.4627  0.2768 -0.3002
12053TIP3    H157650   6.603   5.136   0.329  0.0264  0.3670 -0.4434
12053TIP3    H257651   6.553   5.002   0.280 -0.7338  0.9588 -1.3161
12054TIP3   OH257652   2.069   3.711  12.966  0.0657 -0.1642 -0.4161
12054TIP3    H157653   2.093   3.778  13.029  0.4286  0.0635 -0.7889
12054TIP3    H257654   2.142   3.649  12.966 -0.3624 -0.6773  0.0811
12055TIP3   OH257655   4.814   1.765  11.726 -0.3834 -0.1336 -0.2339
12055TIP3    H157656   4.869   1.724  11.793 -0.0625  0.6267 -0.0271
12055TIP3    H257657   4.799   1.696  11.662 -0.3083 -0.7360  0.3919
12056TIP3   OH257658   5.533   2.901  16.763 -0.7583  0.1028  0.7155
12056TIP3    H157659   5.563   2.956  16.836 -1.8334  2.0870 -0.2769
12056TIP3    H257660   5.487   2.962  16.705 -1.1096 -1.6939 -0.9446
12057TIP3   OH257661   1.585   1.187  14.306 -0.5648 -0.3715  0.1238
12057TIP3    H157662   1.497   1.217  14.331 -1.0981 -1.8978  0.1577
12057TIP3    H257663   1.607   1.122  14.372  0.1138 -0.8152 -0.5317
12058TIP3   OH257664   1.220   1.942  14.837 -0.4393 -0.7094  0.3539
12058TIP3    H157665   1.184   2.029  14.855 -1.5521 -0.7503 -1.4636
12058TIP3    H257666   1.226   1.938  14.741  1.3999 -1.9372  0.4910
12059TIP3   OH257667   1.669   5.130  13.456  0.2108 -0.0578 -0.0211
12059TIP3    H157668   1.692   5.088  13.373 -1.1601 -0.2195 -0.3281
12059TIP3    H257669   1.744   5.187  13.475  0.6759 -0.2480 -1.2079
12060TIP3   OH257670   5.690   1.305   0.415 -0.3059  0.1760  1.0521
12060TIP3    H157671   5.746   1.230   0.397  0.1255  0.7909 -0.2771
12060TIP3    H257672   5.604   1.280   0.380  0.0106  0.5615 -0.0153
12061TIP3   OH257673   0.309   1.559   4.934  0.2615 -0.0806 -0.0546
12061TIP3    H157674   0.241   1.532   4.995  1.3151 -1.4871  0.5059
12061TIP3    H257675   0.311   1.655   4.941  0.1817 -0.2139  1.9028
12062TIP3   OH257676   2.493   5.220   1.589 -0.2009  0.9801  0.4127
12062TIP3    H157677   2.578   5.232   1.546  0.3454 -1.6628  0.7035
12062TIP3    H257678   2.429   5.222   1.517  0.1334  2.4369  0.1415
12063TIP3   OH257679   0.786   1.049  14.871  0.2235  0.0375  0.0026
12063TIP3    H157680   0.718   1.010  14.815 -0.2346  1.6591 -0.5933
12063TIP3    H257681   0.751   1.042  14.960  0.5048 -1.6273  0.0039
12064TIP3   OH257682   1.680   4.705  13.014 -0.0691  0.0648  0.2313
12064TIP3    H157683   1.601   4.714  12.962 -1.2809 -0.4164  1.9457
12064TIP3    H257684   1.745   4.671  12.953 -0.9609  1.1671 -1.3743
12065TIP3   OH257685   4.981   1.626  11.895 -0.4844  0.2512 -0.1396
12065TIP3    H157686   5.039   1.702  11.903  0.1093 -0.3568  1.6418
12065TIP3    H257687   4.937   1.620  11.980 -0.4664 -1.4383 -0.2255
12066TIP3   OH257688   3.637   4.078  11.614  0.7977 -0.1454 -0.0130
12066TIP3    H157689   3.642   4.103  11.522  3.9189 -0.5242 -0.0064
12066TIP3    H257690   3.728   4.069  11.641 -0.0987 -2.7673  2.3590
12067TIP3   OH257691   4.327   4.639   5.358 -0.4121  0.1218  0.0539
12067TIP3    H157692   4.304   4.702   5.289  0.5520 -0.5131 -0.8503
12067TIP3    H257693   4.347   4.694   5.434  1.9893  1.0098 -1.1778
12068TIP3   OH257694   4.381   5.508  13.328 -0.1525 -0.6434  0.0137
12068TIP3    H157695   4.365   5.464  13.412  0.9074 -1.0407  0.0181
12068TIP3    H257696   4.476   5.518  13.324 -0.4380  3.0604  0.7050
12069TIP3   OH257697   5.744   2.461  17.203 -0.9374  0.3829 -0.2836
12069TIP3    H157698   5.729   2.376  17.244  0.0392  0.2116 -0.2884
12069TIP3    H257699   5.823   2.450  17.151 -0.0806  1.6360  0.7182
12070TIP3   OH257700   5.046   0.295  11.247  0.2500  0.2446 -0.0403
12070TIP3    H157701   5.020   0.275  11.337 -0.0016 -0.9053 -0.3669
12070TIP3    H257702   4.965   0.286  11.196  0.0016  2.6233 -0.1238
12071TIP3   OH257703   0.470   4.823   4.124 -0.2334 -0.2274 -0.2012
12071TIP3    H157704   0.559   4.835   4.158 -0.9725  0.9066  1.4223
12071TIP3    H257705   0.423   4.901   4.153 -1.0675  0.5479 -3.4298
12072TIP3   OH257706   1.438   5.106   1.735  0.1708 -0.1706 -0.2068
12072TIP3    H157707   1.527   5.124   1.703  0.5792 -1.3484  0.2396
12072TIP3    H257708   1.391   5.074   1.658  0.3324 -0.2346 -0.2788
12073TIP3   OH257709   2.436   6.608   5.483 -0.3816 -0.2793  0.1692
12073TIP3    H157710   2.486   6.640   5.558 -1.1947 -1.8827  1.4292
12073TIP3    H257711   2.459   6.668   5.412  0.8321  0.9385  1.5419
12074TIP3   OH257712   2.289   3.909  13.997 -0.0686 -0.5746 -0.2365
12074TIP3    H157713   2.368   3.943  13.954 -0.2898  0.1193 -0.0983
12074TIP3    H257714   2.246   3.856  13.930 -0.7004  0.9454 -1.0539
12075TIP3   OH257715   6.065   2.406  15.405 -0.0226 -0.4189 -0.2816
12075TIP3    H157716   5.985   2.356  15.388 -0.6354  0.5296 -0.2173
12075TIP3    H257717   6.053   2.441  15.493 -0.0304  0.6402 -0.6975
12076TIP3   OH257718   0.221   0.350  15.074 -0.0787 -0.3943  0.2914
12076TIP3    H157719   0.222   0.278  15.011  0.7250 -0.7102  0.6622
12076TIP3    H257720   0.132   0.384  15.069 -0.9117 -2.3335  1.1320
12077TIP3   OH257721   5.373   3.759  13.159  0.1923 -0.1238 -0.3732
12077TIP3    H157722   5.467   3.769  13.171  0.0834  1.4999 -0.7091
12077TIP3    H257723   5.338   3.748  13.247  0.6143  0.0666 -0.1851
12078TIP3   OH257724   5.314   0.804  15.912  0.3740  0.1557  0.3214
12078TIP3    H157725   5.364   0.886  15.912  0.8098 -0.0737 -2.1987
12078TIP3    H257726   5.282   0.796  16.002 -0.8602  3.7967  0.3163
12079TIP3   OH257727   2.495   1.396   2.767  0.5230  0.2066  0.1775
12079TIP3    H157728   2.584   1.422   2.791  0.9148  0.1951 -1.2070
12079TIP3    H257729   2.490   1.303   2.792  0.9940  0.1306  0.0039
12080TIP3   OH257730   4.379   5.848   2.184 -0.5936 -0.0271 -0.0958
12080TIP3    H157731   4.384   5.896   2.102 -1.1579  0.2454  0.0218
12080TIP3    H257732   4.285   5.837   2.200 -0.4770 -1.0332 -0.0371
12081TIP3   OH257733   2.096   4.827   0.619 -0.1233 -0.1598 -0.6277
12081TIP3    H157734   2.057   4.914   0.627 -2.2566 -0.8822 -2.7654
12081TIP3    H257735   2.149   4.832   0.540  0.1708 -0.6735 -0.4665
12082TIP3   OH257736   5.611   4.679  15.023 -0.6573 -0.0481  0.2165
12082TIP3    H157737   5.701   4.710  15.021 -0.6991  0.0108 -1.2591
12082TIP3    H257738   5.608   4.620  15.099  1.1615 -1.6355 -0.8792
12083TIP3   OH257739   5.498   3.697   4.206 -0.0926  0.5831  0.1437
12083TIP3    H157740   5.553   3.775   4.217 -1.1352  1.2571  0.6338
12083TIP3    H257741   5.464   3.679   4.294 -2.2425  1.3502 -0.5097
12084TIP3   OH257742   4.494   4.978   2.122  0.0099  0.5225  0.1148
12084TIP3    H157743   4.468   4.893   2.089 -0.3515  0.7596 -0.2124
12084TIP3    H257744   4.415   5.032   2.117 -0.1130  0.4871  1.6110
12085TIP3   OH257745   2.897   1.624   0.454 -0.3792  0.2883 -0.1082
12085TIP3    H157746   2.872   1.541   0.494  0.6445  0.0625  0.0664
12085TIP3    H257747   2.815   1.673   0.448 -0.2981  1.1580  4.1976
12086TIP3   OH257748   3.690   2.095   3.575  0.1093 -0.2355 -0.7162
12086TIP3    H157749   3.772   2.078   3.529  0.5867 -1.2373  0.5007
12086TIP3    H257750   3.675   2.018   3.630 -0.8562  0.5939  0.2253
12087TIP3   OH257751   4.046   2.043  13.209  0.1733  0.1581  0.9059
12087TIP3    H157752   4.035   1.956  13.171  1.9408  0.5113 -0.4466
12087TIP3    H257753   4.005   2.036  13.295 -1.3577 -1.4706  0.0797
12088TIP3   OH257754   2.914   2.982  16.737  0.0481 -0.0751  0.2851
12088TIP3    H157755   2.869   2.899  16.749 -0.7666  0.2487 -0.5441
12088TIP3    H257756   2.994   2.974  16.791  0.2166 -1.5703 -0.1793
12089TIP3   OH257757   3.143   4.401   6.444 -0.0986 -0.0791 -0.2997
12089TIP3    H157758   3.153   4.411   6.350 -1.0718 -3.5147 -0.8067
12089TIP3    H257759   3.055   4.433   6.463 -0.1651 -0.0533 -0.6578
12090TIP3   OH257760   4.616   2.611   5.462  0.1714  0.3302  0.5674
12090TIP3    H157761   4.581   2.625   5.374  0.2148 -2.6644  0.0089
12090TIP3    H257762   4.641   2.518   5.463  0.5624  0.4167  3.6074
12091TIP3   OH257763   5.663   0.199   6.508  0.3001  0.5027  0.1037
12091TIP3    H157764   5.757   0.214   6.499  0.4821 -0.1364  0.9035
12091TIP3    H257765   5.648   0.192   6.602 -0.4927  0.2608 -0.0381
12092TIP3   OH257766   3.068   6.196   3.634 -0.0426 -0.3697 -0.0775
12092TIP3    H157767   3.038   6.281   3.601 -0.4602  0.1562  1.5725
12092TIP3    H257768   2.988   6.144   3.640 -0.0589 -0.2729  0.6101
12093TIP3   OH257769   1.073   5.046   1.295 -0.1167 -0.7529  0.4590
12093TIP3    H157770   1.039   5.067   1.208  1.2179 -0.8033 -0.0909
12093TIP3    H257771   1.160   5.085   1.296 -1.0245  1.2906  2.6543
12094TIP3   OH257772   4.588   3.125  13.433 -0.2918 -0.5849  0.1605
12094TIP3    H157773   4.561   3.192  13.371 -2.3274 -1.2497  0.2690
12094TIP3    H257774   4.631   3.058  13.380 -0.1806 -0.1876 -0.2469
12095TIP3   OH257775   6.669   3.614  11.929 -0.2148  0.3242  0.3872
12095TIP3    H157776   6.706   3.652  12.009  0.2055 -0.6604  0.6597
12095TIP3    H257777   6.594   3.670  11.909 -0.0930  0.8073  1.2563
12096TIP3   OH257778   0.788   6.114   0.744 -0.7742  0.1807 -0.1809
12096TIP3    H157779   0.821   6.176   0.679 -1.1328 -0.8996 -1.4244
12096TIP3    H257780   0.698   6.095   0.716 -0.8700 -0.4432  0.5182
12097TIP3   OH257781   4.929   4.817  16.794 -0.4728 -0.5328  0.5453
12097TIP3    H157782   5.016   4.808  16.832 -1.0374 -1.3238  1.6803
12097TIP3    H257783   4.901   4.727  16.777  0.0774 -0.1710 -2.5017
12098TIP3   OH257784   0.962   1.606   1.897  0.0048 -0.4791  0.5010
12098TIP3    H157785   0.916   1.629   1.978  0.0977 -0.5457  0.5723
12098TIP3    H257786   0.921   1.662   1.830 -0.7413 -1.1351  0.4080
12099TIP3   OH257787   3.091   1.329  12.884  0.3564 -0.5338 -0.7025
12099TIP3    H157788   3.124   1.380  12.957  0.1108 -0.6594 -0.5040
12099TIP3    H257789   3.165   1.322  12.824  0.1780  0.6875 -1.0825
12100TIP3   OH257790   2.270   4.004  16.146 -0.1839  0.0962  0.2253
12100TIP3    H157791   2.277   3.910  16.132 -3.1153  0.1605 -2.1790
12100TIP3    H257792   2.338   4.041  16.088 -0.8967 -0.4316 -0.9670
12101TIP3   OH257793   2.529   6.468  17.137 -0.2604  0.5007  1.0614
12101TIP3    H157794   2.492   6.508  17.059 -0.6691 -0.3242  0.8288
12101TIP3    H257795   2.583   6.537  17.176 -1.7789  1.6110  1.2481
12102TIP3   OH257796   5.156   3.213  11.949  0.8215  0.3294  0.4595
12102TIP3    H157797   5.174   3.133  11.998  2.5286  0.3243 -0.1375
12102TIP3    H257798   5.229   3.271  11.970  1.0302  0.7090 -1.2426
12103TIP3   OH257799   0.702   2.942  12.057 -0.3271  0.3283 -0.3636
12103TIP3    H157800   0.658   3.000  11.995  1.0531  0.9520 -0.7770
12103TIP3    H257801   0.793   2.937  12.026  0.1104 -0.2545  0.9493
12104TIP3   OH257802   1.458   2.144  17.151  0.1143  0.0265 -0.0092
12104TIP3    H157803   1.534   2.191  17.187  0.0535  0.0145  0.1357
12104TIP3    H257804   1.406   2.211  17.107  1.1493 -0.2687 -1.7148
12105TIP3   OH257805   0.525   2.253  14.101 -0.3565 -0.6195  0.3790
12105TIP3    H157806   0.618   2.241  14.123 -0.4343 -0.2601  0.9093
12105TIP3    H257807   0.478   2.218  14.176 -0.6179  1.0488  1.0022
12106TIP3   OH257808   3.447   0.439  16.691  0.1072  0.2962 -0.1581
12106TIP3    H157809   3.363   0.425  16.647 -0.1749 -0.6131  0.6573
12106TIP3    H257810   3.507   0.379  16.645 -0.0699 -0.2707  0.3417
12107TIP3   OH257811   3.646   6.022   2.355  0.3148  0.1994 -0.1223
12107TIP3    H157812   3.668   5.944   2.406 -1.6992 -1.0940 -1.1535
12107TIP3    H257813   3.712   6.026   2.286 -0.5185 -1.5706 -1.0547
12108TIP3   OH257814   6.378   3.166  13.841 -0.5133 -0.1024 -0.7325
12108TIP3    H157815   6.283   3.167  13.850 -0.4307 -1.8218  0.4942
12108TIP3    H257816   6.403   3.076  13.858  1.4063  0.4466 -0.5138
12109TIP3   OH257817   2.440   4.875  11.240 -0.2417  0.1243  0.2721
12109TIP3    H157818   2.403   4.923  11.166 -1.5539 -0.2106  0.6889
12109TIP3    H257819   2.455   4.787  11.205 -0.2470  0.1441  0.2188
12110TIP3   OH257820   4.623   6.741  14.979 -0.3589 -0.7853  0.0609
12110TIP3    H157821   4.712   6.712  14.961 -0.5594 -2.0035  0.9322
12110TIP3    H257822   4.633   6.825  15.023  0.3628 -0.8535  0.0313
12111TIP3   OH257823   2.385   4.181   3.514  0.0980 -0.2366 -0.7410
12111TIP3    H157824   2.323   4.203   3.445 -0.1791  0.0377 -0.4087
12111TIP3    H257825   2.359   4.094   3.544 -1.6151  0.8367  1.0137
12112TIP3   OH257826   4.391   4.761   0.881  0.5444  0.6158 -0.3688
12112TIP3    H157827   4.435   4.781   0.798  0.7999  2.1330  0.1196
12112TIP3    H257828   4.360   4.846   0.912 -1.9826 -0.2940 -0.2743
12113TIP3   OH257829   6.183   5.626   4.069 -0.6737 -0.4505  0.0992
12113TIP3    H157830   6.274   5.653   4.055 -1.3785  1.2618 -1.2526
12113TIP3    H257831   6.178   5.539   4.029 -0.2543  0.4946 -2.0547
12114TIP3   OH257832   4.395   3.584   4.080  0.4938  0.3240  0.0106
12114TIP3    H157833   4.385   3.675   4.050 -0.6117 -0.3557 -1.8005
12114TIP3    H257834   4.373   3.587   4.173 -2.5771  1.4389 -0.6717
12115TIP3   OH257835   6.340   6.540   4.386  0.1174 -0.3731 -0.3199
12115TIP3    H157836   6.324   6.514   4.295 -1.1285 -0.8388  0.0147
12115TIP3    H257837   6.286   6.619   4.398 -0.4718 -0.8649  0.2896
12116TIP3   OH257838   5.170   4.006   0.046  0.1503 -0.2811  0.0321
12116TIP3    H157839   5.197   4.041  -0.039  0.9383  1.7638  1.0780
12116TIP3    H257840   5.242   3.950   0.074 -0.5169 -1.6996 -1.0474
12117TIP3   OH257841   5.495   0.617  16.673  0.1843  0.1718 -0.7116
12117TIP3    H157842   5.497   0.669  16.593 -0.1608 -0.1228 -0.9152
12117TIP3    H257843   5.497   0.682  16.744  1.0596  0.4091 -0.9505
12118TIP3   OH257844   3.693   3.821   3.032 -0.4646  0.7477  0.1619
12118TIP3    H157845   3.699   3.893   3.095 -2.3442  0.4667  0.6881
12118TIP3    H257846   3.723   3.860   2.949  0.8164  1.4639  0.9399
12119TIP3   OH257847   5.647   6.756  13.023 -0.4417 -0.5036 -0.3650
12119TIP3    H157848   5.695   6.830  13.059 -1.8006  0.4252 -0.4614
12119TIP3    H257849   5.584   6.794  12.963 -0.7220 -1.7852 -0.9083
12120TIP3   OH257850   4.586   0.986   2.714 -0.1954  0.4727 -0.2102
12120TIP3    H157851   4.502   0.954   2.680  0.2417 -2.0496  0.9464
12120TIP3    H257852   4.585   1.080   2.696 -1.7680 -0.0795 -3.3255
12121TIP3   OH257853   6.079   5.536  16.997  0.1205 -0.6064 -1.0504
12121TIP3    H157854   6.093   5.562  16.906  1.1378  1.3528 -0.3847
12121TIP3    H257855   6.165   5.503  17.025 -0.5499 -2.4790 -1.1903
12122TIP3   OH257856   3.218   3.227   4.651 -0.0194  0.0088  0.4468
12122TIP3    H157857   3.221   3.158   4.718 -1.5533  1.2620  1.8495
12122TIP3    H257858   3.167   3.189   4.580 -1.4492 -0.0909  1.4986
12123TIP3   OH257859   2.407   3.734  11.587  0.1152  0.2640 -0.2682
12123TIP3    H157860   2.349   3.660  11.608  0.8067 -0.2053 -0.0239
12123TIP3    H257861   2.416   3.731  11.491  1.0669 -0.6638 -0.1545
12124TIP3   OH257862   6.256   4.051   3.668 -1.0422 -0.3604  0.2880
12124TIP3    H157863   6.334   4.092   3.706 -0.7637 -1.4186  0.8649
12124TIP3    H257864   6.288   3.968   3.632 -1.2018  0.7873 -2.6493
12125TIP3   OH257865   1.856   4.752   5.800  0.5195  0.5644 -0.4359
12125TIP3    H157866   1.864   4.799   5.883  1.4058  1.7643 -1.1887
12125TIP3    H257867   1.945   4.751   5.764  0.2944 -0.6710 -0.9763
12126TIP3   OH257868   5.248   1.238  11.775 -0.2501 -0.3563  0.5579
12126TIP3    H157869   5.282   1.326  11.764  1.2628 -0.9114  0.6716
12126TIP3    H257870   5.163   1.250  11.817 -0.0827  1.0396  0.5095
12127TIP3   OH257871   0.305   3.643   1.727 -0.6911 -0.3192 -0.7549
12127TIP3    H157872   0.282   3.562   1.682 -0.2267 -0.8550 -0.0272
12127TIP3    H257873   0.379   3.620   1.783  0.9617  1.1307 -2.2595
12128TIP3   OH257874   6.201   5.260   0.115  0.0120 -0.6414 -0.4704
12128TIP3    H157875   6.286   5.219   0.099  0.1519  0.2285 -2.1953
12128TIP3    H257876   6.207   5.344   0.068 -1.6255 -0.3659 -0.2045
12129TIP3   OH257877   4.546   1.431   3.043  0.3351  0.0133 -0.7519
12129TIP3    H157878   4.555   1.377   3.122 -1.0941  1.6457  0.5617
12129TIP3    H257879   4.635   1.438   3.009  0.6782 -2.4002 -0.4386
12130TIP3   OH257880   0.049   2.041  13.117  0.1369 -0.8260 -0.0064
12130TIP3    H157881   0.067   2.114  13.058  0.5265 -0.8287  0.1090
12130TIP3    H257882  -0.005   1.981  13.065 -1.7131  0.3749  0.4703
12131TIP3   OH257883   0.316   4.127   2.147 -0.1467 -0.1275  0.0371
12131TIP3    H157884   0.331   4.129   2.242  0.1635 -1.0921  0.0112
12131TIP3    H257885   0.245   4.064   2.136 -1.0677  0.9369 -0.2699
12132TIP3   OH257886   6.661   0.317  11.629  0.7368  0.0699 -0.0836
12132TIP3    H157887   6.719   0.329  11.554  0.1088  0.2364 -0.5490
12132TIP3    H257888   6.694   0.239  11.673  0.6507 -0.4707 -0.9668
12133TIP3   OH257889   5.392   6.142   1.677  0.1621  0.0833 -0.1936
12133TIP3    H157890   5.478   6.126   1.637  0.2447  0.0771 -0.0121
12133TIP3    H257891   5.330   6.107   1.613  0.1640  2.4376 -1.5282
12134TIP3   OH257892   4.491   2.780   1.979 -0.0275 -0.0040 -0.2259
12134TIP3    H157893   4.502   2.762   1.886 -0.6733  0.7048 -0.4380
12134TIP3    H257894   4.572   2.750   2.019  0.8969  1.1484 -1.2211
12135TIP3   OH257895   5.570   6.028   3.581 -0.1732  0.3729  0.2548
12135TIP3    H157896   5.555   6.066   3.494 -0.3733  0.3605  0.2826
12135TIP3    H257897   5.657   5.990   3.576  0.5744  1.9997  0.6300
12136TIP3   OH257898   4.084   5.954   1.417  0.0749  0.1952  0.3516
12136TIP3    H157899   3.990   5.942   1.410  0.0329  0.7658 -0.1554
12136TIP3    H257900   4.097   5.989   1.505  0.0386 -1.8529  1.1957
12137TIP3   OH257901   6.257   5.197   5.673  0.1210  0.7856  0.3234
12137TIP3    H157902   6.338   5.148   5.685 -1.3933 -1.6529  0.9531
12137TIP3    H257903   6.275   5.256   5.600  1.7151 -1.3711 -1.0893
12138TIP3   OH257904   4.499   0.910   1.993  0.1029 -1.0352 -0.2114
12138TIP3    H157905   4.413   0.920   1.952 -0.0374 -1.1458  0.0515
12138TIP3    H257906   4.482   0.858   2.071  0.2125  0.0311  0.5280
12139TIP3   OH257907   6.638   5.797  15.726 -0.0433 -0.6703 -0.7415
12139TIP3    H157908   6.571   5.797  15.658  0.0659 -0.6543 -0.8499
12139TIP3    H257909   6.704   5.859  15.693 -1.6006  1.9714  0.9483
12140TIP3   OH257910   3.518   1.950   1.385  0.8138  0.2989  0.0348
12140TIP3    H157911   3.533   1.977   1.476 -0.5081  1.5733 -0.1175
12140TIP3    H257912   3.508   2.032   1.337 -0.0722 -0.3954 -0.9831
12141TIP3   OH257913   1.462   6.808   3.814  0.7335 -0.1588 -0.0309
12141TIP3    H157914   1.534   6.760   3.774  0.0738 -0.5054 -0.8086
12141TIP3    H257915   1.456   6.889   3.764 -1.0850 -1.2629 -1.6457
12142TIP3   OH257916   0.119   5.030   5.861  0.2881  0.8079 -0.4797
12142TIP3    H157917   0.045   4.993   5.811 -0.7582  1.2879  0.6869
12142TIP3    H257918   0.196   4.993   5.819 -0.6706 -0.9946 -0.7228
12143TIP3   OH257919   0.331   2.670  13.082  0.6175 -0.1937 -0.1016
12143TIP3    H157920   0.319   2.575  13.091  2.1655 -0.4718 -0.7912
12143TIP3    H257921   0.243   2.704  13.064  0.0936 -1.5272 -0.0984
12144TIP3   OH257922   4.797   0.228  11.135  0.0355  0.5703  0.4043
12144TIP3    H157923   4.756   0.153  11.093  0.1117  0.1950  0.9847
12144TIP3    H257924   4.838   0.276  11.063  1.7978 -1.0805  0.2296
12145TIP3   OH257925   6.624   3.020  12.709  0.0894 -0.0256 -0.3231
12145TIP3    H157926   6.705   3.061  12.678  1.7497 -1.6821  1.6695
12145TIP3    H257927   6.616   3.048  12.800 -1.1906 -0.4872 -0.2753
12146TIP3   OH257928   3.471   1.121   2.511  0.0066 -0.3677  0.1905
12146TIP3    H157929   3.552   1.126   2.561 -0.3907 -0.5884  0.8559
12146TIP3    H257930   3.404   1.158   2.569 -0.4707 -0.7081 -0.1385
12147TIP3   OH257931   3.236   0.306  13.507 -0.1815 -0.4118  0.1142
12147TIP3    H157932   3.306   0.256  13.465  0.5546  0.8900 -0.2216
12147TIP3    H257933   3.176   0.327  13.436 -0.7707 -1.2694  0.3501
12148TIP3   OH257934   0.408   3.139  12.152  0.9234  0.4801 -0.0542
12148TIP3    H157935   0.403   3.107  12.063 -0.9868  2.1248 -0.5883
12148TIP3    H257936   0.469   3.213  12.148  0.2841  1.0147 -0.1811
12149TIP3   OH257937   6.151   4.906  15.293 -0.6128  0.0053  0.2394
12149TIP3    H157938   6.181   4.831  15.241  1.2504  0.3450  0.7877
12149TIP3    H257939   6.223   4.968  15.290 -1.3826  0.9881  1.3614
12150TIP3   OH257940   4.990   5.144  11.306  0.0569  0.4503 -0.4957
12150TIP3    H157941   5.033   5.072  11.352 -1.7813  1.4700  3.0404
12150TIP3    H257942   4.943   5.102  11.234 -0.8479 -1.9257  1.4043
12151TIP3   OH257943   6.671   4.899   0.504  0.2178 -0.2317  0.2956
12151TIP3    H157944   6.674   4.990   0.476  0.2961 -0.2272  0.3186
12151TIP3    H257945   6.594   4.863   0.460 -0.7073  0.2521  1.4924
12152TIP3   OH257946   2.071   2.407   2.035  0.6615 -0.4398 -0.1503
12152TIP3    H157947   2.056   2.324   1.990  3.0088 -0.2882 -1.2601
12152TIP3    H257948   2.161   2.402   2.067  0.1799  0.8846  1.4962
12153TIP3   OH257949   3.238   1.277   3.064 -0.5793 -0.3000 -0.2534
12153TIP3    H157950   3.191   1.315   2.989  0.5234  0.9230 -0.3416
12153TIP3    H257951   3.265   1.353   3.116 -1.0281 -1.1376  1.2023
12154TIP3   OH257952   1.502   0.040  12.647  0.4186  0.0493 -0.3042
12154TIP3    H157953   1.416   0.077  12.628 -0.6694 -1.7952  0.8826
12154TIP3    H257954   1.498  -0.049  12.614  0.4465 -1.3794  3.2796
12155TIP3   OH257955   5.866   1.574   1.845  0.0012 -0.1128  0.4726
12155TIP3    H157956   5.816   1.568   1.927 -0.1432 -1.2847  0.2999
12155TIP3    H257957   5.866   1.668   1.825 -2.0591 -0.0697  0.5186
12156TIP3   OH257958   4.239   5.735  13.251 -0.4414 -0.1226  0.1924
12156TIP3    H157959   4.316   5.778  13.288  0.6785 -0.4952 -1.6881
12156TIP3    H257960   4.254   5.642  13.265 -1.7721 -0.0891  2.1226
12157TIP3   OH257961   6.096   3.247   4.083  0.4088  0.3200  0.2776
12157TIP3    H157962   6.155   3.241   4.158 -1.5421 -3.1199  1.6869
12157TIP3    H257963   6.138   3.195   4.015 -0.7723 -1.9789  1.2219
12158TIP3   OH257964   3.361   6.654   0.745  0.4040  0.2084 -0.1629
12158TIP3    H157965   3.354   6.724   0.681  1.4026 -0.2979 -0.8489
12158TIP3    H257966   3.413   6.691   0.816 -1.5979  1.1123  0.8664
12159TIP3   OH257967   4.151   0.974  13.573  0.2289  0.3360  0.8960
12159TIP3    H157968   4.071   0.925  13.594 -0.7471  1.5961  0.1549
12159TIP3    H257969   4.210   0.908  13.538 -1.0520 -0.3442 -0.0380
12160TIP3   OH257970   0.351   1.692   6.304 -0.4192  0.2284 -0.0684
12160TIP3    H157971   0.330   1.599   6.307 -2.6074  0.6591 -0.8305
12160TIP3    H257972   0.302   1.730   6.376 -2.7143  1.3258 -2.1288
12161TIP3   OH257973   0.396   3.913  13.068 -0.0150  0.0376 -0.6285
12161TIP3    H157974   0.325   3.889  13.009  1.2239 -4.2150 -0.5328
12161TIP3    H257975   0.468   3.939  13.011  0.1878 -1.1455 -0.9198
12162TIP3   OH257976   3.101   5.809   5.338 -0.2989  0.2193 -0.1397
12162TIP3    H157977   3.039   5.869   5.381 -0.1739  0.8489 -0.8432
12162TIP3    H257978   3.155   5.865   5.283  1.0872 -0.2957  0.6794
12163TIP3   OH257979   1.720   1.274  17.060  0.4823 -0.6691 -0.2386
12163TIP3    H157980   1.686   1.185  17.075 -0.9709  0.0372  0.8320
12163TIP3    H257981   1.644   1.331  17.075  1.9232  0.9043  1.1916
12164TIP3   OH257982   4.251   4.328  13.832 -0.2988  0.2456 -0.6456
12164TIP3    H157983   4.290   4.374  13.906 -0.7754 -0.5989  0.1285
12164TIP3    H257984   4.319   4.332  13.764  0.4840  0.2613  0.1224
12165TIP3   OH257985   5.542   0.477   3.926  0.2556  0.0551 -0.0094
12165TIP3    H157986   5.488   0.428   3.989  0.5608  0.9747  0.9875
12165TIP3    H257987   5.627   0.434   3.931 -0.2304 -1.0638 -1.1943
12166TIP3   OH257988   4.559   5.499   1.608  0.2865 -0.3190  0.0324
12166TIP3    H157989   4.531   5.420   1.561  1.1119  0.0591 -1.0952
12166TIP3    H257990   4.654   5.495   1.608  0.3636  1.2199 -0.9696
12167TIP3   OH257991   4.787   3.209  14.852 -0.2846  0.7406 -0.0836
12167TIP3    H157992   4.697   3.241  14.850 -0.7735 -0.5630  0.3375
12167TIP3    H257993   4.832   3.260  14.784 -1.6125  0.6112 -1.0969
12168TIP3   OH257994   0.297   3.509  16.602 -0.6397  0.6426 -0.2656
12168TIP3    H157995   0.383   3.528  16.566 -0.5422 -1.9981 -1.5112
12168TIP3    H257996   0.238   3.569  16.557  0.3861  1.8145 -0.0828
12169TIP3   OH257997   1.363   1.890  17.244 -0.4007 -0.0182  0.4309
12169TIP3    H157998   1.389   1.981  17.238  1.6918 -0.5854  0.6478
12169TIP3    H257999   1.406   1.857  17.323 -0.3020 -1.4587 -0.2133
12170TIP3   OH258000   4.155   2.764  15.231  0.1483 -0.2062 -0.8853
12170TIP3    H158001   4.192   2.839  15.276  1.9021 -1.8264  0.4506
12170TIP3    H258002   4.175   2.689  15.288 -0.6475 -1.8285 -2.6746
12171TIP3   OH258003   3.102   4.503  14.805  0.2426 -0.3855  0.1070
12171TIP3    H158004   3.048   4.445  14.858  1.5647 -1.7820 -0.0336
12171TIP3    H258005   3.054   4.511  14.722 -1.0415  0.5414  0.9176
12172TIP3   OH258006   1.779   5.007  16.470 -0.4308  0.4254 -0.3126
12172TIP3    H158007   1.857   4.969  16.428 -1.1913 -1.0451 -0.4217
12172TIP3    H258008   1.709   4.945  16.451 -1.2088  0.7307  1.4784
12173TIP3   OH258009   3.966   0.546   1.162 -0.4552 -0.0784 -0.0975
12173TIP3    H158010   3.954   0.573   1.253 -0.4046  0.6121 -0.2860
12173TIP3    H258011   3.918   0.464   1.154  0.8386 -0.9531  0.9571
12174TIP3   OH258012   2.843   5.737  12.746  0.0121  0.1656 -0.7195
12174TIP3    H158013   2.886   5.652  12.735  0.3314  0.2323 -0.0087
12174TIP3    H258014   2.756   5.725  12.708 -0.5967 -1.0337  0.9690
12175TIP3   OH258015   0.337   0.384   2.540  0.0979  0.0054 -0.1838
12175TIP3    H158016   0.386   0.466   2.543  1.1157 -0.4843 -2.4246
12175TIP3    H258017   0.381   0.327   2.603 -0.8840  1.2794  1.7143
12176TIP3   OH258018   1.194   3.425  16.789 -0.1483 -0.2197 -0.2331
12176TIP3    H158019   1.200   3.395  16.699  0.6112 -1.0124  0.0789
12176TIP3    H258020   1.226   3.352  16.842  0.9041  0.8016  0.5832
12177TIP3   OH258021   2.974   1.984  13.968  0.2552 -0.0227  0.4651
12177TIP3    H158022   3.043   2.034  13.927 -0.1942  0.3907  0.2116
12177TIP3    H258023   2.897   2.041  13.965 -0.1495 -0.5559  0.5559
12178TIP3   OH258024   6.539   1.391  16.206  0.1463 -0.4072 -0.2050
12178TIP3    H158025   6.456   1.357  16.237 -0.2216 -0.2843 -1.0487
12178TIP3    H258026   6.529   1.397  16.111  0.6392  0.8698 -0.1933
12179TIP3   OH258027   4.230   0.917  14.852 -0.4704  0.2458 -0.1404
12179TIP3    H158028   4.279   0.932  14.933 -3.0972  1.3414  1.2972
12179TIP3    H258029   4.296   0.923  14.783  1.4703  1.3837  1.7578
12180TIP3   OH258030   3.353   1.862  13.558 -0.3681 -0.2075 -0.0384
12180TIP3    H158031   3.263   1.831  13.553 -1.1586  1.8909  0.7981
12180TIP3    H258032   3.387   1.849  13.469 -0.9313 -2.5296  0.0332
12181TIP3   OH258033   1.001   2.883  12.343 -0.3815 -0.3398  0.1232
12181TIP3    H158034   0.978   2.886  12.435 -1.7862 -0.4900 -0.2112
12181TIP3    H258035   0.917   2.881  12.297  0.3002 -0.6325 -1.1411
12182TIP3   OH258036   4.960   1.042  16.379  0.4119 -0.2968 -0.4638
12182TIP3    H158037   4.874   1.054  16.338  0.9198  0.8434 -1.2358
12182TIP3    H258038   5.011   0.997  16.312  0.5716 -0.4918 -0.2081
12183TIP3   OH258039   3.643   6.599   2.627 -0.1487  0.6046  0.3060
12183TIP3    H158040   3.694   6.533   2.580 -0.4270  1.2163 -0.9023
12183TIP3    H258041   3.572   6.549   2.667 -0.0018  0.0741 -0.0749
12184TIP3   OH258042   0.295   5.105  16.072  0.0681 -0.0032 -0.0557
12184TIP3    H158043   0.312   5.014  16.095  0.0400  0.3102  1.2072
12184TIP3    H258044   0.200   5.113  16.073  0.1087  0.4281  1.3816
12185TIP3   OH258045   0.655   3.379   3.941  0.1956  0.1038  0.2450
12185TIP3    H158046   0.690   3.340   4.021 -0.6233 -0.5733  0.2706
12185TIP3    H258047   0.729   3.429   3.905  1.0742 -0.9896  0.5164
12186TIP3   OH258048   1.267   6.724   0.378  0.0779 -0.2432  0.4987
12186TIP3    H158049   1.328   6.707   0.450  0.3268  0.8525  0.5598
12186TIP3    H258050   1.181   6.702   0.413  0.2199  0.1364  1.0868
12187TIP3   OH258051   6.568   1.978  13.772 -0.3772 -0.3960 -0.1068
12187TIP3    H158052   6.477   2.005  13.771 -0.1202  0.4711 -1.7562
12187TIP3    H258053   6.591   1.965  13.680  1.6139  1.0098  0.1454
12188TIP3   OH258054   1.172   4.537  12.244 -0.0652  0.1719 -0.0305
12188TIP3    H158055   1.255   4.513  12.204 -0.0912 -1.5289  0.8822
12188TIP3    H258056   1.189   4.620  12.289  0.6579  0.7334 -1.3289
12189TIP3   OH258057   4.361   4.360  16.221  0.1701 -0.1640 -0.0516
12189TIP3    H158058   4.396   4.375  16.133  0.7108  2.2982  0.5549
12189TIP3    H258059   4.433   4.318  16.269  0.1421 -0.7958 -0.5611
12190TIP3   OH258060   5.442   0.712   1.683 -0.2908  0.3144  0.1347
12190TIP3    H158061   5.406   0.749   1.763  0.0820 -1.2627  1.0550
12190TIP3    H258062   5.382   0.641   1.660  1.0324 -0.9494  0.4967
12191TIP3   OH258063   3.850   5.009   6.214  0.3315 -0.2321 -0.0803
12191TIP3    H158064   3.818   5.097   6.195  0.9508  0.0107 -0.0096
12191TIP3    H258065   3.771   4.954   6.214 -0.0290  0.2815 -0.3468
12192TIP3   OH258066   1.614   1.531  13.746  0.2855 -0.4935 -0.1152
12192TIP3    H158067   1.575   1.618  13.740  0.7394 -0.2168  0.7903
12192TIP3    H258068   1.558   1.475  13.692 -1.0923 -0.0029  0.7899
12193TIP3   OH258069   4.837   0.707   3.190  0.3881  0.2011 -0.6289
12193TIP3    H158070   4.775   0.779   3.173 -0.0482  0.1758  0.7931
12193TIP3    H258071   4.911   0.726   3.132 -1.8383 -0.9720 -4.0813
12194TIP3   OH258072   4.779   1.845  16.238  0.1254 -0.4713 -0.2160
12194TIP3    H158073   4.802   1.833  16.331  1.7329  2.1486 -0.2258
12194TIP3    H258074   4.684   1.854  16.238  0.0741 -0.8870  1.1354
12195TIP3   OH258075   3.785   2.799   1.955 -0.7073 -0.3438 -0.1262
12195TIP3    H158076   3.880   2.812   1.960 -0.9412  1.3644  0.2462
12195TIP3    H258077   3.753   2.871   1.901 -1.7313 -1.2758 -0.7927
12196TIP3   OH258078   6.777   5.388  12.499 -0.3002  0.5308 -0.4712
12196TIP3    H158079   6.796   5.481  12.506 -0.7301  0.6744 -1.2094
12196TIP3    H258080   6.863   5.346  12.503  0.0171  1.0499 -1.7039
12197TIP3   OH258081   3.899   3.612   4.887  0.7353  0.1039 -0.0485
12197TIP3    H158082   3.923   3.702   4.865 -0.0051  0.3287  0.0422
12197TIP3    H258083   3.953   3.558   4.829 -0.3048  0.6603 -1.5833
12198TIP3   OH258084   0.954   6.421  15.583  0.2638  0.2707 -0.3673
12198TIP3    H158085   0.965   6.404  15.490 -1.6255 -1.2884 -0.3476
12198TIP3    H258086   1.043   6.433  15.617  1.0300 -0.3304 -2.1400
12199TIP3   OH258087   0.965   5.392   3.535  0.0250 -0.1924 -0.2672
12199TIP3    H158088   1.020   5.469   3.548  0.0344 -0.4776  1.4233
12199TIP3    H258089   1.012   5.321   3.579 -1.0892 -0.6945  0.1373
12200TIP3   OH258090   3.655   4.688  11.394  0.2543 -0.1282  0.2193
12200TIP3    H158091   3.586   4.664  11.332 -1.4638  3.8364  0.4241
12200TIP3    H258092   3.644   4.626  11.467 -0.1398 -2.3940 -1.7058
12201TIP3   OH258093   2.688   2.194  15.065  0.2388 -0.2930 -0.0501
12201TIP3    H158094   2.776   2.163  15.087  0.2489 -1.0197 -1.0750
12201TIP3    H258095   2.648   2.121  15.018 -0.0793  0.8686 -1.6406
12202TIP3   OH258096   0.716   2.241   3.847 -0.3555  0.5596 -0.2350
12202TIP3    H158097   0.663   2.319   3.834 -1.2526  0.2444  1.4216
12202TIP3    H258098   0.721   2.231   3.942  1.2177 -0.4075 -0.4063
12203TIP3   OH258099   4.886   1.491  10.565 -0.0991  0.1853  0.4188
12203TIP3    H158100   4.831   1.492  10.486 -0.7723  0.9863  0.8967
12203TIP3    H258101   4.969   1.454  10.535 -1.2928 -2.2833 -0.0496
12204TIP3   OH258102   4.744   0.463  15.554  0.1190  0.1148 -0.2106
12204TIP3    H158103   4.839   0.472  15.552  0.2809 -1.2458  0.5835
12204TIP3    H258104   4.711   0.551  15.537  1.5439  1.2972  2.8341
12205TIP3   OH258105   4.574   1.219  14.475  0.2414  0.1485  0.0789
12205TIP3    H158106   4.562   1.304  14.518  1.3771 -0.4642  1.6766
12205TIP3    H258107   4.662   1.193  14.499  0.7916 -0.3900 -2.4282
12206TIP3   OH258108   1.583   5.277  15.440 -0.1624  0.4157 -0.0227
12206TIP3    H158109   1.647   5.207  15.455 -1.5074 -1.4328 -2.5375
12206TIP3    H258110   1.636   5.353  15.418  1.2315 -0.7765 -0.8909
12207TIP3   OH258111   1.677   3.580   5.303 -0.6319  0.8474  0.3957
12207TIP3    H158112   1.697   3.538   5.219  0.0723 -1.7832  1.7922
12207TIP3    H258113   1.596   3.538   5.331  0.6538 -0.4787  2.3281
12208TIP3   OH258114   6.599   3.449  17.250 -0.2970  0.7195 -0.3886
12208TIP3    H158115   6.603   3.492  17.165  0.4494  1.6028  0.0773
12208TIP3    H258116   6.578   3.358  17.231 -1.9783  1.2975 -1.4035
12209TIP3   OH258117   0.929   6.277   3.592 -0.1577  0.8717  0.3810
12209TIP3    H158118   0.957   6.208   3.652 -0.0788  0.3211 -0.2887
12209TIP3    H258119   0.833   6.269   3.589 -0.0497 -0.1509 -0.8137
12210TIP3   OH258120   4.939   1.057   1.802  0.0186  0.5578 -0.0546
12210TIP3    H158121   4.920   1.000   1.728 -1.1442  1.9348 -0.8168
12210TIP3    H258122   4.871   1.036   1.866 -0.5158  1.2024 -0.4057
12211TIP3   OH258123   5.708   1.752  13.767  0.3346  0.4843  0.1635
12211TIP3    H158124   5.670   1.834  13.799  0.1694  0.3369  0.3473
12211TIP3    H258125   5.766   1.724  13.838  0.1528  0.2822  0.2324
12212TIP3   OH258126   1.583   5.365   2.055  0.5741 -0.5562 -0.3759
12212TIP3    H158127   1.619   5.389   1.970  0.9992 -2.7335 -0.8399
12212TIP3    H258128   1.544   5.445   2.089  0.5536  0.3644 -2.5512
12213TIP3   OH258129   0.288   5.865   0.139 -0.5885 -0.2965  0.1410
12213TIP3    H158130   0.232   5.787   0.135  0.8213 -1.2657 -1.1681
12213TIP3    H258131   0.361   5.837   0.194 -0.2157  0.2077 -0.1066
12214TIP3   OH258132   4.844   5.628   4.888 -0.2914  0.3542 -0.1251
12214TIP3    H158133   4.917   5.591   4.837 -1.0403 -3.0811  1.1578
12214TIP3    H258134   4.805   5.693   4.830  1.0284 -0.9587 -2.5837
12215TIP3   OH258135   2.440   4.739   4.536  0.3131  0.2398 -0.1503
12215TIP3    H158136   2.433   4.834   4.529  0.2721  0.2319 -0.2168
12215TIP3    H258137   2.351   4.707   4.524  0.3271  0.1929 -0.1299
12216TIP3   OH258138   0.728   4.131  17.197 -0.1251  0.8396  0.3048
12216TIP3    H158139   0.733   4.047  17.245  1.4988  1.5767  1.4737
12216TIP3    H258140   0.727   4.105  17.105 -0.1263 -0.4942  0.6543
12217TIP3   OH258141   1.803   5.725  11.812  0.2234 -0.0409  0.7404
12217TIP3    H158142   1.897   5.711  11.820  0.0154 -2.3975 -0.5705
12217TIP3    H258143   1.763   5.659  11.868 -0.6612  0.1009  0.2897
12218TIP3   OH258144   1.319   3.886  13.074  0.0669  0.0949 -0.0255
12218TIP3    H158145   1.283   3.837  13.148 -1.5508 -0.1866 -0.9957
12218TIP3    H258146   1.405   3.846  13.059  0.2954 -0.0238  1.5220
12219TIP3   OH258147   0.388   0.580  11.198  0.7085 -0.1056 -0.3021
12219TIP3    H158148   0.464   0.635  11.218 -0.1491  0.7201  0.7319
12219TIP3    H258149   0.313   0.639  11.202  0.0070 -0.9158 -1.3246
12220TIP3   OH258150   3.774   2.922   0.728  0.2851 -0.5194  0.0649
12220TIP3    H158151   3.789   2.973   0.648 -0.1604 -0.3912  0.0634
12220TIP3    H258152   3.841   2.854   0.725  0.4555 -0.3415 -0.2741
12221TIP3   OH258153   4.343   4.288   4.280  0.5971  0.1808  0.4069
12221TIP3    H158154   4.277   4.313   4.215 -0.8268 -0.8955  1.4131
12221TIP3    H258155   4.317   4.334   4.360 -0.1841 -1.9052  1.3868
12222TIP3   OH258156   5.392   4.707   0.110  0.3752 -0.3762 -0.0597
12222TIP3    H158157   5.353   4.774   0.054  0.3767 -0.7067 -0.4552
12222TIP3    H258158   5.476   4.743   0.136  0.5429 -0.3826 -0.5817
12223TIP3   OH258159   5.441   3.703  12.914 -0.5041  0.1119 -0.5490
12223TIP3    H158160   5.382   3.713  12.989  1.3954  0.3723  0.9715
12223TIP3    H258161   5.438   3.610  12.893 -0.6827 -0.0487  0.1800
12224TIP3   OH258162   6.395   3.928   1.953 -0.1335 -0.7486 -0.0749
12224TIP3    H158163   6.322   3.967   2.001  0.3145 -0.0206  0.0229
12224TIP3    H258164   6.453   3.894   2.021 -0.4992 -1.5345 -0.1596
12225TIP3   OH258165   3.888   0.438   5.878 -0.6726 -0.6628  0.1630
12225TIP3    H158166   3.860   0.529   5.874 -1.8806 -1.0518 -0.5575
12225TIP3    H258167   3.853   0.399   5.798  0.9259 -1.4634 -0.1807
12226TIP3   OH258168   3.421   2.148  14.073 -0.0186  0.1531  0.1982
12226TIP3    H158169   3.351   2.095  14.034 -0.6663  0.9603  0.2401
12226TIP3    H258170   3.400   2.238  14.046  2.6127  0.0959 -2.2005
12227TIP3   OH258171   2.634   0.702  14.852  0.3424 -0.5489 -0.0579
12227TIP3    H158172   2.565   0.761  14.882 -1.4915 -1.5252 -2.2846
12227TIP3    H258173   2.623   0.698  14.757  1.9164 -2.6555 -0.1751
12228TIP3   OH258174   3.998   1.118   0.337  0.1000  0.2139 -0.0023
12228TIP3    H158175   3.951   1.036   0.353 -0.1417  0.3464 -0.0247
12228TIP3    H258176   4.016   1.117   0.243  0.6902 -0.1263  0.1142
12229TIP3   OH258177   0.899   4.790   1.802 -0.0813  0.4575  0.3567
12229TIP3    H158178   0.912   4.696   1.813  3.5051  0.7632 -0.8491
12229TIP3    H258179   0.965   4.830   1.859  2.1339  2.1754 -3.3025
12230TIP3   OH258180   4.199   3.249   2.308  0.4196  0.0470 -0.0927
12230TIP3    H158181   4.118   3.271   2.263  0.3414  3.7722  1.6799
12230TIP3    H258182   4.249   3.198   2.245 -1.8923  0.5781 -2.4126
12231TIP3   OH258183   3.981   6.070  12.973  0.3149 -0.3320 -0.3076
12231TIP3    H158184   3.961   6.154  13.013  1.2104 -0.8079  1.1851
12231TIP3    H258185   4.001   6.012  13.047  1.6996 -1.3118 -1.4202
12232TIP3   OH258186   3.531   3.449  14.116  0.3206  0.1230  0.1156
12232TIP3    H158187   3.499   3.443  14.206 -0.9428  1.5512 -0.2257
12232TIP3    H258188   3.512   3.364  14.078  0.9520 -0.5293  1.2154
12233TIP3   OH258189   5.445   4.760   5.532  0.1899 -0.2690  0.0471
12233TIP3    H158190   5.531   4.723   5.510  0.0756 -0.0663 -0.7587
12233TIP3    H258191   5.444   4.763   5.627  0.2982 -2.1340  0.1276
12234TIP3   OH258192   4.313   2.348  12.201 -0.0191 -0.0209  0.6914
12234TIP3    H158193   4.266   2.329  12.282 -0.0671 -0.1187  0.6420
12234TIP3    H258194   4.394   2.390  12.229 -0.0314 -0.0634  0.7912
12235TIP3   OH258195   1.634   3.961   3.363  0.4697 -0.8813  0.0754
12235TIP3    H158196   1.559   3.905   3.383 -0.7672  0.8281  0.3538
12235TIP3    H258197   1.595   4.039   3.323  1.9190  0.9547  2.1890
12236TIP3   OH258198   4.005   6.350  14.428 -0.0368  0.3456  0.4585
12236TIP3    H158199   3.950   6.382  14.356 -2.3258 -0.7866  1.6337
12236TIP3    H258200   4.083   6.405  14.425 -1.3172  2.1527 -1.1634
12237TIP3   OH258201   6.647   6.774   2.349  0.1319 -0.0249 -0.2536
12237TIP3    H158202   6.657   6.688   2.309 -1.8746  0.0844 -1.0322
12237TIP3    H258203   6.562   6.771   2.392  0.8781  0.9381  1.3587
12238TIP3   OH258204   0.614   0.909   2.305  0.3964  0.2654  0.2877
12238TIP3    H158205   0.653   0.978   2.251 -0.4023  0.4100 -0.1156
12238TIP3    H258206   0.520   0.917   2.290  0.1626  0.2380  1.6277
12239TIP3   OH258207   4.144   2.664   2.522  0.0774  0.2735 -0.2931
12239TIP3    H158208   4.075   2.655   2.457 -0.5005 -0.9154  0.4731
12239TIP3    H258209   4.103   2.639   2.605  0.6739  2.2120  0.6204
12240TIP3   OH258210   0.717   1.347  14.442  1.0316 -0.6864  0.0877
12240TIP3    H158211   0.649   1.323  14.504 -1.0226  0.0688 -1.8130
12240TIP3    H258212   0.690   1.432  14.408  2.5548 -0.6936 -1.2262
12241TIP3   OH258213   0.618   2.749  13.136  0.4825  0.2611 -0.3598
12241TIP3    H158214   0.555   2.679  13.152  0.8330 -0.0082 -0.1281
12241TIP3    H258215   0.572   2.829  13.161 -0.2828  0.2237 -1.6364
12242TIP3   OH258216   6.282   6.131   0.742  0.2015 -0.3828 -0.0165
12242TIP3    H158217   6.376   6.124   0.759  0.5248  0.4241 -1.3417
12242TIP3    H258218   6.246   6.048   0.772  1.2175 -0.4089  1.2191
12243TIP3   OH258219   4.255   6.685   1.273 -0.0222 -0.1143 -0.1970
12243TIP3    H158220   4.257   6.657   1.182  0.1054 -0.5807 -0.0489
12243TIP3    H258221   4.317   6.627   1.318 -2.3430 -1.9091  0.7663
12244TIP3   OH258222   6.144   6.588  15.859 -0.1745  0.0609 -0.2265
12244TIP3    H158223   6.206   6.557  15.926 -0.8314  2.5393  1.5902
12244TIP3    H258224   6.200   6.623  15.789  0.5082  1.1130  0.8326
12245TIP3   OH258225   3.135   6.733   2.227 -0.6052 -0.6709 -0.2369
12245TIP3    H158226   3.116   6.672   2.298  0.0988 -0.9525 -0.2796
12245TIP3    H258227   3.155   6.677   2.152  1.1813 -0.4226  0.0233
12246TIP3   OH258228   1.800   3.218   3.107  0.1800  0.5349 -0.3229
12246TIP3    H158229   1.738   3.230   3.178  1.2967  0.9995  0.5933
12246TIP3    H258230   1.819   3.307   3.077  0.0005  0.3625 -0.9487
12247TIP3   OH258231   0.150   3.692  13.037  0.2343 -0.8573  0.4906
12247TIP3    H158232   0.138   3.737  12.953 -0.5776  0.1636  1.1335
12247TIP3    H258233   0.061   3.674  13.066  0.4760  0.1873  1.8758
12248TIP3   OH258234   5.299   4.021  14.973 -0.0467  0.1137  0.4401
12248TIP3    H158235   5.259   4.103  15.002 -0.4485  0.1811 -0.2991
12248TIP3    H258236   5.380   4.047  14.929  0.5649  0.0109  1.4788
12249TIP3   OH258237   6.738   3.518  14.211  0.2360  0.3842  0.2247
12249TIP3    H158238   6.820   3.474  14.192  0.2975  0.4034  0.4481
12249TIP3    H258239   6.691   3.458  14.270  0.2178  0.5071  0.3359
12250TIP3   OH258240   5.176   3.595  12.450 -0.1086 -0.2773 -0.1424
12250TIP3    H158241   5.187   3.500  12.439 -0.2473 -0.2848 -0.2167
12250TIP3    H258242   5.261   3.625  12.481 -0.4036 -0.5853  0.9642
12251TIP3   OH258243   0.344   4.836  16.904 -0.4057 -0.2619 -0.1902
12251TIP3    H158244   0.398   4.758  16.905 -0.3376 -0.3829 -4.4401
12251TIP3    H258245   0.402   4.906  16.934  0.1829 -1.4263  1.4645
12252TIP3   OH258246   1.087   2.262   3.712 -0.3026  0.2097 -0.0593
12252TIP3    H158247   1.016   2.198   3.706  0.0030 -0.0849 -0.5682
12252TIP3    H258248   1.053   2.330   3.770 -1.2304  0.3696 -0.7886
12253TIP3   OH258249   0.579   0.927  14.726 -0.0761 -0.0843  0.4076
12253TIP3    H158250   0.489   0.955  14.744  0.2805  1.4606 -0.1366
12253TIP3    H258251   0.597   0.862  14.794 -2.0353 -1.3587 -0.2479
12254TIP3   OH258252   5.920   4.605   5.183 -0.0616  0.1740  0.4671
12254TIP3    H158253   5.939   4.530   5.240  0.3696 -0.4951 -0.5357
12254TIP3    H258254   5.987   4.670   5.206  0.3242 -0.2271  0.4821
12255TIP3   OH258255   5.632   2.781  11.025 -0.0130 -0.2399 -0.3943
12255TIP3    H158256   5.565   2.740  10.970  0.9867 -1.5009 -0.6859
12255TIP3    H258257   5.698   2.813  10.963 -0.4727  1.2633 -0.1271
12256TIP3   OH258258   0.514   2.141   4.466  0.3957  0.5141 -0.5103
12256TIP3    H158259   0.475   2.127   4.380 -1.4027  0.9732  0.1997
12256TIP3    H258260   0.572   2.066   4.478 -0.8485 -0.6010 -1.3049
12257TIP3   OH258261   2.590   5.995  11.468  0.6602 -0.0218 -0.2741
12257TIP3    H158262   2.551   5.952  11.392  1.6196  0.9114 -1.3068
12257TIP3    H258263   2.673   6.031  11.436  1.4900 -0.3430  1.4177
12258TIP3   OH258264   5.960   2.542   2.167 -0.0423 -0.1751  0.1886
12258TIP3    H158265   6.012   2.610   2.124  0.3624  1.1791  2.7105
12258TIP3    H258266   6.021   2.469   2.179  0.7134  0.5960  1.1806
12259TIP3   OH258267   6.797   6.679  14.470  0.0562 -0.3274  0.7815
12259TIP3    H158268   6.759   6.723  14.546  0.5133 -0.0934  0.8765
12259TIP3    H258269   6.776   6.735  14.396 -0.1350 -0.4050  0.7762
12260TIP3   OH258270   1.769   0.198   6.104 -0.3703  0.0612 -0.0417
12260TIP3    H158271   1.782   0.158   6.018 -1.8555 -2.0337  0.6513
12260TIP3    H258272   1.854   0.236   6.126  0.1385  0.2735 -2.2410
12261TIP3   OH258273   2.056   2.612   1.042  0.5772  0.2549 -0.7393
12261TIP3    H158274   2.137   2.633   0.995  0.4157 -0.2684 -1.2568
12261TIP3    H258275   2.084   2.597   1.132  1.4586 -2.5799 -1.4458
12262TIP3   OH258276   3.049   1.109  15.045  0.4694 -0.2139 -0.4877
12262TIP3    H158277   2.968   1.160  15.040  0.3632 -0.2441  0.8420
12262TIP3    H258278   3.027   1.032  15.097  1.6480  0.3846  0.9487
12263TIP3   OH258279   3.875   4.903  12.391 -0.3844  0.2152  0.3537
12263TIP3    H158280   3.782   4.920  12.374 -0.6319 -1.4261 -0.0552
12263TIP3    H258281   3.911   4.988  12.415 -1.5934  1.2450 -1.3329
12264TIP3   OH258282   2.081   4.970   0.049 -0.0501 -0.1614  0.5828
12264TIP3    H158283   2.013   4.988  -0.016  0.5703  1.7902  0.4261
12264TIP3    H258284   2.041   4.991   0.133 -0.1867 -0.6487  0.6379
12265TIP3   OH258285   6.653   2.786   2.852  0.8066 -0.5159 -0.1286
12265TIP3    H158286   6.651   2.731   2.931  0.1436  0.3336  0.4675
12265TIP3    H258287   6.693   2.731   2.785  1.7257 -1.1210  0.9040
12266TIP3   OH258288   6.648   1.835   0.941 -0.0122  0.4916 -0.0233
12266TIP3    H158289   6.682   1.919   0.911 -0.3379  0.0720 -1.6090
12266TIP3    H258290   6.566   1.857   0.986  0.6965  1.1674  0.9709
12267TIP3   OH258291   5.525   6.041  14.421 -0.5186  0.1071  0.9080
12267TIP3    H158292   5.573   5.959  14.433  0.8601  0.8657  0.7496
12267TIP3    H258293   5.594   6.108  14.419 -1.4083  0.9628 -1.9247
12268TIP3   OH258294   4.439   3.275   1.012 -0.5333 -0.3324 -0.0237
12268TIP3    H158295   4.518   3.323   0.989 -1.6751  1.8838  0.5276
12268TIP3    H258296   4.368   3.338   0.999 -1.8079 -0.8688  3.6277
12269TIP3   OH258297   1.594   0.566  13.876  0.1663 -0.2590  0.1770
12269TIP3    H158298   1.631   0.612  13.800  2.0867 -0.9319  0.6855
12269TIP3    H258299   1.546   0.492  13.838  1.5368 -0.8843 -0.3830
12270TIP3   OH258300   1.136   1.358  12.108  0.0084  0.1334 -0.5007
12270TIP3    H158301   1.211   1.300  12.113  2.1427  2.7277 -1.4137
12270TIP3    H258302   1.103   1.362  12.198  1.4671 -0.3728  0.0725
12271TIP3   OH258303   3.144   0.243   6.040 -0.4434 -0.0631  0.1253
12271TIP3    H158304   3.226   0.194   6.051 -0.9950 -0.8838  0.6777
12271TIP3    H258305   3.133   0.291   6.122 -1.1459 -0.9435  0.5622
12272TIP3   OH258306   4.080   3.982   4.070  0.2677  0.5799  0.3838
12272TIP3    H158307   4.005   3.994   4.128 -1.6398 -1.7322 -1.5046
12272TIP3    H258308   4.064   4.041   3.997 -0.2433 -0.5934 -0.4789
12273TIP3   OH258309   0.999   6.249   1.687  0.5113  0.2847  0.2749
12273TIP3    H158310   1.016   6.342   1.705  1.3565 -0.2193  2.1450
12273TIP3    H258311   0.960   6.249   1.599 -2.4967  2.6878  1.5397
12274TIP3   OH258312   1.450   6.056   0.995  0.1215  0.3566  0.2073
12274TIP3    H158313   1.399   6.129   0.961 -0.0031  0.8470  1.4303
12274TIP3    H258314   1.507   6.031   0.923  0.5331  2.0040 -0.0536
12275TIP3   OH258315   5.937   2.970  12.666  0.0035 -0.3303 -0.1952
12275TIP3    H158316   6.030   2.970  12.642  0.2937 -1.0539  0.9352
12275TIP3    H258317   5.936   2.989  12.759 -1.0429  0.5913 -0.3820
12276TIP3   OH258318   1.485   3.805   2.785 -0.4970  0.0049  0.2119
12276TIP3    H158319   1.555   3.762   2.736  0.9018  0.9933  1.3336
12276TIP3    H258320   1.526   3.833   2.867 -2.4900 -0.4583  1.3976
12277TIP3   OH258321   6.141   5.762  15.029  0.2461  0.4149 -0.8334
12277TIP3    H158322   6.155   5.676  14.987 -0.5351 -0.3772  0.5122
12277TIP3    H258323   6.075   5.804  14.975 -1.9252 -1.2413  0.4658
12278TIP3   OH258324   5.247   0.791  14.593  0.1642  0.3324  0.2176
12278TIP3    H158325   5.230   0.842  14.515  0.2851 -0.8481 -0.6006
12278TIP3    H258326   5.161   0.770  14.628  0.1095  0.8307  0.3887
12279TIP3   OH258327   3.099   1.277  16.220  0.1091 -0.3627 -0.1261
12279TIP3    H158328   3.128   1.236  16.301 -2.6597  1.0907  1.6603
12279TIP3    H258329   3.155   1.354  16.211 -1.2406  0.8802  1.7893
12280TIP3   OH258330   1.997   3.421   1.535 -0.1689  0.4270  1.1026
12280TIP3    H158331   1.995   3.434   1.441 -0.8700  0.6118  1.1372
12280TIP3    H258332   1.978   3.327   1.547  1.9024 -0.0252  0.9814
12281TIP3   OH258333   2.001   4.821   2.949 -0.9185  0.3708 -0.3596
12281TIP3    H158334   1.985   4.743   3.002 -0.7323  0.0196 -0.8152
12281TIP3    H258335   1.955   4.803   2.867 -1.5780  1.1005 -0.1549
12282TIP3   OH258336   5.124   4.871   5.833  0.0915 -0.2624  0.4134
12282TIP3    H158337   5.051   4.931   5.818  0.9667  0.3712 -1.4992
12282TIP3    H258338   5.095   4.788   5.795  0.1790 -0.1411  0.0812
12283TIP3   OH258339   3.231   2.610   4.640  0.5168  0.1990  0.1666
12283TIP3    H158340   3.142   2.621   4.673  0.4512 -1.0355  0.4136
12283TIP3    H258341   3.223   2.616   4.545  0.1317 -0.1581  0.1771
12284TIP3   OH258342   5.614   0.209   4.289  0.0743  0.0151 -0.1422
12284TIP3    H158343   5.611   0.178   4.379  1.3280  2.1294  0.6670
12284TIP3    H258344   5.639   0.131   4.238 -0.1061 -1.0728  1.3873
12285TIP3   OH258345   5.683   5.533   4.064 -0.5035  0.7574  0.1688
12285TIP3    H158346   5.644   5.503   3.982 -0.8319 -0.8630  0.9031
12285TIP3    H258347   5.616   5.590   4.103 -1.7702 -1.2151  0.9487
12286TIP3   OH258348   0.607   4.737  13.853  0.1621  0.1728 -0.4228
12286TIP3    H158349   0.653   4.703  13.929 -1.3634 -0.2820  0.3118
12286TIP3    H258350   0.621   4.671  13.785  1.5789  0.6126 -0.5647
12287TIP3   OH258351   1.832   6.164   4.093 -0.1288 -0.0568  0.5913
12287TIP3    H158352   1.906   6.104   4.088 -0.0748  0.1062 -0.7151
12287TIP3    H258353   1.778   6.131   4.165  0.1276 -1.4020  0.1713
12288TIP3   OH258354   1.041   0.059  13.663 -0.3006 -0.1748  0.1007
12288TIP3    H158355   1.068  -0.008  13.726  0.5701  0.1606  0.0820
12288TIP3    H258356   0.984   0.117  13.714 -0.5231 -0.5551  0.2877
12289TIP3   OH258357   1.488   0.211  11.952  0.1834 -0.0557 -0.6760
12289TIP3    H158358   1.520   0.300  11.961 -1.1494  0.3317  0.3024
12289TIP3    H258359   1.393   0.219  11.957  0.0747 -1.5852 -0.0635
12290TIP3   OH258360   1.548   2.772  15.382  0.2973 -0.0610  0.1573
12290TIP3    H158361   1.460   2.799  15.354  0.7740 -0.1396 -1.4463
12290TIP3    H258362   1.574   2.838  15.445 -0.8775  0.0191  0.5786
12291TIP3   OH258363   5.833   4.841   5.901  0.2088 -0.7197  0.4720
12291TIP3    H158364   5.923   4.843   5.871  0.3992  1.2319  1.1416
12291TIP3    H258365   5.837   4.867   5.993 -1.0582 -0.3610  0.4395
12292TIP3   OH258366   6.322   0.073   0.125 -0.8473  0.9330 -0.0878
12292TIP3    H158367   6.360   0.136   0.187 -1.9453 -0.0996  1.6640
12292TIP3    H258368   6.392   0.059   0.061  0.4032  1.8644  1.0104
12293TIP3   OH258369   1.467   2.445  15.892 -0.0293 -0.2986  0.6844
12293TIP3    H158370   1.453   2.387  15.966 -1.5578  1.7021  2.0294
12293TIP3    H258371   1.554   2.482  15.907  0.9503 -2.2093 -0.1883
12294TIP3   OH258372   4.952   2.947  13.077 -0.4561  0.0885  0.2461
12294TIP3    H158373   5.043   2.935  13.107  0.0383  0.7793 -0.9543
12294TIP3    H258374   4.960   2.988  12.991 -1.9291  0.4736  0.2796
12295TIP3   OH258375   5.126   6.117  13.278 -0.0677 -0.2881 -0.0353
12295TIP3    H158376   5.184   6.166  13.220 -0.7071  0.2167 -0.2504
12295TIP3    H258377   5.050   6.174  13.291 -1.4428 -1.7790 -1.3929
12296TIP3   OH258378   1.269   4.114  12.740 -0.2165  0.6802  0.1547
12296TIP3    H158379   1.191   4.069  12.709  0.4224 -0.2376 -0.1244
12296TIP3    H258380   1.252   4.129  12.833 -0.8709  0.8108  0.0210
12297TIP3   OH258381   5.161   1.425   5.325  0.1501 -0.7921 -0.4528
12297TIP3    H158382   5.122   1.413   5.239 -1.5736  0.8668  0.0491
12297TIP3    H258383   5.137   1.515   5.350  1.1615 -1.0202  1.4779
12298TIP3   OH258384   4.719   2.207   5.537  0.1075 -0.0867  0.3584
12298TIP3    H158385   4.685   2.128   5.579  0.5516 -0.7779 -0.5521
12298TIP3    H258386   4.796   2.231   5.589 -0.2246 -0.0609  0.8357
12299TIP3   OH258387   4.294   6.458  10.660 -0.0521  0.5098 -0.4247
12299TIP3    H158388   4.296   6.548  10.693 -0.0809  0.0334  0.8774
12299TIP3    H258389   4.243   6.409  10.725  2.9987 -1.2058  0.7637
12300TIP3   OH258390   2.166   0.592   3.249 -0.1218 -0.1574  0.6915
12300TIP3    H158391   2.229   0.575   3.318 -0.2313 -0.2795  0.7612
12300TIP3    H258392   2.080   0.578   3.290 -0.2218  0.8846  0.8418
12301TIP3   OH258393   0.247   5.463  14.622 -0.4161  0.3586 -0.1344
12301TIP3    H158394   0.189   5.527  14.663  0.0123  0.4291  0.3744
12301TIP3    H258395   0.190   5.391  14.596 -0.8092  0.6663 -0.1255
12302TIP3   OH258396   6.090   6.042  13.109 -0.0326  0.0913  0.1961
12302TIP3    H158397   6.146   6.100  13.160 -2.1236  2.7204 -0.4066
12302TIP3    H258398   6.057   6.096  13.037 -0.2690 -2.4653 -1.6972
12303TIP3   OH258399   3.074   4.687  14.552  0.6319  0.2801 -0.0723
12303TIP3    H158400   3.154   4.635  14.560  1.7139  2.1190  1.5293
12303TIP3    H258401   3.103   4.771  14.516 -0.9455  0.1512 -1.7371
12304TIP3   OH258402   4.924   4.117   3.466 -0.5778  0.4818 -0.3391
12304TIP3    H158403   4.941   4.142   3.375  0.1037  0.4995 -0.2130
12304TIP3    H258404   4.903   4.199   3.510 -1.0048  0.4591 -0.5054
12305TIP3   OH258405   1.716   5.979   2.583  0.1479  0.0123  0.3881
12305TIP3    H158406   1.812   5.971   2.576  0.0572 -1.8844  1.1314
12305TIP3    H258407   1.697   5.959   2.675 -0.9778  0.2450  0.2096
12306TIP3   OH258408   0.687   5.491   5.390 -0.1972 -0.1082  0.2747
12306TIP3    H158409   0.704   5.584   5.376 -2.0261 -0.1977 -3.1819
12306TIP3    H258410   0.765   5.447   5.357 -0.5172  0.1157 -0.8063
12307TIP3   OH258411   4.377   4.073  11.367 -0.7422 -0.1891  0.1021
12307TIP3    H158412   4.350   4.020  11.292 -0.4592  1.5671 -1.2509
12307TIP3    H258413   4.344   4.025  11.443  0.6336 -3.0161 -1.0167
12308TIP3   OH258414   3.596   5.771   6.328  0.2753 -0.3691  0.9475
12308TIP3    H158415   3.594   5.843   6.391  0.1383 -0.6028  1.2115
12308TIP3    H258416   3.509   5.773   6.287  0.1685 -0.5589  1.1578
12309TIP3   OH258417   1.816   3.237  17.157  0.3782  0.2173  0.3727
12309TIP3    H158418   1.896   3.249  17.207  0.0480 -0.8618  1.1732
12309TIP3    H258419   1.802   3.142  17.155 -0.7539  0.3808  0.0611
12310TIP3   OH258420   0.651   0.479  11.644 -0.3809  0.1194  0.4241
12310TIP3    H158421   0.706   0.521  11.711 -1.8558  1.1427  1.0299
12310TIP3    H258422   0.587   0.428  11.694 -2.2588  1.8398 -0.1009
12311TIP3   OH258423   0.160   3.531   4.471  0.2556 -0.3717  0.9682
12311TIP3    H158424   0.194   3.524   4.561 -3.0030  1.1144  2.3916
12311TIP3    H258425   0.108   3.612   4.471  0.5851 -0.0888 -2.4242
12312TIP3   OH258426   0.218   2.340  13.542 -0.0261  0.3204 -0.7721
12312TIP3    H158427   0.136   2.320  13.497 -0.5276  1.7236 -0.5005
12312TIP3    H258428   0.269   2.390  13.479  0.1597  0.4333 -0.5341
12313TIP3   OH258429   3.528   5.698  15.744  0.0640  0.0000 -0.3138
12313TIP3    H158430   3.592   5.628  15.733  0.0957  0.2277 -1.6634
12313TIP3    H258431   3.520   5.709  15.839  0.2865 -1.6104 -0.1021
12314TIP3   OH258432   0.306   4.054  11.730 -0.1289 -0.5964  0.0555
12314TIP3    H158433   0.252   4.001  11.790  0.6221 -0.2812  1.0210
12314TIP3    H258434   0.242   4.107  11.682 -0.7420 -0.8254  0.6012
12315TIP3   OH258435   5.281   6.457  16.409  0.2369 -0.3888 -0.1530
12315TIP3    H158436   5.242   6.544  16.406  0.8229 -0.1161  0.0890
12315TIP3    H258437   5.373   6.472  16.428 -0.1073 -1.1558  2.4261
12316TIP3   OH258438   5.137   4.565   6.413  0.5246  0.4844 -0.2880
12316TIP3    H158439   5.213   4.607   6.453  1.8768 -0.2811 -1.9899
12316TIP3    H258440   5.106   4.630   6.349 -1.9136  1.9055  2.1877
12317TIP3   OH258441   4.535   2.548  12.003  0.1774  0.4087  0.0720
12317TIP3    H158442   4.571   2.461  12.018 -0.7270 -0.2627 -1.6036
12317TIP3    H258443   4.568   2.600  12.077  0.6736 -1.3440  1.1145
12318TIP3   OH258444   1.277   4.953   4.144  0.2343 -0.4275 -0.4791
12318TIP3    H158445   1.185   4.927   4.136  0.1645 -0.2380 -0.2898
12318TIP3    H258446   1.282   5.000   4.227  0.6293 -0.9676 -0.1987
12319TIP3   OH258447   0.412   4.377   0.736 -0.2899 -0.2841 -0.4885
12319TIP3    H158448   0.375   4.413   0.817 -0.3719 -0.9707 -0.2155
12319TIP3    H258449   0.474   4.309   0.766  0.3698  0.0993 -0.9727
12320TIP3   OH258450   0.287   5.620   0.436 -0.3851 -0.4498  0.3387
12320TIP3    H158451   0.223   5.674   0.483 -1.1650  1.9761 -3.3268
12320TIP3    H258452   0.372   5.657   0.460 -0.7017  0.0782  0.6526
12321TIP3   OH258453   0.001   4.944  11.748 -0.7802  0.4164  0.2739
12321TIP3    H158454  -0.012   4.849  11.752  2.2945 -0.0334  1.3323
12321TIP3    H258455   0.096   4.954  11.737 -1.1868  3.3581 -0.8671
12322TIP3   OH258456   0.851   5.672   0.736  0.3403 -0.0146  0.4183
12322TIP3    H158457   0.861   5.673   0.641  1.8502 -0.1022  0.5784
12322TIP3    H258458   0.810   5.756   0.757  0.2702  0.1210 -0.2754
12323TIP3   OH258459   5.785   2.753  13.001 -0.4491  0.1392 -0.1947
12323TIP3    H158460   5.694   2.746  12.972 -0.7307 -1.1027  0.9085
12323TIP3    H258461   5.835   2.712  12.930 -0.7117  1.0231 -0.9075
12324TIP3   OH258462   0.729   3.335   5.731 -0.1055  0.4303 -0.3318
12324TIP3    H158463   0.739   3.244   5.756 -1.9958  0.0685 -0.7755
12324TIP3    H258464   0.757   3.339   5.640 -2.1613 -0.1939 -1.0168
12325TIP3   OH258465   1.099   1.235   6.295  0.8149 -0.3672 -0.7020
12325TIP3    H158466   1.062   1.315   6.331  0.8271 -1.1728  1.1440
12325TIP3    H258467   1.060   1.165   6.346  2.7493 -1.3966 -0.5680
12326TIP3   OH258468   1.190   3.753   4.382 -0.1828  0.7652  0.5368
12326TIP3    H158469   1.214   3.680   4.438  0.5971 -0.3809 -1.2499
12326TIP3    H258470   1.111   3.790   4.423 -1.7260 -2.2773  0.4079
12327TIP3   OH258471   0.352   5.069   6.607  1.0144 -0.2321 -0.2795
12327TIP3    H158472   0.388   5.144   6.559  0.8173  0.5929  0.8515
12327TIP3    H258473   0.425   5.008   6.614  1.3481  0.1183 -0.6607
12328TIP3   OH258474   4.780   4.934  16.208 -0.2410 -0.5648  0.2029
12328TIP3    H158475   4.706   4.897  16.256 -0.8869  0.9200  0.3982
12328TIP3    H258476   4.778   4.891  16.123 -0.9851 -0.9629  0.4157
12329TIP3   OH258477   3.188   3.737  12.000  0.2433  0.1991  0.3186
12329TIP3    H158478   3.124   3.707  11.935  0.4755  2.2386 -0.9078
12329TIP3    H258479   3.263   3.680  11.986 -1.0765 -1.8779  1.4138
12330TIP3   OH258480   2.023   1.645  11.978  0.1689  0.1966  0.1256
12330TIP3    H158481   2.024   1.724  11.925  0.3347  1.5406  2.0695
12330TIP3    H258482   1.933   1.637  12.010  0.0200 -0.7142 -0.4743
12331TIP3   OH258483   4.818   0.492  13.711  0.1964 -0.2120 -0.2600
12331TIP3    H158484   4.783   0.568  13.663  0.4161  2.0023  2.9008
12331TIP3    H258485   4.744   0.432  13.719 -0.9791  1.2655  0.2297
12332TIP3   OH258486   4.264   6.136   4.972 -0.5364 -0.2174 -0.2619
12332TIP3    H158487   4.234   6.133   5.063  1.2473 -0.3651  0.3347
12332TIP3    H258488   4.316   6.056   4.961 -0.7285 -0.1964 -1.4172
12333TIP3   OH258489   5.179   6.762   4.185  0.1679 -0.0449  0.2304
12333TIP3    H158490   5.110   6.712   4.229 -1.8915  1.6139 -1.0392
12333TIP3    H258491   5.132   6.827   4.133  2.7157  1.4040 -0.3345
12334TIP3   OH258492   5.370   3.460   2.597 -0.1011  0.0539  0.3368
12334TIP3    H158493   5.297   3.496   2.548  0.4962  0.3057 -0.3782
12334TIP3    H258494   5.338   3.377   2.632 -0.1522 -0.7050 -1.4761
12335TIP3   OH258495   6.578   6.303   5.242  0.4617  0.1374 -0.8298
12335TIP3    H158496   6.589   6.224   5.295  0.5104  0.7895  0.1416
12335TIP3    H258497   6.595   6.376   5.302  0.7028  0.8880 -1.7832
12336TIP3   OH258498   3.201   5.363   4.918 -0.4363 -0.2617 -0.6667
12336TIP3    H158499   3.183   5.376   4.826 -0.7291 -0.1161 -0.5862
12336TIP3    H258500   3.287   5.320   4.920 -0.4289 -0.2579 -1.0033
12337TIP3   OH258501   3.862   1.614  10.710  0.6355 -0.1755 -0.0220
12337TIP3    H158502   3.935   1.557  10.731  0.0691  0.1489  2.9530
12337TIP3    H258503   3.804   1.559  10.657  0.8761 -1.8672  1.4300
12338TIP3   OH258504   5.544   5.919   4.458  0.9925 -0.2292 -0.0947
12338TIP3    H158505   5.607   5.971   4.508 -1.3317 -0.1957  2.9787
12338TIP3    H258506   5.472   5.979   4.440 -0.7494 -1.7105  1.6021
12339TIP3   OH258507   1.862   0.198   2.919  0.1661  0.3115  0.1702
12339TIP3    H158508   1.771   0.196   2.950 -0.5271 -0.1605 -1.8171
12339TIP3    H258509   1.913   0.168   2.994 -1.4790 -1.0224  0.8033
12340TIP3   OH258510   5.093   4.328   2.756  0.0027  0.4923 -0.1727
12340TIP3    H158511   5.104   4.410   2.804  0.6654 -0.6090  1.5829
12340TIP3    H258512   5.180   4.308   2.722 -0.5986  1.6523 -2.5508
12341TIP3   OH258513   4.793   3.535   0.573  0.5864  0.0917  0.2647
12341TIP3    H158514   4.867   3.480   0.599 -0.8722 -1.8999  0.2782
12341TIP3    H258515   4.723   3.473   0.554 -0.8289  1.9217 -0.5734
12342TIP3   OH258516   3.512   6.340   0.992 -0.4196  0.4615 -0.2817
12342TIP3    H158517   3.496   6.410   1.055 -2.3267  0.5222 -0.8024
12342TIP3    H258518   3.518   6.384   0.908 -1.6500  0.0138 -0.6130
12343TIP3   OH258519   3.077   2.123   1.949  0.0313 -0.1715 -0.3637
12343TIP3    H158520   3.028   2.145   1.870 -0.5689 -0.2147 -0.0059
12343TIP3    H258521   3.163   2.097   1.917 -0.3324 -0.5664 -1.0289
12344TIP3   OH258522   2.938   2.407  13.635 -0.0292 -0.1883  0.5734
12344TIP3    H158523   2.891   2.357  13.568 -2.0002 -0.0551  1.8026
12344TIP3    H258524   3.026   2.370  13.636 -0.0067 -0.2664 -1.9846
12345TIP3   OH258525   2.464   1.983  14.723  0.0902  1.1738 -0.4392
12345TIP3    H158526   2.480   2.023  14.809  0.5685 -0.6369  0.3480
12345TIP3    H258527   2.551   1.976  14.684  0.0731  0.4769 -0.3615
12346TIP3   OH258528   4.712   6.313   4.675  0.7987 -0.2302 -0.3413
12346TIP3    H158529   4.664   6.310   4.592  0.5274 -0.9898 -0.1522
12346TIP3    H258530   4.689   6.398   4.713 -1.4888 -1.1754  0.4211
12347TIP3   OH258531   1.467   4.811  13.310 -0.6578  0.1225  0.8097
12347TIP3    H158532   1.425   4.728  13.287  1.6489 -0.6461 -0.8171
12347TIP3    H258533   1.406   4.878  13.280 -0.7755 -0.9678 -1.4937
12348TIP3   OH258534   3.458   4.978   0.906 -0.3473 -0.1208 -0.2495
12348TIP3    H158535   3.402   4.912   0.947 -0.7338 -0.1592 -0.8306
12348TIP3    H258536   3.422   5.061   0.935 -1.8110 -0.1042 -2.0277
12349TIP3   OH258537   3.643   4.013  13.521  0.2968 -0.3190  0.7564
12349TIP3    H158538   3.686   3.927  13.518  0.5804 -0.1422 -0.5568
12349TIP3    H258539   3.686   4.059  13.593  0.8193 -0.9296  0.8393
12350TIP3   OH258540   6.407   0.259   4.275  0.0140 -0.1726 -0.5045
12350TIP3    H158541   6.321   0.289   4.303  0.2432  0.2370 -0.2393
12350TIP3    H258542   6.464   0.274   4.350 -0.0307 -2.0211 -0.0911
12351TIP3   OH258543   1.625   4.420  11.711 -0.2499 -0.5130 -0.0224
12351TIP3    H158544   1.673   4.338  11.702 -0.5760 -0.5136 -2.0792
12351TIP3    H258545   1.534   4.396  11.693 -0.0762  0.6055 -2.7006
12352TIP3   OH258546   4.912   0.155  14.959 -0.2802 -0.1769  0.0323
12352TIP3    H158547   4.963   0.156  15.040 -2.1079 -0.9603  1.2431
12352TIP3    H258548   4.943   0.078  14.912 -0.3894 -0.7101  0.8085
12353TIP3   OH258549   1.436   0.893   4.066 -0.3117 -0.4296  0.3796
12353TIP3    H158550   1.430   0.797   4.062 -1.6815 -0.3914  1.0482
12353TIP3    H258551   1.363   0.918   4.122 -0.9436  1.1318 -1.1339
12354TIP3   OH258552   5.161   4.548   4.589 -0.1155  0.4086 -0.0923
12354TIP3    H158553   5.153   4.635   4.549  2.0932  0.2307 -0.9909
12354TIP3    H258554   5.186   4.491   4.516 -0.2868 -0.7442  0.7452
12355TIP3   OH258555   4.523   6.516  14.122  0.2977  0.7250  0.1779
12355TIP3    H158556   4.430   6.541  14.128  0.1369  0.2136 -0.1801
12355TIP3    H258557   4.523   6.437  14.068  1.0725  1.4600 -0.9159
12356TIP3   OH258558   0.542   6.470  17.124  0.1342  0.1616  0.5386
12356TIP3    H158559   0.636   6.470  17.145 -0.1895 -0.9028  2.0643
12356TIP3    H258560   0.502   6.418  17.194 -1.2953 -1.5604 -1.5146
12357TIP3   OH258561   4.150   0.653  15.410  0.1586  0.3113  0.2123
12357TIP3    H158562   4.172   0.676  15.500  0.2380  0.0162  0.2697
12357TIP3    H258563   4.061   0.619  15.415  0.3874 -0.2853  0.2769
12358TIP3   OH258564   3.386   6.527  15.591  0.3550 -0.3562 -0.4812
12358TIP3    H158565   3.455   6.577  15.634  0.5648 -0.8708 -0.2217
12358TIP3    H258566   3.310   6.586  15.592  0.8672  0.3279 -1.0518
12359TIP3   OH258567   3.585   2.799  16.539  0.1335  0.4008 -0.0779
12359TIP3    H158568   3.627   2.731  16.487 -1.4086 -0.4929 -0.1771
12359TIP3    H258569   3.642   2.875  16.529  0.7790 -0.2635 -1.6434
12360TIP3   OH258570   4.578   6.453  16.363  0.3939  0.3856 -0.0123
12360TIP3    H158571   4.605   6.531  16.411  0.1402  0.4230  0.0703
12360TIP3    H258572   4.543   6.394  16.430 -0.0794  0.4902 -0.1603
12361TIP3   OH258573   5.678   1.930   5.145  0.2310 -0.2337 -0.3986
12361TIP3    H158574   5.744   1.867   5.117  2.3141 -0.1992  4.0156
12361TIP3    H258575   5.598   1.879   5.155  1.6495 -2.0342  2.1780
12362TIP3   OH258576   6.281   1.912  16.021  0.1986  0.0093 -0.5279
12362TIP3    H158577   6.349   1.942  15.960  0.9042  0.2132  0.3460
12362TIP3    H258578   6.321   1.838  16.067 -0.0841  0.2798  0.1602
12363TIP3   OH258579   2.142   1.808  14.067 -0.0566  0.2515 -0.4644
12363TIP3    H158580   2.221   1.757  14.051 -0.2593 -0.2760  0.2172
12363TIP3    H258581   2.159   1.853  14.150 -0.4434  0.1957 -0.3549
12364TIP3   OH258582   0.658   4.906   0.287  0.0205  0.7585 -0.4628
12364TIP3    H158583   0.567   4.910   0.316 -0.8063 -0.8680 -2.6402
12364TIP3    H258584   0.655   4.933   0.195  1.7040  0.5493 -0.5949
12365TIP3   OH258585   3.279   1.742  16.264  0.2065  0.0323 -0.3517
12365TIP3    H158586   3.219   1.800  16.217 -0.3396 -1.2779 -1.3323
12365TIP3    H258587   3.234   1.723  16.347 -0.8929 -1.1296 -1.1835
12366TIP3   OH258588   3.196   3.660  16.953  0.2949  0.1636 -0.3636
12366TIP3    H158589   3.216   3.753  16.951 -1.3706  0.5219 -1.8514
12366TIP3    H258590   3.259   3.623  17.015  0.4996  2.3762  0.7998
12367TIP3   OH258591   0.471   1.499   5.143 -0.0321 -0.0361 -0.5224
12367TIP3    H158592   0.425   1.497   5.059 -2.0245 -0.4952  0.5411
12367TIP3    H258593   0.516   1.584   5.143 -0.4841  0.2231 -1.8101
12368TIP3   OH258594   0.618   1.657  16.498 -0.2319  0.1825  0.4730
12368TIP3    H158595   0.702   1.643  16.541  0.5524  2.6473 -0.1567
12368TIP3    H258596   0.556   1.670  16.570  0.4145  0.8184  0.9232
12369TIP3   OH258597   0.672   6.053  15.267  0.8998 -0.1300 -0.1695
12369TIP3    H158598   0.688   6.106  15.189  1.7684  1.3282  0.9780
12369TIP3    H258599   0.577   6.056  15.280  0.8164  0.0972 -0.8326
12370TIP3   OH258600   2.377   6.486  13.824 -0.2682 -0.3585  0.2155
12370TIP3    H158601   2.360   6.521  13.736 -0.8446 -0.9973  0.0650
12370TIP3    H258602   2.421   6.557  13.870  0.3272 -0.1283 -0.6925
12371TIP3   OH258603   2.709   6.451  12.795  0.0906  0.6772 -0.0965
12371TIP3    H158604   2.630   6.405  12.766  1.1268  0.2896 -2.3994
12371TIP3    H258605   2.741   6.400  12.869 -1.1068  0.1049  0.0362
12372TIP3   OH258606   4.023   4.525   3.927 -0.1659 -0.0932  0.1389
12372TIP3    H158607   3.940   4.572   3.926 -0.9406 -1.4419 -0.9540
12372TIP3    H258608   4.082   4.578   3.874 -0.1462  1.1615  1.3932
12373TIP3   OH258609   1.739   6.664   5.316  0.1331  0.1133 -0.4695
12373TIP3    H158610   1.812   6.721   5.294  1.9192 -1.7678  0.4426
12373TIP3    H258611   1.694   6.649   5.232 -0.4466  2.8596 -0.7160
12374TIP3   OH258612   3.587   1.315   2.767 -0.5554  0.0085 -0.8718
12374TIP3    H158613   3.587   1.225   2.799  1.0870  0.0683 -0.6649
12374TIP3    H258614   3.628   1.309   2.680  0.9848  0.7493 -0.2179
12375TIP3   OH258615   4.395   5.841   4.145 -0.4163 -0.4312 -0.4615
12375TIP3    H158616   4.463   5.853   4.079  0.4146  0.8822  0.5880
12375TIP3    H258617   4.443   5.833   4.228 -1.4287 -2.2604 -0.0311
12376TIP3   OH258618   3.303   0.822   0.262 -0.0651  0.5792 -0.1937
12376TIP3    H158619   3.375   0.761   0.248  0.5748  1.0313  1.0779
12376TIP3    H258620   3.226   0.766   0.270 -0.0322  0.1416 -2.4867
12377TIP3   OH258621   2.212   5.677   2.401  0.2554 -0.3126 -0.0817
12377TIP3    H158622   2.276   5.614   2.369  0.5588  0.4914 -1.0661
12377TIP3    H258623   2.265   5.746   2.442 -0.0896 -0.8985  1.4090
12378TIP3   OH258624   5.048   2.448  16.745  0.3573  0.3090 -0.3355
12378TIP3    H158625   5.075   2.535  16.775 -0.9532  1.0089 -1.1189
12378TIP3    H258626   5.028   2.400  16.825 -0.8452  1.3921  0.0399
12379TIP3   OH258627   0.323   5.633  15.733 -0.5244  0.5581  0.1023
12379TIP3    H158628   0.263   5.636  15.658 -1.6840  2.0350  1.0799
12379TIP3    H258629   0.388   5.567  15.708 -2.1108 -0.5337 -1.2938
12380TIP3   OH258630   1.692   0.129  13.984 -0.3259  0.1449  0.7499
12380TIP3    H158631   1.716   0.042  14.016 -2.4568 -0.3749  1.0419
12380TIP3    H258632   1.760   0.151  13.921 -1.0346 -2.8179 -1.1767
12381TIP3   OH258633   2.201   4.932   1.254 -0.3190 -0.6558  0.3315
12381TIP3    H158634   2.171   4.876   1.326 -1.5998  0.6477  0.8309
12381TIP3    H258635   2.259   4.875   1.203  0.6653 -1.5971  2.4019
12382TIP3   OH258636   0.890   5.662  15.117 -0.4151  0.1215  0.0619
12382TIP3    H158637   0.849   5.730  15.170  0.1946  1.6993 -1.4567
12382TIP3    H258638   0.963   5.630  15.172  2.0357  3.7782 -0.8979
12383TIP3   OH258639   6.358   6.651   0.267 -0.4479  0.3086 -0.4389
12383TIP3    H158640   6.330   6.738   0.240 -0.2563  0.1735 -1.0725
12383TIP3    H258641   6.412   6.666   0.345 -1.7132  0.6250  0.3944
12384TIP3   OH258642   4.419   6.753  16.289 -0.4199  0.2570  0.4527
12384TIP3    H158643   4.356   6.769  16.360 -1.0102  1.1954 -0.2703
12384TIP3    H258644   4.425   6.837  16.243 -1.6688 -0.8996 -1.9199
12385TIP3   OH258645   1.779   5.271   4.245  0.0749 -0.2941 -0.1288
12385TIP3    H158646   1.818   5.297   4.162 -1.5701 -0.1474 -0.8711
12385TIP3    H258647   1.764   5.176   4.236  2.3559 -0.8119  1.0460
12386TIP3   OH258648   3.766   6.323   3.010  0.5364 -0.1018  0.3400
12386TIP3    H158649   3.755   6.228   3.010  2.2742 -0.3603  3.4922
12386TIP3    H258650   3.687   6.357   2.968 -0.4425 -2.8769 -0.1380
12387TIP3   OH258651   0.967   6.817  11.937  0.2141  0.4008 -0.1670
12387TIP3    H158652   0.960   6.835  11.843  1.5401  1.2881 -0.1181
12387TIP3    H258653   1.035   6.750  11.944 -0.3453 -0.1468  0.1243
12388TIP3   OH258654   3.551   0.242  17.023  0.0699 -0.2040  0.6142
12388TIP3    H158655   3.504   0.207  17.098 -1.6506 -0.5365 -0.5928
12388TIP3    H258656   3.559   0.336  17.041 -0.3560 -0.2825  1.2077
12389TIP3   OH258657   2.566   2.057   4.735 -0.3431 -0.7604  0.3328
12389TIP3    H158658   2.649   2.019   4.707  0.6980 -1.9915  4.7148
12389TIP3    H258659   2.501   2.018   4.675  1.9800 -0.9753 -2.1494
12390TIP3   OH258660   4.238   0.654   1.218 -0.1350 -0.3332 -0.1325
12390TIP3    H158661   4.200   0.738   1.243  0.5012 -0.0064 -0.2443
12390TIP3    H258662   4.166   0.606   1.177 -0.2001  0.6527 -1.2191
12391TIP3   OH258663   6.223   4.127  15.825 -0.0913 -0.5577 -0.1256
12391TIP3    H158664   6.221   4.054  15.887  0.4508 -0.8088 -0.4021
12391TIP3    H258665   6.307   4.118  15.780 -0.6948 -0.6611 -1.2451
12392TIP3   OH258666   1.709   4.972  15.924  0.1967 -0.5864  0.5834
12392TIP3    H158667   1.790   4.931  15.894 -0.5979 -1.3760 -0.5120
12392TIP3    H258668   1.664   4.904  15.973 -0.9298 -0.8966 -0.8757
12393TIP3   OH258669   4.356   3.050   5.488 -0.5558  0.4598 -0.4609
12393TIP3    H158670   4.268   3.084   5.470  0.1978  2.5867 -0.3420
12393TIP3    H258671   4.345   2.992   5.564 -1.6187  1.9877  0.5795
12394TIP3   OH258672   0.219   4.634   2.176  0.5304 -0.1214 -0.7220
12394TIP3    H158673   0.215   4.547   2.217  4.0881  0.5635  1.2940
12394TIP3    H258674   0.282   4.624   2.105  1.3924  0.9214 -0.1143
12395TIP3   OH258675   0.653   6.189  15.526  0.1159  0.1043 -0.3642
12395TIP3    H158676   0.651   6.137  15.445  0.7323  0.6016 -0.6922
12395TIP3    H258677   0.739   6.229  15.528 -0.2504  0.8820  0.0543
12396TIP3   OH258678   0.059   5.887   5.015 -0.2287  0.5372 -0.1774
12396TIP3    H158679   0.121   5.958   5.031 -0.0402  0.4002 -0.2993
12396TIP3    H258680   0.020   5.870   5.101 -0.2069  0.7242 -0.1302
12397TIP3   OH258681   6.648   2.043   3.010  0.6914  0.1022 -0.5325
12397TIP3    H158682   6.724   2.023   3.064 -0.4137  1.8000  1.7497
12397TIP3    H258683   6.682   2.046   2.921  2.9857 -0.7215  0.2777
12398TIP3   OH258684   5.101   5.005   0.206 -0.3085  0.3163  0.1516
12398TIP3    H158685   5.094   5.100   0.198  0.0832  0.2952 -0.4631
12398TIP3    H258686   5.012   4.977   0.231 -0.8794  0.6761 -1.4148
12399TIP3   OH258687   1.303   2.522  13.247  0.3305 -0.3121 -0.3272
12399TIP3    H158688   1.326   2.491  13.334 -0.3845 -1.5205 -0.5708
12399TIP3    H258689   1.378   2.576  13.221  0.9690 -0.7150  0.6474
12400TIP3   OH258690   4.794   2.471  12.672 -0.0687 -0.1010  0.5550
12400TIP3    H158691   4.823   2.559  12.695 -0.1337 -0.1485  0.8212
12400TIP3    H258692   4.702   2.482  12.647 -0.7501 -0.4239  2.7606
12401TIP3   OH258693   4.113   0.716   3.742  0.3491  0.1814  0.1009
12401TIP3    H158694   4.128   0.724   3.648  0.2096 -0.4802  0.0138
12401TIP3    H258695   4.075   0.800   3.768 -2.1298 -0.5555 -0.9389
12402TIP3   OH258696   1.896   4.524  12.002  0.0570  0.7601 -0.4478
12402TIP3    H158697   1.934   4.464  12.067 -0.3570 -0.4698 -1.3173
12402TIP3    H258698   1.884   4.606  12.050  1.0360  0.2862  0.6502
12403TIP3   OH258699   2.873   3.826  14.132 -0.0560 -0.0735  0.1107
12403TIP3    H158700   2.791   3.815  14.181 -1.5388 -0.5013 -2.3435
12403TIP3    H258701   2.845   3.861  14.047  2.4964  1.2881 -0.2107
12404TIP3   OH258702   0.873   3.949  15.526  0.2086  0.2433  0.1096
12404TIP3    H158703   0.884   3.862  15.487  1.2409  0.6485 -0.5334
12404TIP3    H258704   0.785   3.976  15.499 -0.9037 -1.4060  1.9724
12405TIP3   OH258705   0.570   0.887   3.466  0.3550  0.2687  0.2501
12405TIP3    H158706   0.551   0.854   3.378  5.5725 -0.8947 -0.5878
12405TIP3    H258707   0.598   0.978   3.451  1.0146  0.1425  0.7033
12406TIP3   OH258708   0.471   3.036   0.360 -0.1353 -0.0554 -0.1078
12406TIP3    H158709   0.497   2.995   0.277  0.9064  1.1823 -0.4191
12406TIP3    H258710   0.541   3.014   0.421  0.3583  1.1173 -0.2392
12407TIP3   OH258711   1.839   6.223  11.495  0.0758  0.1078 -0.0487
12407TIP3    H158712   1.779   6.252  11.563  0.1400  0.5021 -0.1595
12407TIP3    H258713   1.787   6.225  11.415 -0.4298 -1.7728  0.2084
12408TIP3   OH258714   3.439   3.059   2.422 -0.1359 -0.2039 -0.2410
12408TIP3    H158715   3.470   3.149   2.417 -0.8454  0.1909  1.9289
12408TIP3    H258716   3.446   3.036   2.515 -0.5118 -2.1905 -0.6733
12409TIP3   OH258717   6.393   1.470   1.444  0.2032 -0.4347 -0.3874
12409TIP3    H158718   6.366   1.378   1.443  0.7076 -0.5732 -1.1703
12409TIP3    H258719   6.361   1.506   1.362 -0.1970  0.1521  0.0228
12410TIP3   OH258720   5.989   2.229   5.707 -0.0723 -0.5113  0.0757
12410TIP3    H158721   5.992   2.171   5.783 -0.3219  0.3028  0.7061
12410TIP3    H258722   5.899   2.261   5.704  0.4712  1.1271  0.7087
12411TIP3   OH258723   1.255   1.945   1.721  0.1485 -0.6142  0.1112
12411TIP3    H158724   1.248   2.018   1.660 -2.3467  0.0235  1.0834
12411TIP3    H258725   1.343   1.910   1.707  1.2239  2.2796 -0.6751
12412TIP3   OH258726   4.320   1.170   1.576  0.0050  0.0168 -0.2465
12412TIP3    H158727   4.350   1.111   1.507 -0.2059 -1.3204  0.7818
12412TIP3    H258728   4.227   1.182   1.559 -0.3399 -1.4139  0.5902
12413TIP3   OH258729   3.163   5.858   4.951 -0.1980  0.4385  0.0348
12413TIP3    H158730   3.228   5.815   4.897  0.1602  0.6744  0.2774
12413TIP3    H258731   3.086   5.867   4.894 -0.7334 -1.6793  0.3886
12414TIP3   OH258732   2.902   4.441  13.969 -0.1388 -0.2677 -0.4395
12414TIP3    H158733   2.992   4.469  13.952 -0.5556 -0.2051 -2.6397
12414TIP3    H258734   2.907   4.393  14.051  1.7772  0.3542 -0.1740
12415TIP3   OH258735   2.870   2.006   3.434  0.1803 -0.4615 -0.1839
12415TIP3    H158736   2.892   2.084   3.484 -1.6232 -0.5659  0.8092
12415TIP3    H258737   2.941   1.998   3.370  2.9208 -0.7235  2.7587
12416TIP3   OH258738   4.459   5.484  11.734 -0.2047  0.3351 -0.1260
12416TIP3    H158739   4.375   5.500  11.777 -0.5686 -1.5547 -0.0921
12416TIP3    H258740   4.436   5.457  11.645  0.4877  2.5878 -1.0121
12417TIP3   OH258741   3.523   4.894  13.826 -0.0969  0.5358 -0.1664
12417TIP3    H158742   3.540   4.904  13.920  0.0998  0.9218 -0.2426
12417TIP3    H258743   3.610   4.884  13.787 -0.2035 -0.0351 -0.2589
12418TIP3   OH258744   4.415   2.591  15.460  0.7955  0.3523 -0.5141
12418TIP3    H158745   4.456   2.609  15.375  0.1659  1.3124 -0.6219
12418TIP3    H258746   4.374   2.505  15.449  2.9980 -0.7755 -0.3164
12419TIP3   OH258747   1.951   2.562  11.171 -0.3928  0.0064  0.3794
12419TIP3    H158748   1.943   2.486  11.113 -1.7938  0.9665 -0.7144
12419TIP3    H258749   1.992   2.629  11.117 -1.4475  0.8171  0.5860
12420TIP3   OH258750   4.199   4.791  16.714  0.2510  0.0042 -0.0425
12420TIP3    H158751   4.248   4.760  16.638  0.9816 -0.8189  0.7483
12420TIP3    H258752   4.111   4.756  16.702  0.3884 -0.2111 -0.4473
12421TIP3   OH258753   0.031   5.357  16.745  0.0436 -0.0082 -0.1327
12421TIP3    H158754   0.076   5.419  16.688  0.0465  0.5966  0.5249
12421TIP3    H258755   0.049   5.271  16.707 -0.9178  0.4743 -1.7295
12422TIP3   OH258756   0.344   4.491   6.389  0.1410  0.1887 -0.0257
12422TIP3    H158757   0.433   4.496   6.425 -0.2524  0.5512  0.9084
12422TIP3    H258758   0.328   4.397   6.380  0.2477  0.0917  0.7479
12423TIP3   OH258759   4.618   4.122  12.047  0.0590 -0.0916 -0.1184
12423TIP3    H158760   4.671   4.202  12.045 -0.8837  0.5900  1.2089
12423TIP3    H258761   4.544   4.140  11.990 -0.3349  0.1328  0.4510
12424TIP3   OH258762   6.769   5.873  13.319  0.1264  0.0871 -0.1119
12424TIP3    H158763   6.843   5.828  13.360  1.5038  0.0748 -2.4956
12424TIP3    H258764   6.805   5.908  13.238 -1.9329  2.0884 -0.1977
12425TIP3   OH258765   1.304   1.111   5.067 -0.9201 -0.3305  0.3422
12425TIP3    H158766   1.236   1.081   5.127 -1.9314  0.7959 -0.2420
12425TIP3    H258767   1.263   1.107   4.980  0.4794 -1.8073 -0.2797
12426TIP3   OH258768   3.691   5.520   1.106  0.5450 -0.1013 -0.9248
12426TIP3    H158769   3.709   5.450   1.043  2.2135  0.8723 -1.5379
12426TIP3    H258770   3.776   5.556   1.127 -0.1824  0.8326  0.4792
12427TIP3   OH258771   1.325   5.089   0.392 -0.0136 -0.2449 -0.1900
12427TIP3    H158772   1.257   5.153   0.412  0.9496  0.1673  1.9191
12427TIP3    H258773   1.279   5.006   0.385 -0.8102  0.1028  0.8055
12428TIP3   OH258774   1.801   0.162   3.604  0.2124 -0.1623  0.3302
12428TIP3    H158775   1.804   0.202   3.691 -0.1452  0.5890  0.0100
12428TIP3    H258776   1.709   0.165   3.579  0.4518  0.6065 -0.5079
12429TIP3   OH258777   1.323   4.395  13.139 -0.2430 -0.4458  0.4440
12429TIP3    H158778   1.412   4.383  13.172  0.3269 -1.6123 -1.4216
12429TIP3    H258779   1.305   4.315  13.089 -0.3858  1.8796 -3.4638
12430TIP3   OH258780   4.797   0.832  17.020 -0.2278 -0.3660 -0.2805
12430TIP3    H158781   4.775   0.823  17.113  0.1359  0.9994 -0.0412
12430TIP3    H258782   4.758   0.756  16.978  0.4262 -1.5168  1.1418
12431TIP3   OH258783   2.943   1.749  13.271 -0.1518  0.2296  0.6765
12431TIP3    H158784   2.922   1.723  13.181  1.1156  2.7238 -0.3710
12431TIP3    H258785   2.858   1.747  13.316 -0.7849 -1.1312 -0.5122
12432TIP3   OH258786   0.322   2.522  10.989  0.1746  0.2077  0.4545
12432TIP3    H158787   0.261   2.466  10.942  0.3634  0.6215 -0.2932
12432TIP3    H258788   0.299   2.611  10.960  2.5569  0.2156 -1.5148
12433TIP3   OH258789   2.215   3.308   3.116 -0.2481 -0.6932 -0.5793
12433TIP3    H158790   2.140   3.296   3.057  0.0526 -1.7068 -0.7739
12433TIP3    H258791   2.179   3.290   3.203 -0.3338 -0.7643 -0.6286
12434TIP3   OH258792   1.483   4.773   1.265 -0.2882  0.2658  0.3513
12434TIP3    H158793   1.418   4.801   1.329  1.2510  0.4450  1.8716
12434TIP3    H258794   1.516   4.689   1.299  0.9504  0.6377  0.1228
12435TIP3   OH258795   5.091   6.582   3.018  0.3777 -0.0736 -0.1316
12435TIP3    H158796   5.178   6.622   3.027  0.1107  0.4526  0.1248
12435TIP3    H258797   5.106   6.489   3.033  0.8331  0.0745  0.3556
12436TIP3   OH258798   3.826   2.941   5.723 -0.1394 -0.1345 -0.4210
12436TIP3    H158799   3.812   3.033   5.701 -0.5464  0.2690  1.4078
12436TIP3    H258800   3.826   2.895   5.639 -0.9567  1.4041 -1.2780
12437TIP3   OH258801   1.815   3.868   2.224 -0.1704  0.1012 -0.0614
12437TIP3    H158802   1.736   3.912   2.255 -0.6416  0.2681 -1.4661
12437TIP3    H258803   1.861   3.842   2.304 -1.8928 -0.4803  0.7658
12438TIP3   OH258804   0.833   5.975  11.321  0.3489 -0.3216 -0.8537
12438TIP3    H158805   0.893   6.003  11.390  2.1802 -0.6827 -2.2583
12438TIP3    H258806   0.837   6.045  11.256 -1.7695  0.2700 -0.4034
12439TIP3   OH258807   1.130   5.312   2.801  0.2014  0.6440 -0.0455
12439TIP3    H158808   1.112   5.333   2.893 -1.0243 -0.0279 -0.1272
12439TIP3    H258809   1.076   5.372   2.751  0.2992  0.5013 -0.3266
12440TIP3   OH258810   0.293   6.368   0.366 -0.0154  0.0563  0.0871
12440TIP3    H158811   0.287   6.461   0.390 -1.6739  0.2967 -1.1972
12440TIP3    H258812   0.235   6.324   0.428  0.6228 -0.1208  0.5705
12441TIP3   OH258813   0.884   4.361   0.035 -0.2305 -0.2610  0.5890
12441TIP3    H158814   0.825   4.435   0.053 -0.9091 -0.7800  0.5461
12441TIP3    H258815   0.829   4.299  -0.014  1.2061  0.5539 -2.1407
12442TIP3   OH258816   0.661   5.358   1.798  0.6764  0.5303 -0.3846
12442TIP3    H158817   0.737   5.398   1.840  0.9455 -2.1460  1.8035
12442TIP3    H258818   0.696   5.279   1.756 -0.6057  0.1713 -0.8125
12443TIP3   OH258819   1.509   5.257  13.153  0.2152 -0.3948  0.0993
12443TIP3    H158820   1.538   5.327  13.212  1.2139 -0.3771 -0.4008
12443TIP3    H258821   1.559   5.180  13.180 -0.5501 -0.8024  0.3524
12444TIP3   OH258822   1.974   4.164  12.394 -0.0668 -0.5215 -0.0134
12444TIP3    H158823   1.882   4.157  12.422 -0.5721  0.1183 -1.4606
12444TIP3    H258824   2.020   4.195  12.471 -1.0346 -1.0463  0.7944
12445TIP3   OH258825   3.060   5.309  14.011 -0.2176 -0.2815  0.1824
12445TIP3    H158826   3.137   5.348  14.053  0.5292 -0.6708 -0.8176
12445TIP3    H258827   3.006   5.279  14.085 -0.2261  1.5088  0.9332
12446TIP3   OH258828   4.498   0.612  14.836 -0.0637 -0.1953  0.0048
12446TIP3    H158829   4.489   0.517  14.827  0.6558 -0.0286 -3.0262
12446TIP3    H258830   4.591   0.626  14.856 -0.0993 -0.1005  0.1088
12447TIP3   OH258831   1.901   1.035  14.492 -0.0776  0.1521  0.6916
12447TIP3    H158832   1.919   1.099  14.423 -0.7851  0.8191  1.1231
12447TIP3    H258833   1.984   1.027  14.539 -0.1462  1.1927  0.9955
12448TIP3   OH258834   3.444   2.519   5.652 -0.2403  0.0999 -0.0495
12448TIP3    H158835   3.376   2.451   5.646  0.7693 -0.9189  0.0071
12448TIP3    H258836   3.395   2.598   5.674 -1.7556 -0.0629 -2.5486
12449TIP3   OH258837   2.215   1.168  14.945  0.0774  0.0889 -0.0924
12449TIP3    H158838   2.295   1.151  14.995  1.3169  1.4330 -1.5880
12449TIP3    H258839   2.174   1.082  14.936  0.9106 -0.4890  1.4049
12450TIP3   OH258840   0.572   5.655  12.949  0.0930 -0.2812  0.5419
12450TIP3    H158841   0.607   5.625  12.865  0.9686  1.8983  0.0917
12450TIP3    H258842   0.641   5.639  13.012 -0.0548 -0.6828  0.6042
12451TIP3   OH258843   4.695   0.382  14.195 -0.5768  0.5057  0.3558
12451TIP3    H158844   4.728   0.345  14.277  0.4646 -2.3441 -1.2440
12451TIP3    H258845   4.763   0.444  14.167  0.0679 -0.0454  0.6650
12452TIP3   OH258846   6.622   1.680   3.783 -0.2174 -0.1319 -0.0630
12452TIP3    H158847   6.648   1.601   3.737  1.2611  0.5326 -0.4237
12452TIP3    H258848   6.577   1.733   3.718 -1.2823 -0.6989  0.2005
12453TIP3   OH258849   0.170   0.888   5.366  0.3210  0.3905  0.4173
12453TIP3    H158850   0.172   0.842   5.282  0.9218  0.4384  0.4026
12453TIP3    H258851   0.152   0.819   5.430  1.6809  0.0372  0.4459
12454TIP3   OH258852   3.462   2.238   1.362 -0.1122 -0.0024  0.4310
12454TIP3    H158853   3.555   2.238   1.341 -0.4152 -1.1162 -0.9455
12454TIP3    H258854   3.450   2.316   1.417  1.1811  1.5105 -1.3758
12455TIP3   OH258855   4.490   2.120   4.582  0.6704  0.4266  0.1069
12455TIP3    H158856   4.470   2.091   4.493  2.5259 -0.8672  0.0919
12455TIP3    H258857   4.552   2.056   4.615  0.8164  1.4941  1.9680
12456TIP3   OH258858   4.719   2.641   0.895  0.0126  0.0956 -0.0471
12456TIP3    H158859   4.644   2.609   0.945 -0.7836  1.6607 -0.1894
12456TIP3    H258860   4.687   2.644   0.804  1.0832 -1.6581 -0.4948
12457TIP3   OH258861   0.251   3.989  12.120  0.5325 -0.1186 -0.3762
12457TIP3    H158862   0.202   3.968  12.199 -0.8575  0.3408 -1.0808
12457TIP3    H258863   0.270   4.082  12.127 -0.3752  0.1220 -0.9807
12458TIP3   OH258864   0.792   6.772  14.481 -0.3052  0.2000  0.6825
12458TIP3    H158865   0.863   6.708  14.483 -1.4051 -1.0513  1.7089
12458TIP3    H258866   0.724   6.731  14.427  0.0480  1.7148 -0.9425
12459TIP3   OH258867   3.365   4.286   1.750  0.3529  0.0867  0.0083
12459TIP3    H158868   3.302   4.350   1.715 -0.5947 -1.4629 -1.1816
12459TIP3    H258869   3.444   4.299   1.697 -1.2072 -2.5253 -3.1049
12460TIP3   OH258870   3.721   3.481   3.003 -0.1458 -0.0393  0.2577
12460TIP3    H158871   3.666   3.483   3.081  1.2276  0.2740  1.2460
12460TIP3    H258872   3.799   3.531   3.027 -0.4166  1.4806 -1.8783
12461TIP3   OH258873   4.849   2.134   0.105  0.2551 -0.0665  0.3424
12461TIP3    H158874   4.909   2.090   0.046  0.5604 -0.9965  1.3303
12461TIP3    H258875   4.768   2.083   0.099  0.9888 -1.5016  2.4002
12462TIP3   OH258876   2.185   5.300  14.963  0.1633 -0.3323 -0.3347
12462TIP3    H158877   2.264   5.354  14.962  0.0037 -0.1124 -1.2731
12462TIP3    H258878   2.115   5.361  14.942 -0.2241 -0.5851  0.2210
12463TIP3   OH258879   2.196   4.603   4.521  0.6141 -0.2168 -0.4120
12463TIP3    H158880   2.154   4.556   4.594  1.2551  1.4829  1.1043
12463TIP3    H258881   2.171   4.553   4.443 -0.3657 -1.9025  0.9281
12464TIP3   OH258882   3.053   4.443   2.811 -0.0287  0.0357  0.0600
12464TIP3    H158883   3.060   4.534   2.781 -1.2724 -0.2459 -1.1788
12464TIP3    H258884   3.119   4.435   2.879 -0.5686  2.1656  0.9038
12465TIP3   OH258885   2.348   3.464   5.795  0.3068  0.1653 -0.1383
12465TIP3    H158886   2.400   3.484   5.717  2.6065 -1.7485  0.8391
12465TIP3    H258887   2.288   3.395   5.767  1.3151 -0.7125 -0.1954
12466TIP3   OH258888   4.157   4.619   3.700 -0.1342  0.5926  0.4375
12466TIP3    H158889   4.169   4.705   3.659 -0.4324  0.5939  0.3550
12466TIP3    H258890   4.108   4.568   3.635  1.1512 -0.0476 -0.0522
12467TIP3   OH258891   3.898   4.326   5.595 -0.2445 -0.3602  0.0962
12467TIP3    H158892   3.868   4.341   5.684 -0.7329  0.0574 -0.1372
12467TIP3    H258893   3.986   4.364   5.593  0.6347 -2.2923  1.0053
12468TIP3   OH258894   4.809   2.819   1.895  0.3750  0.0130  0.2497
12468TIP3    H158895   4.898   2.807   1.863 -0.1038 -1.0428 -0.7125
12468TIP3    H258896   4.808   2.908   1.930  1.5590  0.3561 -0.5706
12469TIP3   OH258897   3.632   1.625  13.181  0.3275 -0.6799 -0.2115
12469TIP3    H158898   3.603   1.582  13.261  3.0598 -0.5737  0.8717
12469TIP3    H258899   3.724   1.602  13.173  1.1657  2.6940 -1.1105
12470TIP3   OH258900   0.951   5.013  14.370  0.0219 -0.6816  0.1099
12470TIP3    H158901   0.966   5.048  14.283 -0.9123  1.2108  0.7040
12470TIP3    H258902   0.863   4.976  14.367 -0.1711 -0.2432  0.3764
12471TIP3   OH258903   5.939   3.628  15.955  0.3675 -0.0611  0.3576
12471TIP3    H158904   5.910   3.581  15.877 -0.2337  1.8810 -0.6031
12471TIP3    H258905   6.013   3.576  15.987  0.6447 -0.8676 -1.5198
12472TIP3   OH258906   5.057   3.608   4.460 -0.2147  0.4927  0.6322
12472TIP3    H158907   5.040   3.515   4.444  1.6064  0.6219 -2.6289
12472TIP3    H258908   5.092   3.611   4.549 -1.7376 -1.7241  1.3624
12473TIP3   OH258909   0.063   2.659   3.330 -0.3653  0.3752  0.1720
12473TIP3    H158910   0.006   2.583   3.323  2.2046 -1.4903 -1.0298
12473TIP3    H258911   0.009   2.732   3.298 -1.9913 -1.3703 -1.1720
12474TIP3   OH258912   0.104   4.135   0.273  0.0656  0.0556 -0.0894
12474TIP3    H158913   0.034   4.199   0.291 -0.3081 -0.1903 -0.6303
12474TIP3    H258914   0.149   4.170   0.196  1.3761  0.8835  1.0313
12475TIP3   OH258915   2.625   0.547   3.955  0.0321  0.1514 -0.6798
12475TIP3    H158916   2.591   0.462   3.982  2.1563 -0.4619  0.1479
12475TIP3    H258917   2.628   0.599   4.035 -1.9209  1.2822 -1.2961
12476TIP3   OH258918   5.423   0.760   5.779  0.0014  0.2939 -0.5118
12476TIP3    H158919   5.368   0.685   5.799  2.1795 -1.4842 -0.9766
12476TIP3    H258920   5.413   0.772   5.684 -1.7356  1.7609 -0.1718
12477TIP3   OH258921   4.289   5.175  12.560  0.4822  0.0806  0.3789
12477TIP3    H158922   4.292   5.081  12.540  1.4250  0.7597 -3.0510
12477TIP3    H258923   4.205   5.203  12.523  0.4348  0.6901  0.9510
12478TIP3   OH258924   0.051   0.345  16.528 -0.0838 -0.2987 -0.3779
12478TIP3    H158925   0.131   0.387  16.561  0.9773 -1.8723 -0.9066
12478TIP3    H258926  -0.018   0.381  16.583  1.1752 -0.0421  1.0990
12479TIP3   OH258927   3.395   2.035  16.224  0.5243  0.1799 -0.1588
12479TIP3    H158928   3.464   1.987  16.177  0.7739 -1.3882  1.7583
12479TIP3    H258929   3.322   1.973  16.227 -0.0350  0.8625  0.1321
12480TIP3   OH258930   5.989   1.184   4.629  0.0483 -0.9213 -0.1522
12480TIP3    H158931   6.072   1.177   4.676 -0.1423  0.6390  0.4498
12480TIP3    H258932   6.013   1.222   4.544 -0.1221  0.2643  0.3137
12481TIP3   OH258933   4.494   1.263  10.474  0.2936  0.4730  0.3454
12481TIP3    H158934   4.420   1.244  10.416  1.3060  1.6717 -1.3773
12481TIP3    H258935   4.456   1.314  10.546 -1.2836 -2.5220  1.7106
12482TIP3   OH258936   4.963   2.313  16.060 -0.6618 -0.3666 -0.1701
12482TIP3    H158937   5.038   2.371  16.047  0.1910 -1.5395 -0.5703
12482TIP3    H258938   4.920   2.309  15.974 -0.5417 -0.5587 -0.2234
12483TIP3   OH258939   3.687   1.980   4.445 -0.1854 -0.1457 -0.4309
12483TIP3    H158940   3.693   2.075   4.457  2.7650 -0.3150 -0.1583
12483TIP3    H258941   3.703   1.967   4.351  1.7248 -0.4711 -0.0970
12484TIP3   OH258942   1.955   6.552  11.916  0.7440  0.2751  0.4161
12484TIP3    H158943   2.006   6.631  11.933  0.3736  1.0878 -2.0439
12484TIP3    H258944   1.980   6.526  11.827 -2.5646  0.3283 -0.6042
12485TIP3   OH258945   1.875   0.688   2.876 -0.1184 -0.3140 -0.2622
12485TIP3    H158946   1.862   0.616   2.939 -0.6764 -0.3018 -0.3603
12485TIP3    H258947   1.804   0.677   2.813 -2.0748  2.1361  1.4416
12486TIP3   OH258948   3.784   0.552   6.351  0.0669 -0.0963 -0.1741
12486TIP3    H158949   3.822   0.598   6.276 -1.1325 -0.2226 -0.8757
12486TIP3    H258950   3.846   0.482   6.370 -0.1705 -0.7808 -1.8098
12487TIP3   OH258951   5.901   2.893   2.984 -0.0556 -0.1137 -0.3857
12487TIP3    H158952   5.924   2.805   2.953  1.4724 -0.3374  1.2418
12487TIP3    H258953   5.852   2.932   2.912 -1.3809 -2.5554 -0.8708
12488TIP3   OH258954   5.657   5.372   2.167 -0.1883 -0.2245 -0.4916
12488TIP3    H158955   5.586   5.436   2.177 -0.1438 -0.2149 -0.2247
12488TIP3    H258956   5.714   5.388   2.243 -0.0743 -0.4498 -0.5300
12489TIP3   OH258957   1.785   5.965  13.769 -0.1344 -0.0968  0.2039
12489TIP3    H158958   1.754   6.047  13.808  0.4697 -0.2636  1.0520
12489TIP3    H258959   1.729   5.952  13.692 -0.2431  1.1073  0.0664
12490TIP3   OH258960   0.124   5.500   5.727  0.2652  0.5543 -0.2781
12490TIP3    H158961   0.121   5.488   5.632  0.1737  1.7850 -0.4386
12490TIP3    H258962   0.051   5.449   5.760 -0.1781  0.7532 -0.9419
12491TIP3   OH258963   0.664   5.064  13.271  0.0548  0.3796  0.2136
12491TIP3    H158964   0.614   5.077  13.190 -1.0026  1.7747  1.0832
12491TIP3    H258965   0.753   5.090  13.248 -0.1206  0.2208 -0.6673
12492TIP3   OH258966   0.336   6.185  10.777 -0.0108 -0.4902 -0.1770
12492TIP3    H158967   0.336   6.092  10.798  3.0162 -0.1049  1.7538
12492TIP3    H258968   0.260   6.220  10.824 -0.7174 -1.8216 -0.2937
12493TIP3   OH258969   5.487   4.205  14.464  0.3568  0.2797  0.6177
12493TIP3    H158970   5.533   4.282  14.498 -0.8351  0.4247  1.9539
12493TIP3    H258971   5.396   4.234  14.456 -0.0602 -0.9357  0.9417
12494TIP3   OH258972   4.107   3.091  14.028 -0.2504 -0.1087  0.4016
12494TIP3    H158973   4.013   3.088  14.043 -0.3342  0.0634 -0.0944
12494TIP3    H258974   4.144   3.032  14.094 -0.6907 -0.0575  0.6933
12495TIP3   OH258975   4.963   0.210  13.891  0.2810 -0.3719 -0.9651
12495TIP3    H158976   4.879   0.176  13.860  0.3599  0.8316 -2.5251
12495TIP3    H258977   4.941   0.294  13.932  0.4820 -0.9092  0.2574
12496TIP3   OH258978   2.701   1.864  11.986 -0.1355  0.2098 -0.9559
12496TIP3    H158979   2.772   1.920  12.017 -1.2132  0.1028  1.8677
12496TIP3    H258980   2.746   1.791  11.942  1.4894  0.3936  0.3351
12497TIP3   OH258981   0.656   6.025  13.069  0.5414  0.8003  0.0415
12497TIP3    H158982   0.731   5.986  13.024  0.3439  2.4766 -1.8318
12497TIP3    H258983   0.583   6.012  13.009 -0.4253  0.2294  1.3289
12498TIP3   OH258984   1.123   5.668   5.099 -0.0599  0.0875  0.2191
12498TIP3    H158985   1.217   5.684   5.090 -0.1655  0.2301 -0.6621
12498TIP3    H258986   1.109   5.580   5.063 -0.3801  0.3918 -0.4212
12499TIP3   OH258987   4.980   2.061  14.946 -0.0249 -0.4783 -0.3339
12499TIP3    H158988   4.954   2.111  14.869  1.3183  0.5246 -0.1572
12499TIP3    H258989   5.056   2.009  14.918 -0.5911 -1.4178 -0.1530
12500TIP3   OH258990   0.566   2.856   5.300 -0.2330  0.4520  0.5164
12500TIP3    H158991   0.622   2.779   5.294  1.0708  1.1847  2.7697
12500TIP3    H258992   0.477   2.823   5.295  0.3233 -1.1670  1.1821
12501TIP3   OH258993   0.514   3.078   1.387 -0.0386  0.0802  0.4744
12501TIP3    H158994   0.474   3.050   1.305 -0.0327  0.3529  0.3781
12501TIP3    H258995   0.584   3.014   1.402 -0.7528 -0.6186  0.8429
12502TIP3   OH258996   4.832   0.370   3.131  0.0931 -0.0199 -0.1383
12502TIP3    H158997   4.900   0.303   3.138  0.2078  0.1774  0.6354
12502TIP3    H258998   4.862   0.441   3.187 -0.9026 -0.0638  0.4642
12503TIP3   OH258999   3.503   4.158  16.353  0.1188 -0.4991  0.0027
12503TIP3    H159000   3.415   4.125  16.372 -0.8001  1.2258 -1.1455
12503TIP3    H259001   3.542   4.172  16.440 -0.3436 -2.2017  0.5134
12504TIP3   OH259002   3.665   1.961  11.598  0.7460 -0.5487 -0.0325
12504TIP3    H159003   3.645   2.045  11.557 -1.9502 -0.5712  1.1255
12504TIP3    H259004   3.731   1.982  11.664  0.4472  0.5797 -0.0745
12505TIP3   OH259005   1.369   1.214  12.154 -0.2615 -0.4243 -0.0982
12505TIP3    H159006   1.464   1.207  12.146 -0.2485  0.5312 -0.9010
12505TIP3    H259007   1.335   1.155  12.087 -0.2400 -1.1147  0.4967
12506TIP3   OH259008   6.673   4.131   3.545  0.0475 -0.2135  0.3884
12506TIP3    H159009   6.670   4.038   3.519  1.4110 -0.5464  1.3807
12506TIP3    H259010   6.765   4.155   3.538 -0.2902  1.0620  0.2196
12507TIP3   OH259011   3.385   6.178  11.601  0.0595  0.2020  0.1331
12507TIP3    H159012   3.450   6.121  11.642  0.1272  0.2539  0.0980
12507TIP3    H259013   3.350   6.231  11.673  0.8722  0.9720 -0.0374
12508TIP3   OH259014   2.240   0.692   1.209  0.3694  0.2714  0.1567
12508TIP3    H159015   2.239   0.623   1.142  1.7903  2.4326 -2.1532
12508TIP3    H259016   2.330   0.694   1.241  0.0165  0.1756  1.1782
12509TIP3   OH259017   1.835   2.245  15.906  0.6351 -0.0859  0.3225
12509TIP3    H159018   1.761   2.200  15.865  1.6236 -0.6870 -0.8228
12509TIP3    H259019   1.886   2.175  15.947 -0.2323  0.4797  2.4648
12510TIP3   OH259020   5.182   6.135  12.290  0.1800  0.3250  0.2275
12510TIP3    H159021   5.092   6.109  12.311 -0.1785  2.3424  1.2958
12510TIP3    H259022   5.200   6.092  12.206 -0.8414 -2.1673  1.2385
12511TIP3   OH259023   5.581   5.748  13.774  0.1032 -0.7458 -0.5600
12511TIP3    H159024   5.511   5.773  13.713  1.4414 -1.2143 -2.3454
12511TIP3    H259025   5.590   5.824  13.832 -2.0596 -0.7961 -0.1385
12512TIP3   OH259026   0.921   2.059  15.983  0.0622  0.2734  0.2060
12512TIP3    H159027   0.855   2.070  15.916 -0.4691  1.1638  0.8640
12512TIP3    H259028   1.005   2.064  15.936 -0.2871  1.6373 -0.2878
12513TIP3   OH259029   0.117   1.980   5.590 -0.0432 -0.3178  0.5912
12513TIP3    H159030   0.151   2.009   5.675  0.0485  0.7133  0.2142
12513TIP3    H259031   0.121   1.885   5.594 -0.5820 -0.3022  1.9682
12514TIP3   OH259032   0.553   3.523   3.326  0.0485 -0.3398  0.5519
12514TIP3    H159033   0.583   3.576   3.252 -0.3188 -0.3189  0.4188
12514TIP3    H259034   0.465   3.556   3.345  0.5428  0.3815  1.6714
12515TIP3   OH259035   0.678   0.174   6.657 -0.2065  0.1953  0.0451
12515TIP3    H159036   0.665   0.080   6.644 -0.3419  0.3506 -1.0537
12515TIP3    H259037   0.753   0.181   6.715  0.4103 -0.5793 -0.6558
12516TIP3   OH259038   6.611   4.519   2.726  0.0023  0.5559 -0.2308
12516TIP3    H159039   6.572   4.471   2.799 -1.3921  0.3315 -1.1039
12516TIP3    H259040   6.684   4.566   2.765  1.3217 -2.1302  0.6923
12517TIP3   OH259041   0.263   4.821   2.389 -0.5173  0.0118 -0.4708
12517TIP3    H159042   0.218   4.775   2.318  1.0857 -1.8828 -0.3202
12517TIP3    H259043   0.268   4.756   2.459 -0.3217  1.2259  0.6518
12518TIP3   OH259044   3.398   5.421  11.239  0.3940  0.1041 -0.0052
12518TIP3    H159045   3.369   5.475  11.166 -2.1278 -0.4006  0.5778
12518TIP3    H259046   3.342   5.446  11.312  0.2224 -2.1731  0.6954
12519TIP3   OH259047   2.134   6.036  17.142  0.4669 -0.4633  0.3372
12519TIP3    H159048   2.076   5.962  17.162  0.8459 -1.0478 -0.6986
12519TIP3    H259049   2.107   6.065  17.055 -0.0554  0.9936  0.9683
12520TIP3   OH259050   4.025   1.901  15.372  0.3111  0.2380 -0.2750
12520TIP3    H159051   3.933   1.912  15.393  1.0396  1.9416  2.3901
12520TIP3    H259052   4.047   1.814  15.405 -0.0241  0.4260  0.4591
12521TIP3   OH259053   2.314   5.489   3.638  0.1750  0.2786  0.1104
12521TIP3    H159054   2.250   5.446   3.695  1.4711  0.5629  1.8128
12521TIP3    H259055   2.345   5.419   3.581 -0.8721 -0.0860 -0.0386
12522TIP3   OH259056   5.377   5.952   4.960  0.0707 -0.3489  0.6404
12522TIP3    H159057   5.394   5.858   4.952  1.5587 -0.0581  0.2809
12522TIP3    H259058   5.443   5.993   4.905 -0.5833  0.9189  0.7796
12523TIP3   OH259059   6.626   6.040   5.343  0.4888 -0.3401 -0.1475
12523TIP3    H159060   6.672   5.979   5.285  2.1292 -0.8328  1.6251
12523TIP3    H259061   6.649   6.011   5.431 -1.7546  0.5508  0.7655
12524TIP3   OH259062   1.907   4.505  12.512  0.8307 -0.7085  0.0210
12524TIP3    H159063   1.861   4.499  12.428 -1.1483 -0.0947  1.0093
12524TIP3    H259064   1.849   4.459  12.574  0.5826  1.7072  1.6713
12525TIP3   OH259065   2.317   6.280  15.925 -0.5379 -0.2454  0.7988
12525TIP3    H159066   2.310   6.249  15.835  0.3031  1.0350  0.2795
12525TIP3    H259067   2.342   6.372  15.917  0.5192 -0.3804  2.3576
12526TIP3   OH259068   3.358   3.328   1.417 -0.4837 -0.6084  0.3531
12526TIP3    H159069   3.264   3.333   1.435 -0.7012  1.3774 -1.1801
12526TIP3    H259070   3.400   3.362   1.497 -1.1479  0.3454  0.3023
12527TIP3   OH259071   5.608   5.422  13.020  0.3094  0.9194 -0.4679
12527TIP3    H159072   5.578   5.478  13.091 -0.3976 -1.1156  0.8617
12527TIP3    H259073   5.678   5.369  13.058 -1.0672 -1.2373 -0.8391
12528TIP3   OH259074   0.660   1.739   0.765 -0.2570  0.0533  0.3889
12528TIP3    H159075   0.742   1.782   0.790 -0.0940 -0.1458  0.1974
12528TIP3    H259076   0.684   1.680   0.694 -0.2833 -1.1495  1.3723
12529TIP3   OH259077   6.752   1.730   3.227  0.0389 -0.2065  0.5869
12529TIP3    H159078   6.666   1.769   3.244 -0.4827 -1.1695  0.2158
12529TIP3    H259079   6.814   1.801   3.241 -0.7901  0.3949  1.2642
12530TIP3   OH259080   0.761   3.678  15.795  0.2057 -0.3941 -0.0593
12530TIP3    H159081   0.855   3.678  15.775  0.2178 -2.3300 -0.0997
12530TIP3    H259082   0.718   3.673  15.709  0.1021 -0.8190  0.0144
12531TIP3   OH259083   1.928   3.085  16.455  0.0403  0.2269  0.5063
12531TIP3    H159084   1.937   3.180  16.453  0.7057  0.1979  1.5261
12531TIP3    H259085   1.996   3.053  16.394 -0.2702  0.4064  0.0649
12532TIP3   OH259086   5.470   5.428   2.740 -0.1652 -0.4412 -0.2834
12532TIP3    H159087   5.480   5.521   2.759 -2.6196 -0.2993  0.5891
12532TIP3    H259088   5.408   5.425   2.666  2.8121 -1.2917 -2.8792
12533TIP3   OH259089   4.354   3.710  13.629  0.2345  0.1259 -0.4546
12533TIP3    H159090   4.325   3.623  13.658  0.3152  0.0716 -0.5356
12533TIP3    H259091   4.427   3.732  13.687  0.1938  0.1527 -0.4139
12534TIP3   OH259092   2.756   5.294  17.229 -0.7467  0.3836  0.5409
12534TIP3    H159093   2.819   5.358  17.263  0.1067  0.3171 -0.8818
12534TIP3    H259094   2.760   5.221  17.291  0.0531  0.6878  0.8530
12535TIP3   OH259095   4.140   6.388  12.199 -0.0004  0.0875  0.0042
12535TIP3    H159096   4.083   6.350  12.132  0.6617  1.4727 -1.3752
12535TIP3    H259097   4.223   6.343  12.188 -0.5330 -1.2698  1.3977
12536TIP3   OH259098   0.563   6.164  12.178  0.1640 -0.3226 -0.2566
12536TIP3    H159099   0.578   6.258  12.189 -0.2768 -0.0932 -1.5778
12536TIP3    H259100   0.651   6.127  12.169  0.4018 -0.1930  1.4405
12537TIP3   OH259101   4.541   6.224   0.637  0.2029  0.2901 -0.1093
12537TIP3    H159102   4.615   6.270   0.675 -1.2492  1.0741  1.8493
12537TIP3    H259103   4.552   6.133   0.666  0.4955  0.3658  0.0171
12538TIP3   OH259104   0.652   6.236  12.518  0.5875 -0.4368 -0.2456
12538TIP3    H159105   0.600   6.186  12.454 -0.6663  0.5376 -0.0108
12538TIP3    H259106   0.595   6.241  12.595  1.9223 -1.2344  0.8114
12539TIP3   OH259107   2.020   3.629  14.397  0.2966 -0.4222 -0.5867
12539TIP3    H159108   2.113   3.637  14.418 -0.0276 -1.4795  1.4215
12539TIP3    H259109   1.988   3.719  14.393  1.1962 -0.0814 -0.3347
12540TIP3   OH259110   4.584   5.989  15.638 -0.4320 -0.0857 -0.2363
12540TIP3    H159111   4.534   6.056  15.591 -0.7542 -0.6981 -0.7617
12540TIP3    H259112   4.675   6.006  15.612  0.0050  2.7071  2.7538
12541TIP3   OH259113   6.328   1.531   4.131 -0.1991  0.6892  0.8528
12541TIP3    H159114   6.396   1.516   4.197  0.7193  0.1912 -0.1834
12541TIP3    H259115   6.275   1.603   4.167  1.9128  2.2799  0.9072
12542TIP3   OH259116   4.206   3.915   5.035 -0.0697  0.4516  0.5538
12542TIP3    H159117   4.163   3.965   5.105  1.7258  0.7475  1.4663
12542TIP3    H259118   4.251   3.844   5.081  0.7213  0.3640 -0.3536
12543TIP3   OH259119   5.354   6.802  12.874 -0.3705  0.0322 -0.5141
12543TIP3    H159120   5.261   6.813  12.856  0.0690  1.2509 -2.2014
12543TIP3    H259121   5.397   6.865  12.816  1.5601 -1.2791 -0.5621
12544TIP3   OH259122   3.371   6.686  11.327 -0.2716  0.7642 -0.5290
12544TIP3    H159123   3.338   6.697  11.238  0.8227  1.6383 -0.8341
12544TIP3    H259124   3.452   6.737  11.329 -1.0582  2.0006  1.4007
12545TIP3   OH259125   4.954   1.650  13.675  0.0818  0.5723 -0.3536
12545TIP3    H159126   5.027   1.700  13.637  0.0716  1.3470  0.6282
12545TIP3    H259127   4.995   1.572  13.711  0.1215 -0.0661 -1.7604
12546TIP3   OH259128   2.480   0.444  16.712  0.0840  1.0795 -0.3480
12546TIP3    H159129   2.442   0.482  16.633  0.8190  2.6024  0.0059
12546TIP3    H259130   2.491   0.351  16.692  0.7034  1.5346 -2.1996
12547TIP3   OH259131   3.591   5.285   1.664 -0.0606 -0.5528  0.7077
12547TIP3    H159132   3.519   5.336   1.629 -0.1627 -1.6402 -0.6920
12547TIP3    H259133   3.564   5.194   1.653  1.2974 -0.9592  0.6533
12548TIP3   OH259134   0.858   0.333  11.551 -0.7501 -0.5000  0.0848
12548TIP3    H159135   0.918   0.386  11.499 -1.5680 -1.0582 -1.4705
12548TIP3    H259136   0.772   0.372  11.536 -0.9693 -0.5435  1.2002
12549TIP3   OH259137   1.675   1.411  12.686 -0.2932 -0.0059 -0.0172
12549TIP3    H159138   1.653   1.436  12.775  0.4171  0.4812  0.0247
12549TIP3    H259139   1.641   1.482  12.632 -1.5418 -0.7481 -0.2206
12550TIP3   OH259140   6.541   2.158  14.527 -0.3317  0.6718  0.1994
12550TIP3    H159141   6.458   2.158  14.479 -0.2444 -0.8440  0.0088
12550TIP3    H259142   6.517   2.126  14.614 -0.0314  0.7394  0.3055
12551TIP3   OH259143   2.498   5.826  12.191  0.1497 -0.4185 -0.0826
12551TIP3    H159144   2.469   5.902  12.241  0.9634  0.2727 -0.6561
12551TIP3    H259145   2.573   5.793  12.241 -0.4008 -1.0436  0.3409
12552TIP3   OH259146   4.112   2.974   1.261 -0.1795  0.0209 -0.1407
12552TIP3    H159147   4.049   2.918   1.307  0.2800 -0.1315  0.3070
12552TIP3    H259148   4.077   2.981   1.172 -0.9783  0.1653  0.1772
12553TIP3   OH259149   5.801   1.584   2.780  0.4614  0.0185 -0.5483
12553TIP3    H159150   5.772   1.531   2.853 -0.0371 -1.1196 -1.5526
12553TIP3    H259151   5.864   1.645   2.817  0.1582 -0.5048  0.8281
12554TIP3   OH259152   0.214   0.323   0.117  0.2860  0.1374 -0.1358
12554TIP3    H159153   0.162   0.400   0.091 -0.4084 -0.0458  0.6580
12554TIP3    H259154   0.225   0.273   0.037 -1.7817 -0.4028 -0.1156
12555TIP3   OH259155   6.174   4.625  14.744  0.7559  0.2866 -0.2923
12555TIP3    H159156   6.086   4.624  14.782  1.3876  0.0783  1.1731
12555TIP3    H259157   6.179   4.543  14.694  0.3102  0.0417  0.0558
12556TIP3   OH259158   3.142   6.296   4.674 -0.0946 -0.4537 -0.6383
12556TIP3    H159159   3.161   6.247   4.754 -0.1323  0.6903  0.0879
12556TIP3    H259160   3.102   6.232   4.615 -1.8901 -0.8424  0.9664
12557TIP3   OH259161   0.560   0.353  14.385  0.0210 -0.3267 -0.4413
12557TIP3    H159162   0.580   0.286  14.320 -1.4859 -0.3479 -0.8914
12557TIP3    H259163   0.540   0.304  14.465 -0.6791 -0.3954 -0.6597
12558TIP3   OH259164   0.970   4.298  14.921 -0.0007 -0.3382 -0.3695
12558TIP3    H159165   0.939   4.277  14.833  0.2036 -0.9017 -0.3127
12558TIP3    H259166   0.975   4.393  14.923 -3.2947 -0.1194  0.1612
12559TIP3   OH259167   3.414   1.004  15.138 -0.3688 -0.2070 -0.0525
12559TIP3    H159168   3.360   1.083  15.143  2.6915  1.9824 -0.0912
12559TIP3    H259169   3.484   1.026  15.076 -0.8656 -3.8955 -2.0640
12560TIP3   OH259170   4.068   1.735   4.638  0.1634  0.5351 -0.0008
12560TIP3    H159171   4.088   1.707   4.727 -1.8069  1.0436  0.6422
12560TIP3    H259172   4.101   1.825   4.632 -0.4252  0.7929  0.5102
12561TIP3   OH259173   3.331   4.826   6.141  0.7356  0.0126  0.0539
12561TIP3    H159174   3.242   4.823   6.175  1.1223 -1.4976  0.9958
12561TIP3    H259175   3.326   4.884   6.065 -0.7606  1.0038  0.8892
12562TIP3   OH259176   4.293   6.684   4.449 -0.0730  0.1032 -0.3622
12562TIP3    H159177   4.303   6.718   4.538 -2.5733  0.6415 -0.2451
12562TIP3    H259178   4.303   6.589   4.458 -1.1771  0.0660  0.6744
12563TIP3   OH259179   2.676   5.214  16.968 -0.4723 -0.3063  0.4643
12563TIP3    H159180   2.586   5.192  16.992  0.1329 -2.1507  1.1120
12563TIP3    H259181   2.722   5.222  17.052 -0.1484  1.2474  0.1619
12564TIP3   OH259182   4.088   2.680  16.293 -0.3936  0.0395 -0.0592
12564TIP3    H159183   4.076   2.760  16.240 -1.5736 -0.5982 -0.7916
12564TIP3    H259184   4.028   2.617  16.253 -1.0130 -0.5755  1.8162
12565TIP3   OH259185   6.285   4.042  16.355  0.6908 -0.0853  0.3811
12565TIP3    H159186   6.245   3.965  16.314  0.2749 -0.1858  0.9544
12565TIP3    H259187   6.267   4.114  16.295 -1.8602  0.2076  1.4262
12566TIP3   OH259188   4.307   5.952   5.606  0.4309  0.0313 -0.1353
12566TIP3    H159189   4.294   6.045   5.588  1.0573  0.4328  1.3805
12566TIP3    H259190   4.303   5.910   5.520  0.1764  1.4573 -0.8391
12567TIP3   OH259191   4.272   3.697  12.703  0.2552 -0.5205 -0.0494
12567TIP3    H159192   4.330   3.667  12.773 -0.7604 -1.4285  0.4171
12567TIP3    H259193   4.261   3.791  12.719  2.5844 -0.0841 -0.8686
12568TIP3   OH259194   6.399   3.268   0.963  0.8219  0.2378  0.6261
12568TIP3    H159195   6.408   3.179   0.932  0.4851  0.0618  1.0136
12568TIP3    H259196   6.304   3.285   0.960  0.8540  0.4685  0.8547
12569TIP3   OH259197   4.114   0.386  16.840  0.1801  0.1662 -0.1409
12569TIP3    H159198   4.155   0.350  16.918 -1.1090  0.8191  0.8569
12569TIP3    H259199   4.061   0.314  16.805 -0.2312  0.2586  0.2954
12570TIP3   OH259200   4.493   0.194  12.670  0.3818  0.0278  0.3742
12570TIP3    H159201   4.543   0.275  12.658  1.1025 -0.3969  0.4548
12570TIP3    H259202   4.440   0.186  12.592  2.1748 -0.7169 -0.8176
12571TIP3   OH259203   4.338   1.073   4.719 -0.0678  0.2927  0.0797
12571TIP3    H159204   4.293   1.148   4.681 -1.2621 -0.0096  0.8801
12571TIP3    H259205   4.388   1.110   4.792  1.2053  0.6665 -0.9627
12572TIP3   OH259206   3.863   2.065   4.691  0.3445 -0.2942 -0.1440
12572TIP3    H159207   3.809   2.135   4.727  3.3825  2.3858 -0.5955
12572TIP3    H259208   3.822   2.044   4.607 -0.5645  0.9660 -0.0213
12573TIP3   OH259209   2.485   2.472  13.565  0.4356  0.1720 -0.3428
12573TIP3    H159210   2.543   2.450  13.493 -0.9675  0.2551 -1.5301
12573TIP3    H259211   2.531   2.541  13.613  1.7994 -0.5538 -0.5906
12574TIP3   OH259212   6.074   3.999  15.113  0.0758 -0.3850 -0.2331
12574TIP3    H159213   6.082   3.919  15.060 -1.8658 -1.5707  1.1893
12574TIP3    H259214   6.144   3.992  15.178 -1.3143 -1.9549  1.1396
12575TIP3   OH259215   5.687   1.452  11.135  0.7930 -0.5721 -0.0492
12575TIP3    H159216   5.734   1.504  11.070 -1.5295 -0.6884 -1.8805
12575TIP3    H259217   5.738   1.371  11.143  2.2035  0.2876 -0.1711
12576TIP3   OH259218   6.620   3.754  16.727  0.5340  0.5393  0.3457
12576TIP3    H159219   6.646   3.783  16.639 -0.1351  0.2159  0.0298
12576TIP3    H259220   6.560   3.681  16.710  0.5064  0.3934  1.0822
12577TIP3   OH259221   3.638   3.990  10.492 -0.1512  0.4167  0.4333
12577TIP3    H159222   3.723   4.022  10.462  0.3010 -0.7578  0.4493
12577TIP3    H259223   3.607   3.934  10.421 -0.0353 -0.6910  1.2495
12578TIP3   OH259224   2.614   1.773   2.768  0.4223 -0.1872  0.5348
12578TIP3    H159225   2.656   1.739   2.688 -0.1293 -0.8068  0.5008
12578TIP3    H259226   2.529   1.729   2.770  0.1398  0.3918  1.0762
12579TIP3   OH259227   3.074   4.590   0.770  0.5327 -0.0890 -0.4981
12579TIP3    H159228   3.038   4.565   0.855 -1.1954 -1.3109 -1.5565
12579TIP3    H259229   3.141   4.525   0.751  0.4481 -0.2094 -0.3818
12580TIP3   OH259230   4.484   1.209   4.921 -0.3236  0.1508 -0.1878
12580TIP3    H159231   4.486   1.305   4.924  0.7563  0.1780 -1.4097
12580TIP3    H259232   4.519   1.181   5.005  0.5545  0.8353 -0.3205
12581TIP3   OH259233   1.690   4.649  11.098 -0.1222 -0.0861 -0.2483
12581TIP3    H159234   1.638   4.725  11.071 -0.0928 -0.2575 -0.7992
12581TIP3    H259235   1.736   4.622  11.018  1.7741  0.8157  0.5143
12582TIP3   OH259236   0.778   3.407   2.465 -0.1356  0.6710 -0.0552
12582TIP3    H159237   0.686   3.429   2.451 -0.1182  1.5574  1.1572
12582TIP3    H259238   0.822   3.492   2.474  0.6383  0.2338  0.3467
12583TIP3   OH259239   0.086   1.477   0.610  0.0796  0.1857 -0.3404
12583TIP3    H159240   0.122   1.392   0.635 -0.4204  0.2533  0.6280
12583TIP3    H259241   0.145   1.541   0.651 -0.8083  0.2967  0.8075
12584TIP3   OH259242   3.412   0.883  12.896 -0.0991  0.1209  0.7906
12584TIP3    H159243   3.382   0.889  12.805 -0.4382 -0.3260  0.8680
12584TIP3    H259244   3.480   0.949  12.903  0.0007  0.0890  0.1805
12585TIP3   OH259245   1.938   4.421  15.776 -0.5079  0.1758 -0.2433
12585TIP3    H159246   1.850   4.383  15.785 -1.1973  1.7074 -0.2934
12585TIP3    H259247   1.951   4.471  15.856  0.0322  0.5319 -0.5492
12586TIP3   OH259248   4.250   6.691  11.880 -0.5707  0.0082 -0.6299
12586TIP3    H159249   4.336   6.718  11.912 -1.2018  0.9570  0.2723
12586TIP3    H259250   4.241   6.737  11.796 -1.2111  1.8404  0.4138
12587TIP3   OH259251   2.829   5.144   0.434 -0.1472  0.5917 -0.0553
12587TIP3    H159252   2.844   5.235   0.409  0.1677  1.2565  2.4213
12587TIP3    H259253   2.799   5.148   0.525 -0.7411 -1.7404 -0.0980
12588TIP3   OH259254   6.300   3.565  14.560 -0.1619  0.2222  0.0795
12588TIP3    H159255   6.300   3.643  14.614  0.1231  0.8349 -0.7890
12588TIP3    H259256   6.209   3.535  14.560  0.1636 -0.8799  2.4253
12589TIP3   OH259257   1.691   5.994  12.936  0.1080 -0.0245 -0.0402
12589TIP3    H159258   1.749   5.984  13.012  0.3749  0.0623 -0.2331
12589TIP3    H259259   1.660   5.905  12.919  1.5021 -0.3556 -0.9729
12590TIP3   OH259260   6.019   3.493   3.451  0.0935 -0.3223  0.2252
12590TIP3    H159261   6.106   3.471   3.483  0.9695  0.7273 -1.3927
12590TIP3    H259262   5.960   3.444   3.508  1.7064 -0.6171  1.6879
12591TIP3   OH259263   5.844   3.890  13.809  0.8853  0.6092  0.2056
12591TIP3    H159264   5.776   3.957  13.814  0.7712  0.5062  0.0499
12591TIP3    H259265   5.911   3.919  13.870  0.0204 -0.0581  1.4933
12592TIP3   OH259266   2.803   5.839  15.719 -0.4738 -0.4551 -0.5700
12592TIP3    H159267   2.830   5.747  15.720  0.9802 -0.0387  0.0105
12592TIP3    H259268   2.857   5.881  15.787  0.1374  1.1665 -2.0176
12593TIP3   OH259269   6.451   0.622  15.172  0.4870  0.2158 -0.3958
12593TIP3    H159270   6.441   0.578  15.087  0.7547  1.8997 -1.3152
12593TIP3    H259271   6.488   0.707  15.151  0.8024  0.5583  1.4558
12594TIP3   OH259272   0.335   5.538   4.963  0.5348 -0.2263 -0.5775
12594TIP3    H159273   0.268   5.532   4.895  2.7019 -3.2731 -2.5357
12594TIP3    H259274   0.395   5.607   4.932 -0.4629  0.9859  0.1249
12595TIP3   OH259275   0.597   0.833   5.837  0.0190 -0.1696 -0.0514
12595TIP3    H159276   0.658   0.906   5.850 -0.6490  0.8238 -2.2519
12595TIP3    H259277   0.650   0.754   5.848  1.0195  0.6546  1.0857
12596TIP3   OH259278   4.313   1.779   4.961  1.1279  0.1683 -0.3206
12596TIP3    H159279   4.312   1.684   4.946  0.6874 -0.2020  1.8829
12596TIP3    H259280   4.373   1.791   5.034 -0.9888  1.2830  1.2704
12597TIP3   OH259281   2.557   2.916  16.118 -0.1150 -0.6496  0.3948
12597TIP3    H159282   2.487   2.941  16.058  0.7026  1.5478  0.2988
12597TIP3    H259283   2.518   2.921  16.205  0.1614  1.6461  0.4247
12598TIP3   OH259284   4.446   0.326   5.802  0.3719 -0.2245  0.0784
12598TIP3    H159285   4.385   0.311   5.874 -1.4289  0.0498 -1.3548
12598TIP3    H259286   4.468   0.239   5.770  2.1081 -0.4105  1.6772
12599TIP3   OH259287   0.979   6.749   2.596 -0.3335  0.2828  0.2555
12599TIP3    H159288   0.959   6.835   2.635  0.5165 -0.2146  1.8144
12599TIP3    H259289   1.057   6.765   2.542 -1.2652  0.8824 -0.9275
12600TIP3   OH259290   6.316   5.683  14.564  0.0422  0.1784 -0.2049
12600TIP3    H159291   6.371   5.651  14.636 -1.3531  1.5296  1.5217
12600TIP3    H259292   6.365   5.662  14.485  2.1147 -0.4168  1.1898
12601TIP3   OH259293   2.890   3.131  14.694  0.5283 -0.3620 -0.3717
12601TIP3    H159294   2.957   3.064  14.681  0.7027  0.1501 -2.2744
12601TIP3    H259295   2.887   3.144  14.788  1.0474 -2.4837 -0.0350
12602TIP3   OH259296   1.671   1.307   1.303  0.8400  0.2317 -0.2349
12602TIP3    H159297   1.596   1.340   1.354  2.0603  2.0360  0.4305
12602TIP3    H259298   1.726   1.384   1.289  2.0090 -0.8586 -1.7232
12603TIP3   OH259299   4.117   1.914   1.528  0.3879  0.0284  0.0380
12603TIP3    H159300   4.176   1.934   1.600  2.2965  0.2770 -1.5313
12603TIP3    H259301   4.083   1.827   1.548  1.5460 -0.2562  0.8328
12604TIP3   OH259302   0.915   5.889  15.440  0.2529 -0.0473  0.1860
12604TIP3    H159303   0.842   5.948  15.455 -0.1991 -0.4361 -0.4977
12604TIP3    H259304   0.880   5.802  15.457  0.0099 -0.4107 -2.0816
12605TIP3   OH259305   1.171   4.332   3.241 -0.0649  0.7347  0.7628
12605TIP3    H159306   1.152   4.238   3.237 -2.8746  1.2507  0.7598
12605TIP3    H259307   1.172   4.351   3.335 -1.1073  0.9965  0.7216
12606TIP3   OH259308   3.778   4.778   0.972  0.3079  0.7783  0.4731
12606TIP3    H159309   3.759   4.685   0.966 -2.1910  1.1777  1.7480
12606TIP3    H259310   3.872   4.782   0.993  0.2040 -1.4615  1.4919
12607TIP3   OH259311   0.823   5.470  13.994 -0.0696  0.1710  0.3801
12607TIP3    H159312   0.820   5.508  13.906  0.6538 -0.1235  0.2232
12607TIP3    H259313   0.801   5.377  13.981  2.0386 -0.3389  0.2143
12608TIP3   OH259314   4.895   5.439   3.230  0.2469 -0.1661 -0.4202
12608TIP3    H159315   4.880   5.352   3.267 -0.0608 -1.0202 -2.4904
12608TIP3    H259316   4.807   5.474   3.214  0.3793  0.1804 -0.4115
12609TIP3   OH259317   1.492   0.288   1.794  0.2034 -0.7269  0.3277
12609TIP3    H159318   1.567   0.260   1.742 -1.0097  0.9644 -2.4112
12609TIP3    H259319   1.419   0.233   1.764 -0.8274  1.2119 -0.8261
12610TIP3   OH259320   5.418   4.303  16.949  0.5438 -0.2205  0.8589
12610TIP3    H159321   5.359   4.366  16.990  2.6837  1.5158  1.3776
12610TIP3    H259322   5.487   4.289  17.014  0.0717 -3.1776  0.7732
12611TIP3   OH259323   2.585   6.043  16.400  0.0533  0.1601  0.0089
12611TIP3    H159324   2.496   6.054  16.434  0.5382 -0.2548  1.4371
12611TIP3    H259325   2.585   5.955  16.362  0.3135 -0.4995  1.4957
12612TIP3   OH259326   0.089   5.611   2.935 -0.6915  0.5277 -0.5025
12612TIP3    H159327   0.031   5.646   3.003 -0.5708  0.6605 -0.4690
12612TIP3    H259328   0.047   5.637   2.853 -1.0319  0.0514 -0.4830
12613TIP3   OH259329   6.438   5.278   0.906  0.4324 -0.3207  0.1613
12613TIP3    H159330   6.426   5.274   0.811  0.6106 -0.1801  0.1340
12613TIP3    H259331   6.520   5.232   0.922  1.5674  1.6294  0.0272
12614TIP3   OH259332   4.121   5.012   4.814  0.2756 -0.2009  0.1924
12614TIP3    H159333   4.119   4.922   4.847  0.4361 -0.7133 -1.1954
12614TIP3    H259334   4.180   5.010   4.739  0.2920  1.0640  0.1513
12615TIP3   OH259335   3.977   5.313  14.863 -0.2978  0.4535 -0.0038
12615TIP3    H159336   4.009   5.223  14.864  0.2808  0.6596  0.5075
12615TIP3    H259337   4.047   5.363  14.822  0.9522  1.2283  2.9782
12616TIP3   OH259338   6.314   0.746  14.209  0.4007  0.1106  0.7080
12616TIP3    H159339   6.257   0.722  14.137  1.7862  0.3945 -0.5080
12616TIP3    H259340   6.263   0.726  14.288 -1.0176 -0.4521 -0.3332
12617TIP3   OH259341   0.025   2.386  13.068  0.3004 -0.5089  0.1973
12617TIP3    H159342   0.029   2.319  13.000  2.9872  2.1130 -2.3866
12617TIP3    H259343  -0.046   2.444  13.041  0.3181 -0.3512  0.4827
12618TIP3   OH259344   3.355   2.292   4.501  0.2562 -0.6143  0.3982
12618TIP3    H159345   3.419   2.345   4.454 -0.4058  0.1959  0.4161
12618TIP3    H259346   3.338   2.340   4.581  0.2143 -1.2274  0.7590
12619TIP3   OH259347   3.880   2.929  13.689  0.1929 -0.1343  0.7832
12619TIP3    H159348   3.951   2.993  13.682  0.9253 -0.9588  0.5741
12619TIP3    H259349   3.802   2.981  13.709 -0.0832  1.3079 -3.5647
12620TIP3   OH259350   1.859   1.736   4.781  0.0553 -0.2307  0.4856
12620TIP3    H159351   1.837   1.726   4.874  1.5210 -1.2629  0.7322
12620TIP3    H259352   1.920   1.665   4.763 -0.8981 -0.5732 -1.5055
12621TIP3   OH259353   3.731   3.321  12.306 -0.1565 -0.4911  0.3620
12621TIP3    H159354   3.785   3.382  12.255  1.6267 -0.5353  2.1202
12621TIP3    H259355   3.649   3.314  12.257  0.5437  1.4200 -1.1414
12622TIP3   OH259356   1.162   4.503  16.869 -0.2053  0.1258  0.3466
12622TIP3    H159357   1.173   4.588  16.826 -0.3947 -0.3831 -0.7390
12622TIP3    H259358   1.082   4.513  16.921  0.9189  1.2626  1.8889
12623TIP3   OH259359   4.447   3.619   0.462 -0.1562  0.3545  0.0002
12623TIP3    H159360   4.354   3.614   0.438  0.2727 -2.9803 -1.1862
12623TIP3    H259361   4.479   3.696   0.416 -1.8105  0.1922 -1.4839
12624TIP3   OH259362   6.111   0.850  12.177 -0.4190  0.5362 -0.2987
12624TIP3    H159363   6.045   0.899  12.227 -1.2799 -1.5133  0.6401
12624TIP3    H259364   6.191   0.857  12.229 -0.5052  1.0420 -0.2296
12625TIP3   OH259365   1.589   3.114   4.069  0.0341 -0.0269 -0.7513
12625TIP3    H159366   1.653   3.057   4.024 -0.5899  0.0343 -1.7412
12625TIP3    H259367   1.504   3.079   4.042 -0.3630  1.7224 -1.8435
12626TIP3   OH259368   0.446   3.985   2.908  0.1743 -0.3911  0.1775
12626TIP3    H159369   0.440   3.990   2.812  0.7258 -0.7128  0.1224
12626TIP3    H259370   0.360   3.954   2.935  0.4882 -1.7400 -0.3319
12627TIP3   OH259371   2.754   3.439  14.805 -0.9760  0.1184  0.0786
12627TIP3    H159372   2.709   3.436  14.721  1.1158  0.3217 -1.0761
12627TIP3    H259373   2.753   3.349  14.837  1.0397 -0.5837 -1.7244
12628TIP3   OH259374   6.510   2.159   3.231 -0.1387  0.0178 -0.6360
12628TIP3    H159375   6.564   2.129   3.304  0.1116 -0.3280 -0.9620
12628TIP3    H259376   6.509   2.085   3.170 -1.5907 -0.2650 -0.3024
12629TIP3   OH259377   3.822   3.965   5.116  0.6906 -0.3330  0.1076
12629TIP3    H159378   3.737   3.923   5.105 -0.1673  1.7065 -1.6306
12629TIP3    H259379   3.824   3.994   5.207 -0.8163  0.2805 -0.0442
12630TIP3   OH259380   4.669   0.494   6.071  0.7263 -0.3873  0.2339
12630TIP3    H159381   4.601   0.428   6.059 -1.8407  2.5802 -2.0696
12630TIP3    H259382   4.729   0.480   5.998  0.1153 -0.1209 -0.3244
12631TIP3   OH259383   2.005   1.124   6.275 -0.3016 -0.2539 -0.6750
12631TIP3    H159384   2.093   1.090   6.293  0.7352  2.4585 -0.3765
12631TIP3    H259385   1.981   1.171   6.355 -0.8677  1.3217 -1.7523
12632TIP3   OH259386   4.667   4.164   0.485  0.4592 -0.2464 -0.6322
12632TIP3    H159387   4.700   4.169   0.574 -0.2721 -0.8631 -0.3239
12632TIP3    H259388   4.746   4.158   0.430  0.9490  1.2920 -0.1230
12633TIP3   OH259389   1.929   2.546  13.990  0.2353 -0.1220  0.3203
12633TIP3    H159390   1.862   2.520  14.053  0.7669  0.3426  1.0906
12633TIP3    H259391   2.000   2.580  14.044  1.1571 -0.7548 -0.4712
12634TIP3   OH259392   5.601   2.854   3.658 -0.0137 -0.0544  0.0759
12634TIP3    H159393   5.590   2.895   3.572 -1.1206  1.4874  0.9308
12634TIP3    H259394   5.518   2.808   3.673  0.9058 -1.9776 -0.5074
12635TIP3   OH259395   6.337   6.041  15.206  0.3274  0.0871 -0.7997
12635TIP3    H159396   6.262   5.985  15.226  1.1431 -0.4149  0.8981
12635TIP3    H259397   6.393   5.987  15.150  0.3642 -0.2359 -0.4511
12636TIP3   OH259398   5.492   4.628  11.792 -0.0557  0.2131 -0.2604
12636TIP3    H159399   5.549   4.681  11.737 -0.8037  1.5529  0.2427
12636TIP3    H259400   5.437   4.579  11.730  1.6608 -1.1586 -0.7478
12637TIP3   OH259401   0.634   3.618   3.072  0.3642 -0.3544  0.5844
12637TIP3    H159402   0.664   3.543   3.021 -1.3705 -0.2892 -0.5645
12637TIP3    H259403   0.656   3.694   3.017 -0.9520 -0.2468  0.1936
12638TIP3   OH259404   2.337   2.401   2.125  0.0654 -0.2983  0.2703
12638TIP3    H159405   2.429   2.395   2.150  0.0029 -1.2596  0.2799
12638TIP3    H259406   2.333   2.475   2.065  0.9708 -0.7191 -0.3180
12639TIP3   OH259407   3.236   5.599  14.362 -0.2969  0.0603  0.1354
12639TIP3    H159408   3.321   5.643  14.366 -0.8442  1.0009  1.4424
12639TIP3    H259409   3.235   5.543  14.440 -0.3825 -0.8760 -0.5268
12640TIP3   OH259410   0.673   3.240  10.661  0.0964  0.4478 -0.6472
12640TIP3    H159411   0.622   3.166  10.694 -0.4690  0.5080 -1.3825
12640TIP3    H259412   0.755   3.201  10.632 -0.1156  0.1433 -0.8362
12641TIP3   OH259413   0.879   1.474  12.027 -0.0717 -0.3115 -0.0803
12641TIP3    H159414   0.841   1.386  12.017 -1.2655  0.3837 -1.8673
12641TIP3    H259415   0.973   1.460  12.021 -0.2351 -1.5034 -0.0366
12642TIP3   OH259416   3.446   3.101  14.366 -0.1690 -0.1972  0.1216
12642TIP3    H159417   3.509   3.051  14.418  0.4285  0.0862 -0.3354
12642TIP3    H259418   3.386   3.138  14.431  0.0521 -0.5724  0.5449
12643TIP3   OH259419   1.805   3.073  12.134  0.7445 -0.2844  0.8043
12643TIP3    H159420   1.783   3.164  12.155  1.5777  0.0232  0.3443
12643TIP3    H259421   1.854   3.042  12.209  0.1636 -0.4660  1.1129
12644TIP3   OH259422   5.498   5.453  14.270  0.2381  0.9612  0.0032
12644TIP3    H159423   5.472   5.535  14.228  0.1077  1.7696  1.5961
12644TIP3    H259424   5.415   5.410  14.290  0.0811  2.7144  3.4912
12645TIP3   OH259425   3.097   0.639   2.168  0.8766 -0.0642  0.5288
12645TIP3    H159426   3.041   0.614   2.241  0.5366 -0.1011  0.2558
12645TIP3    H259427   3.139   0.557   2.140  0.2653 -0.2243  0.0604
12646TIP3   OH259428   0.779   4.759   3.130  0.5512 -0.1775 -0.0949
12646TIP3    H159429   0.860   4.810   3.129 -2.0955  4.3743  0.4315
12646TIP3    H259430   0.755   4.752   3.223 -0.2706 -0.3941 -0.3111
12647TIP3   OH259431   0.375   0.244   5.621  0.0464  0.1497 -0.5477
12647TIP3    H159432   0.356   0.337   5.609 -1.8698 -0.2613 -0.7549
12647TIP3    H259433   0.375   0.207   5.533  0.4156 -0.1195 -0.4347
12648TIP3   OH259434   0.731   1.614   5.022 -0.0141 -0.4258  0.3235
12648TIP3    H159435   0.703   1.564   4.944 -1.2472  0.6314  0.0717
12648TIP3    H259436   0.794   1.557   5.065  0.0260 -1.4068 -0.9899
12649TIP3   OH259437   3.959   6.795   2.182  0.4609  0.1492  0.2506
12649TIP3    H159438   4.014   6.850   2.237  2.0724 -1.9246  0.8144
12649TIP3    H259439   3.906   6.744   2.243  0.7426 -0.6521 -0.1528
12650TIP3   OH259440   1.819   0.190   0.852 -0.5796  0.5947  0.4357
12650TIP3    H159441   1.819   0.154   0.941 -2.1326 -1.5581 -0.4062
12650TIP3    H259442   1.757   0.135   0.804  1.3816  0.7583 -2.3813
12651TIP3   OH259443   6.468   0.080  16.862 -0.1951 -0.5753 -0.1720
12651TIP3    H159444   6.490   0.025  16.937  1.3565 -0.6153 -0.6332
12651TIP3    H259445   6.389   0.127  16.889 -0.2031 -1.3000  1.1082
12652TIP3   OH259446   1.442   3.941  11.882  0.4078 -0.1462  0.0021
12652TIP3    H159447   1.396   3.868  11.840 -2.4910 -0.3063  3.2146
12652TIP3    H259448   1.402   3.948  11.968  2.1792  3.8288  0.6254
12653TIP3   OH259449   0.613   1.990  11.107 -1.1357  0.4638 -0.4575
12653TIP3    H159450   0.544   1.936  11.145 -0.1565 -0.3433  0.2375
12653TIP3    H259451   0.658   2.028  11.182 -1.0248  1.2352 -0.9091
12654TIP3   OH259452   1.455   3.652  14.692  0.1300  0.0241  0.6656
12654TIP3    H159453   1.458   3.683  14.602  1.5004 -0.6785  0.4622
12654TIP3    H259454   1.407   3.570  14.687  0.2920 -0.0646  0.5600
12655TIP3   OH259455   4.618   1.461  15.764  0.5810 -0.2882  0.0001
12655TIP3    H159456   4.670   1.440  15.841  1.7259 -3.1978 -1.4476
12655TIP3    H259457   4.529   1.474  15.797  1.1899 -0.7566  1.8897
12656TIP3   OH259458   2.897   1.316  13.160  0.6278 -0.2112  0.0525
12656TIP3    H159459   2.933   1.234  13.195  0.7138 -0.1919  0.0096
12656TIP3    H259460   2.968   1.352  13.106  0.8055  0.1889  0.5484
12657TIP3   OH259461   2.673   0.224  11.656  0.1857 -0.1585 -0.8290
12657TIP3    H159462   2.605   0.265  11.709  0.3589 -0.0608 -0.6848
12657TIP3    H259463   2.666   0.267  11.570 -1.3207 -1.6065 -1.4585
12658TIP3   OH259464   2.674   3.287   3.831  0.0913 -0.7074 -0.7587
12658TIP3    H159465   2.763   3.314   3.810  0.5971 -1.4105  0.3883
12658TIP3    H259466   2.620   3.320   3.759  1.1143  0.6748 -0.9052
12659TIP3   OH259467   4.874   3.528  10.713  0.0178  0.4936 -0.5578
12659TIP3    H159468   4.867   3.486  10.799  0.5982 -0.5896 -1.0278
12659TIP3    H259469   4.962   3.565  10.711  0.2859 -0.1560 -0.9780
12660TIP3   OH259470   0.702   1.467   4.077  0.4828  0.4199 -0.3938
12660TIP3    H159471   0.648   1.533   4.033 -1.7206 -0.5331  0.7967
12660TIP3    H259472   0.686   1.387   4.027  1.3387  0.2580 -0.4206
12661TIP3   OH259473   1.308   2.580   6.145 -0.4110  0.0551  0.1705
12661TIP3    H159474   1.328   2.541   6.230 -2.0639 -1.8219 -0.2611
12661TIP3    H259475   1.254   2.656   6.165  1.5775  1.3267  0.9322
12662TIP3   OH259476   3.992   2.542   2.348 -0.3444  0.3481  0.3692
12662TIP3    H159477   3.950   2.554   2.263 -0.2626 -1.0583  0.1269
12662TIP3    H259478   3.979   2.450   2.369  0.9296  0.3398  1.2030
12663TIP3   OH259479   2.311   4.352  17.037 -0.6084 -0.2677  0.6366
12663TIP3    H159480   2.242   4.323  17.097 -1.9248 -0.0618 -0.7740
12663TIP3    H259481   2.363   4.273  17.020 -2.4191 -1.1504 -0.8570
12664TIP3   OH259482   3.483   1.912  11.837  0.5943  0.4743  0.5995
12664TIP3    H159483   3.540   1.943  11.766 -0.3196 -2.2576 -1.4201
12664TIP3    H259484   3.539   1.911  11.914  2.7500 -0.2984 -0.9207
12665TIP3   OH259485   4.552   2.456  13.339  0.0976  0.3866 -0.3060
12665TIP3    H159486   4.617   2.416  13.282 -0.4164 -3.5144  1.6828
12665TIP3    H259487   4.469   2.442  13.295  0.0707  0.7100 -0.3625
12666TIP3   OH259488   4.260   5.748  13.862 -0.3395 -0.2403 -0.0201
12666TIP3    H159489   4.195   5.679  13.880  0.9279 -1.5857 -0.5537
12666TIP3    H259490   4.217   5.805  13.798 -1.0283 -1.0918 -0.3312
12667TIP3   OH259491   2.341   5.858  15.919 -0.2689  0.7954 -0.3734
12667TIP3    H159492   2.277   5.847  15.988  1.3614 -0.4682  0.9820
12667TIP3    H259493   2.294   5.838  15.838 -1.8956  1.2076  0.4652
12668TIP3   OH259494   0.044   6.480  11.284 -0.1179  0.5922  0.1156
12668TIP3    H159495   0.024   6.418  11.214 -1.3091 -1.7938  2.4987
12668TIP3    H259496   0.032   6.566  11.243 -0.3461 -0.7152 -2.7188
12669TIP3   OH259497   0.213   3.758  15.375  0.4607 -0.3298  0.5739
12669TIP3    H159498   0.163   3.730  15.452 -0.8249  0.5360  0.0723
12669TIP3    H259499   0.147   3.783  15.311  1.5266  2.0265  0.3254
12670TIP3   OH259500   1.433   4.529   2.368  0.2999 -0.3820  0.1397
12670TIP3    H159501   1.438   4.566   2.280  1.3563 -1.0794 -0.1094
12670TIP3    H259502   1.516   4.555   2.409  0.5659 -1.5273  0.3321
12671TIP3   OH259503   5.064   4.352   0.359  0.1122  0.4674 -0.2806
12671TIP3    H159504   4.988   4.397   0.396  0.8268  0.8385  0.7440
12671TIP3    H259505   5.112   4.420   0.312 -0.7177  0.0270 -1.7952
12672TIP3   OH259506   6.308   5.794  16.577  0.6234  0.1760  0.2565
12672TIP3    H159507   6.353   5.854  16.637  0.0769 -0.0582  0.9069
12672TIP3    H259508   6.221   5.832  16.565  0.3497 -0.3683  0.4976
12673TIP3   OH259509   0.537   5.491   0.788 -0.1255  0.5652 -0.3337
12673TIP3    H159510   0.514   5.548   0.715  0.9909 -1.0789 -2.0013
12673TIP3    H259511   0.576   5.549   0.853 -3.7630  2.5201  0.2377
12674TIP3   OH259512   1.018   0.714  16.688  0.2312 -0.1924 -0.0262
12674TIP3    H159513   0.998   0.799  16.726  0.9621 -0.2014  0.3819
12674TIP3    H259514   1.007   0.726  16.594  0.3296  0.3476  0.0320
12675TIP3   OH259515   5.071   6.182  14.196 -0.5082 -0.6494 -0.5283
12675TIP3    H159516   5.006   6.112  14.189 -0.5395 -0.7628  0.8019
12675TIP3    H259517   5.151   6.144  14.161 -0.6497 -1.1850 -0.2685
12676TIP3   OH259518   3.533   1.630  10.948 -0.6110 -0.3371 -0.0814
12676TIP3    H159519   3.622   1.605  10.973 -0.1181  1.4293 -0.0056
12676TIP3    H259520   3.535   1.635  10.852 -0.0893  1.5331 -0.0012
12677TIP3   OH259521   3.944   5.503   3.974 -0.1866 -0.4095  0.4463
12677TIP3    H159522   3.875   5.533   3.915 -2.2496 -3.4342  1.1955
12677TIP3    H259523   3.961   5.413   3.947  2.1652 -0.3088  1.4784
12678TIP3   OH259524   5.240   0.663   5.117  0.1169 -0.2674 -0.2013
12678TIP3    H159525   5.196   0.663   5.202  2.2501  0.0722  0.9402
12678TIP3    H259526   5.324   0.621   5.134  0.1053 -1.2597 -2.4220
12679TIP3   OH259527   6.071   3.471   2.406 -0.5650  0.1434 -0.2178
12679TIP3    H159528   6.098   3.398   2.462 -0.5221 -1.4776 -2.2742
12679TIP3    H259529   6.150   3.524   2.395 -0.5237  0.3542  1.0750
12680TIP3   OH259530   1.045   6.672  16.873  0.2690  0.7033 -0.1488
12680TIP3    H159531   1.060   6.667  16.779 -0.0994  0.5919 -0.2036
12680TIP3    H259532   1.047   6.765  16.893 -0.9323  0.8023 -0.4767
12681TIP3   OH259533   3.084   0.973  15.874  0.6078  0.0001 -0.1622
12681TIP3    H159534   3.029   0.903  15.840 -0.6730  1.1748 -0.5282
12681TIP3    H259535   3.027   1.023  15.931  1.4413  0.9282 -0.1297
12682TIP3   OH259536   1.936   3.974  12.623 -0.1632  0.1446  0.5765
12682TIP3    H159537   1.940   3.884  12.656  2.5232  0.1335  0.3228
12682TIP3    H259538   2.004   3.977  12.556  0.0529  2.4772  0.8754
12683TIP3   OH259539   0.787   3.045   4.304  0.1112  0.1447  0.1390
12683TIP3    H159540   0.713   2.985   4.314 -2.0855  2.6941 -0.1695
12683TIP3    H259541   0.857   2.990   4.268 -1.7767 -2.2415 -0.0875
12684TIP3   OH259542   4.252   1.485   0.725 -0.1514  0.1543  0.1962
12684TIP3    H159543   4.241   1.575   0.695 -0.9185  0.0315  0.0804
12684TIP3    H259544   4.239   1.432   0.646  0.8277 -0.0309  0.1589
12685TIP3   OH259545   6.610   2.769  12.629  0.0637  0.2553 -0.1418
12685TIP3    H159546   6.604   2.861  12.655  0.5542  0.7038 -1.5849
12685TIP3    H259547   6.519   2.740  12.623 -0.1615  1.1782 -1.4900
12686TIP3   OH259548   4.791   2.649   4.841 -0.4918  0.0601 -0.0129
12686TIP3    H159549   4.771   2.590   4.913  1.7829  0.0365  0.6464
12686TIP3    H259550   4.808   2.592   4.766 -0.6546 -0.0090  0.0038
12687TIP3   OH259551   0.773   4.486   4.128  0.2641  0.3305  0.2085
12687TIP3    H159552   0.811   4.570   4.103  0.2097  0.6680  1.2005
12687TIP3    H259553   0.742   4.447   4.046 -1.3952  2.1289 -0.0652
12688TIP3   OH259554   2.635   6.091   3.213 -0.3325  0.2882  0.1167
12688TIP3    H159555   2.620   6.022   3.148 -2.3095  0.7299  0.0712
12688TIP3    H259556   2.557   6.147   3.206  0.5669  1.6875  1.1809
12689TIP3   OH259557   6.020   6.115  11.451 -0.0467  0.1658 -0.3265
12689TIP3    H159558   6.022   6.182  11.383  0.1129 -0.3698 -0.8547
12689TIP3    H259559   6.110   6.082  11.455  0.6539  2.2836  2.2517
12690TIP3   OH259560   0.315   6.497  14.383 -0.0655 -0.4232 -0.0133
12690TIP3    H159561   0.336   6.490  14.290 -0.1089 -2.2429  0.0879
12690TIP3    H259562   0.228   6.459  14.392 -1.3091  2.3956  0.3638
12691TIP3   OH259563   2.707   0.580  16.780  0.1773  0.3987 -0.2855
12691TIP3    H159564   2.627   0.533  16.757  0.7232  0.0505 -1.4750
12691TIP3    H259565   2.771   0.511  16.801  0.5741  0.6416 -0.6807
12692TIP3   OH259566   3.008   0.993  16.281 -0.0216  0.1561  0.1261
12692TIP3    H159567   2.934   1.031  16.327 -0.4329  0.0834 -0.4654
12692TIP3    H259568   2.977   0.980  16.191  0.5301 -0.3705  0.0028
12693TIP3   OH259569   5.883   5.782   5.392  0.1534 -0.5195  0.9442
12693TIP3    H159570   5.881   5.726   5.314 -2.0665  2.1362 -1.0124
12693TIP3    H259571   5.965   5.831   5.384  0.8177 -1.5780  1.2533
12694TIP3   OH259572   4.102   2.541  15.440 -0.4573  0.2190 -0.5240
12694TIP3    H159573   4.102   2.474  15.509  2.0017 -0.0192 -0.6887
12694TIP3    H259574   4.094   2.492  15.358 -0.8551  0.3053 -0.5382
12695TIP3   OH259575   5.810   6.144  15.108  0.3958  0.5278  0.1204
12695TIP3    H159576   5.815   6.075  15.173 -1.1467  1.8845  1.7236
12695TIP3    H259577   5.730   6.192  15.129  0.5726  1.8239 -1.9517
12696TIP3   OH259578   4.671   0.576   4.109  0.7492  0.0369  0.0883
12696TIP3    H159579   4.603   0.561   4.175 -0.6376  1.0075 -1.0682
12696TIP3    H259580   4.743   0.519   4.134 -0.4482 -0.9118  1.4351
12697TIP3   OH259581   0.173   0.817   4.588 -0.9808  0.4030 -0.0057
12697TIP3    H159582   0.114   0.746   4.613 -0.2389 -0.0542  0.4691
12697TIP3    H259583   0.179   0.872   4.666  0.7982 -0.6498  0.6197
12698TIP3   OH259584   5.692   4.995  12.406 -0.0736 -0.6486  0.2684
12698TIP3    H159585   5.769   4.959  12.450  1.1682  0.5649 -0.8126
12698TIP3    H259586   5.690   4.949  12.322 -1.2920 -1.5818  0.7984
12699TIP3   OH259587   1.371   6.343   0.783 -0.2149 -0.2716  0.1829
12699TIP3    H159588   1.319   6.401   0.840  0.0747  0.6780 -0.5181
12699TIP3    H259589   1.461   6.355   0.812 -0.2299 -0.9476  0.5317
12700TIP3   OH259590   0.763   0.647   0.553 -0.4450 -0.2797 -0.3322
12700TIP3    H159591   0.719   0.731   0.565 -0.1244 -0.1351 -0.1495
12700TIP3    H259592   0.700   0.582   0.585 -0.2884 -0.0262  0.5089
12701TIP3   OH259593   2.372   0.349   4.708 -0.4456 -0.2173  0.3940
12701TIP3    H159594   2.312   0.401   4.761  0.0195 -0.7420  1.4564
12701TIP3    H259595   2.353   0.374   4.617 -1.7771  0.1317  0.7620
12702TIP3   OH259596   5.644   5.578  16.703 -0.5415 -0.2001  0.4782
12702TIP3    H159597   5.631   5.578  16.608  0.4098  1.6657  0.3065
12702TIP3    H259598   5.671   5.489  16.724 -1.0011 -0.6917 -0.9801
12703TIP3   OH259599   1.980   0.398   2.691  0.8098 -0.1376 -0.4549
12703TIP3    H159600   1.999   0.478   2.740  2.1280 -1.0605  0.5605
12703TIP3    H259601   1.887   0.382   2.707  0.7059  0.7907 -0.0877
12704TIP3   OH259602   5.247   6.256   4.927  0.1541 -0.4897 -0.1483
12704TIP3    H159603   5.232   6.229   5.018  1.3176 -0.5512  0.0254
12704TIP3    H259604   5.323   6.206   4.899  0.7014  0.6291 -0.6843
12705TIP3   OH259605   3.502   4.701  10.965  0.0676  0.5093  0.2871
12705TIP3    H159606   3.577   4.650  10.934 -1.7205 -1.5479 -0.8493
12705TIP3    H259607   3.484   4.763  10.894  0.7318  1.0727  0.6031
12706TIP3   OH259608   4.173   4.659  14.142 -1.0572 -0.3057 -0.1869
12706TIP3    H159609   4.102   4.702  14.095 -0.4626 -0.9443 -1.6848
12706TIP3    H259610   4.239   4.727  14.154 -1.7378  0.1810  0.8449
12707TIP3   OH259611   2.520   4.543   5.734  0.4518  0.3917  0.4505
12707TIP3    H159612   2.553   4.605   5.798  0.7912  0.6876 -0.0119
12707TIP3    H259613   2.581   4.548   5.661 -0.0195  0.1729  0.0324
12708TIP3   OH259614   4.094   3.055   2.544 -0.5905 -0.0234 -0.6613
12708TIP3    H159615   4.169   3.013   2.503  1.0313  0.9164  1.2665
12708TIP3    H259616   4.073   2.999   2.619  1.2384  2.2165  1.5972
12709TIP3   OH259617   6.578   6.414   4.857 -0.5406  0.2646 -0.4180
12709TIP3    H159618   6.548   6.371   4.777  1.6472 -2.8130  0.3393
12709TIP3    H259619   6.520   6.381   4.925  0.8556 -1.1923  0.0904
12710TIP3   OH259620   2.861   2.534   0.327  0.3064  0.3270  0.2903
12710TIP3    H159621   2.816   2.479   0.392 -0.4108  1.1331  0.4847
12710TIP3    H259622   2.932   2.575   0.376  0.1116  0.4961  0.4322
12711TIP3   OH259623   4.511   6.804  16.705 -0.1280  0.5760 -0.2895
12711TIP3    H159624   4.421   6.835  16.706 -0.2191  0.3083 -0.3504
12711TIP3    H259625   4.547   6.833  16.789 -0.9085 -1.2546  0.6931
12712TIP3   OH259626   0.928   6.103   1.916 -0.5062 -0.2534  0.1812
12712TIP3    H159627   0.937   6.151   1.834 -0.0377 -2.2253 -0.9536
12712TIP3    H259628   0.837   6.115   1.942 -0.6619  0.3530 -0.6569
12713TIP3   OH259629   3.548   2.108   2.893  0.0750  0.5520  0.1094
12713TIP3    H159630   3.467   2.154   2.916  0.0544 -1.1724  3.9497
12713TIP3    H259631   3.606   2.125   2.968  1.9535 -1.2203 -0.9177
12714TIP3   OH259632   2.379   0.687  15.477  0.0243  0.0753  0.5765
12714TIP3    H159633   2.314   0.646  15.421  1.4799 -0.9284 -0.4150
12714TIP3    H259634   2.459   0.636  15.463  0.8004  0.7167  2.4511
12715TIP3   OH259635   5.210   6.284   6.537 -0.8859  0.0253  0.1710
12715TIP3    H159636   5.253   6.213   6.584 -0.1253 -0.0662 -0.6326
12715TIP3    H259637   5.229   6.362   6.589  0.4303  0.0145 -0.2528
12716TIP3   OH259638   5.016   3.327   6.040 -0.0472 -0.7621 -0.0734
12716TIP3    H159639   5.074   3.396   6.069  0.6487 -1.8354  1.1495
12716TIP3    H259640   5.074   3.260   6.002 -0.9027  0.5726 -4.0425
12717TIP3   OH259641   3.748   3.194  14.255 -0.3747  0.2848  0.0177
12717TIP3    H159642   3.775   3.133  14.324 -1.6206 -0.6783 -0.3293
12717TIP3    H259643   3.690   3.256  14.299 -1.5038 -0.5787 -0.2367
12718TIP3   OH259644   6.565   5.063  12.894 -0.0583  0.1375  0.4696
12718TIP3    H159645   6.534   5.138  12.843 -1.2714  0.3979  1.5468
12718TIP3    H259646   6.592   4.998  12.829  1.3116  1.6123 -0.4862
12719TIP3   OH259647   3.480   5.275   4.857 -0.4255  0.2709 -0.3061
12719TIP3    H159648   3.543   5.208   4.884 -1.0432  0.0653  0.6743
12719TIP3    H259649   3.462   5.255   4.765  0.8694  0.2907 -0.5733
12720TIP3   OH259650   0.828   0.844  15.602 -0.0611 -0.2436 -0.4161
12720TIP3    H159651   0.749   0.825  15.653  1.1563 -1.9313  0.9235
12720TIP3    H259652   0.900   0.821  15.661  1.5108  3.5236 -0.7134
12721TIP3   OH259653   5.007   2.251  14.609  0.2489 -0.5822  0.7603
12721TIP3    H159654   5.097   2.241  14.639  0.8379  1.5767 -0.1829
12721TIP3    H259655   5.004   2.207  14.524  0.9000  0.8651 -0.0269
12722TIP3   OH259656   0.205   3.867   2.484  0.2207  0.1562 -0.3531
12722TIP3    H159657   0.162   3.815   2.416 -0.2328  0.5614 -0.3775
12722TIP3    H259658   0.205   3.956   2.450  2.9395 -0.1577 -1.2597
12723TIP3   OH259659   1.167   2.741  10.825  0.2191 -0.5506 -0.6026
12723TIP3    H159660   1.221   2.756  10.747  0.8253 -0.8258 -0.2402
12723TIP3    H259661   1.093   2.689  10.794 -0.0275  0.1255 -1.1732
12724TIP3   OH259662   6.448   5.819   4.239  0.7608 -0.1994 -0.0835
12724TIP3    H159663   6.367   5.789   4.280  1.1136  0.2710  0.9736
12724TIP3    H259664   6.433   5.911   4.219  1.6579  0.3493  1.7235
12725TIP3   OH259665   1.509   4.574  14.050 -0.3089 -0.0185 -0.1370
12725TIP3    H159666   1.435   4.522  14.020 -0.6160 -0.2692  1.0407
12725TIP3    H259667   1.550   4.521  14.118  0.1251  0.7339  0.1954
12726TIP3   OH259668   5.395   0.230  15.682  0.5022  0.8420 -0.0975
12726TIP3    H159669   5.313   0.264  15.717 -0.5477 -0.9795 -0.6961
12726TIP3    H259670   5.463   0.274  15.732 -0.8770  1.4098  1.3188
12727TIP3   OH259671   5.659   2.823   4.102 -0.0263 -0.2646  0.2268
12727TIP3    H159672   5.736   2.767   4.101 -0.6377 -1.2026  2.6054
12727TIP3    H259673   5.674   2.883   4.176 -1.2582 -0.0219  0.2914
12728TIP3   OH259674   3.681   0.618   2.864  0.3179  0.5149 -0.0975
12728TIP3    H159675   3.775   0.603   2.866  0.3013  0.4310  2.2270
12728TIP3    H259676   3.663   0.650   2.776  2.2550 -1.1184 -1.1175
12729TIP3   OH259677   1.012   0.923  16.113  0.8454  0.4451  0.5454
12729TIP3    H159678   0.964   0.943  16.193  0.8500  1.1304  0.3752
12729TIP3    H259679   0.962   0.852  16.072  0.3662  0.6774  0.7227
12730TIP3   OH259680   4.477   6.561   3.423  0.3662  0.3808 -0.6293
12730TIP3    H159681   4.510   6.617   3.493 -0.2392 -0.5082  0.3748
12730TIP3    H259682   4.382   6.566   3.432  0.2885  0.1389 -1.2943
12731TIP3   OH259683   4.225   4.312  14.523 -0.1455  0.0527 -0.6053
12731TIP3    H159684   4.309   4.275  14.495 -0.1262  0.1344 -0.6554
12731TIP3    H259685   4.170   4.235  14.539  0.2214 -0.0196  0.3181
12732TIP3   OH259686   2.650   6.719  11.664  0.5948  0.4609 -0.1021
12732TIP3    H159687   2.688   6.802  11.693  0.5897  0.2182  0.6023
12732TIP3    H259688   2.686   6.653  11.723  0.1704  0.0357 -0.3069
12733TIP3   OH259689   5.712   0.554   0.202  0.1685  0.5716  0.0672
12733TIP3    H159690   5.628   0.600   0.195  0.6476  1.4031 -0.4071
12733TIP3    H259691   5.723   0.512   0.117  1.6541  3.0040 -0.9960
12734TIP3   OH259692   3.700   2.470   5.550 -0.1113  0.3996  0.0629
12734TIP3    H159693   3.696   2.447   5.457  1.0840  0.5207 -0.0309
12734TIP3    H259694   3.609   2.473   5.578 -0.4718  0.1079 -1.0460
12735TIP3   OH259695   3.134   0.810   4.563 -0.1919 -0.3669  0.1743
12735TIP3    H159696   3.053   0.860   4.568 -0.2782 -0.5901  1.2241
12735TIP3    H259697   3.107   0.719   4.554 -0.0307 -0.1925 -2.3909
12736TIP3   OH259698   1.133   3.481   0.183 -0.2115 -0.3773  0.1168
12736TIP3    H159699   1.207   3.427   0.156  0.2772  0.2766  0.1513
12736TIP3    H259700   1.119   3.541   0.109  2.7634  3.1766  2.2756
12737TIP3   OH259701   1.140   4.374  17.210  0.0752  0.0141  0.0567
12737TIP3    H159702   1.209   4.334  17.264  2.2045  2.1952 -0.9699
12737TIP3    H259703   1.063   4.375  17.267  0.8675 -2.4115  1.2571
12738TIP3   OH259704   3.897   6.436  15.876  0.1975 -0.4174 -0.2582
12738TIP3    H159705   3.942   6.410  15.956  0.1558  2.2714  0.6829
12738TIP3    H259706   3.806   6.410  15.891  0.4887 -1.4038 -0.1313
12739TIP3   OH259707   6.708   5.560  14.003  0.5498 -1.0932 -0.3559
12739TIP3    H159708   6.791   5.608  14.003  1.2680 -2.3273 -0.1945
12739TIP3    H259709   6.714   5.502  13.927 -0.5731 -0.5148 -0.9033
12740TIP3   OH259710   4.232   2.200   6.081  0.0557  0.2263 -0.4905
12740TIP3    H159711   4.265   2.182   5.993  1.7244  1.1418 -0.0601
12740TIP3    H259712   4.284   2.145   6.139 -0.5802  0.1337  0.0031
12741TIP3   OH259713   4.898   0.817   5.645  0.1554 -0.0174  0.1943
12741TIP3    H159714   4.955   0.892   5.623  0.7565 -0.3568  0.5881
12741TIP3    H259715   4.958   0.743   5.653 -0.3366 -0.3680  0.6737
12742TIP3   OH259716   2.482   4.086   5.691  0.0464 -0.3090 -0.5565
12742TIP3    H159717   2.521   4.014   5.641  1.4499  0.0293  0.0107
12742TIP3    H259718   2.435   4.138   5.626 -1.1397 -1.8277 -0.9421
12743TIP3   OH259719   5.346   3.848  11.796 -0.6525  0.5162 -0.4728
12743TIP3    H159720   5.310   3.798  11.723 -0.0734 -0.0380 -0.3837
12743TIP3    H259721   5.426   3.801  11.821 -1.3421  0.1570  1.1288
12744TIP3   OH259722   0.839   2.441   2.625  0.4474  0.5317  0.2956
12744TIP3    H159723   0.761   2.408   2.581  3.0252 -0.4711 -3.8575
12744TIP3    H259724   0.861   2.374   2.690 -2.9145  1.5759  2.6391
12745TIP3   OH259725   1.378   5.570   4.685  0.0027 -0.2081  0.2686
12745TIP3    H159726   1.301   5.625   4.697 -0.0194 -0.4711  1.3532
12745TIP3    H259727   1.402   5.542   4.773 -1.5589 -4.0717 -0.4420
12746TIP3   OH259728   6.625   5.210   3.963 -0.3516 -0.0662  0.0862
12746TIP3    H159729   6.709   5.199   3.918  1.0107  1.1377  2.2064
12746TIP3    H259730   6.620   5.136   4.023 -0.8921 -0.2116 -0.1344
12747TIP3   OH259731   4.292   4.253   4.726  0.2663  0.4859 -0.7668
12747TIP3    H159732   4.326   4.169   4.756 -1.1769  0.3948  0.6690
12747TIP3    H259733   4.365   4.314   4.739  0.6112 -0.1211  0.2025
12748TIP3   OH259734   2.923   1.493  16.357 -0.1704  0.0146  0.0015
12748TIP3    H159735   2.963   1.580  16.363  0.9029 -0.4665 -0.1059
12748TIP3    H259736   2.905   1.481  16.263 -0.2988  0.1143  0.0118
12749TIP3   OH259737   1.207   5.371  14.994  0.6867  0.3432  0.6429
12749TIP3    H159738   1.277   5.331  14.941  0.4883  0.6190  0.1640
12749TIP3    H259739   1.253   5.413  15.066  0.8673 -1.1070  1.3889
12750TIP3   OH259740   5.485   5.196  14.523 -0.6066  0.1425 -0.3308
12750TIP3    H159741   5.518   5.195  14.433 -1.5875  0.1614 -0.7068
12750TIP3    H259742   5.420   5.267  14.524  0.6719  1.3194  0.8745
12751TIP3   OH259743   5.627   6.735   0.024  0.0331  0.1047 -0.5071
12751TIP3    H159744   5.661   6.646   0.023  0.2693  0.1903 -0.2523
12751TIP3    H259745   5.684   6.782   0.085  0.2931  0.5788 -1.1061
12752TIP3   OH259746   6.611   1.536   4.534 -0.5243 -0.0028  0.8850
12752TIP3    H159747   6.639   1.604   4.596 -0.4491 -0.1923  1.0614
12752TIP3    H259748   6.689   1.518   4.482 -0.9956  1.2236 -0.2655
12753TIP3   OH259749   1.687   1.929  15.747 -0.0288  0.0521 -0.7691
12753TIP3    H159750   1.663   2.019  15.770 -0.0466 -0.5044  1.4614
12753TIP3    H259751   1.706   1.887  15.831  2.6279 -1.2756 -1.9574
12754TIP3   OH259752   5.114   3.420  15.178 -0.5233  0.1047 -0.1342
12754TIP3    H159753   5.037   3.399  15.125  1.1421  0.5165 -2.8556
12754TIP3    H259754   5.139   3.508  15.150  0.5444  0.2474  1.1923
12755TIP3   OH259755   0.704   3.114  15.261  0.3770 -0.0325 -0.0807
12755TIP3    H159756   0.785   3.068  15.281  0.7239  0.8881  0.7077
12755TIP3    H259757   0.733   3.200  15.229 -0.2048 -1.0422 -3.4607
12756TIP3   OH259758   3.705   0.384   1.468  0.5148  0.0774 -0.2255
12756TIP3    H159759   3.698   0.315   1.534  0.1799 -0.7632 -1.1281
12756TIP3    H259760   3.748   0.342   1.393 -2.6985 -0.1369 -2.0590
12757TIP3   OH259761   5.068   6.616   5.222  0.9394 -0.2413  0.2201
12757TIP3    H159762   5.006   6.560   5.175 -0.6094  1.0580  0.6813
12757TIP3    H259763   5.087   6.566   5.302  0.6476 -0.7520 -0.0198
12758TIP3   OH259764   1.839   4.168   5.790 -0.5918 -0.1971 -0.3904
12758TIP3    H159765   1.920   4.120   5.809 -1.5820 -2.6882 -2.1491
12758TIP3    H259766   1.867   4.258   5.773  1.7734 -1.0000 -0.8498
12759TIP3   OH259767   5.871   5.616   2.787  0.0121 -0.3199  0.1399
12759TIP3    H159768   5.810   5.603   2.715 -0.5675  0.1274  0.5490
12759TIP3    H259769   5.951   5.649   2.745 -1.4026  3.1267  0.0193
12760TIP3   OH259770   6.464   4.179   2.489 -0.2081 -0.0001  0.0958
12760TIP3    H159771   6.498   4.189   2.400  0.9085 -1.0241  0.3881
12760TIP3    H259772   6.370   4.194   2.481 -0.1249 -0.1403 -1.2661
12761TIP3   OH259773   2.005   2.254   4.268 -0.4259 -0.1650  0.2638
12761TIP3    H159774   2.022   2.208   4.350  1.3383 -0.5106 -0.2690
12761TIP3    H259775   1.987   2.184   4.205 -0.7593  0.0374  0.1372
12762TIP3   OH259776   6.482   6.753   2.958 -0.3193 -0.2328 -0.6369
12762TIP3    H159777   6.388   6.767   2.952  0.1023  2.3405 -1.6245
12762TIP3    H259778   6.520   6.840   2.952  2.1117 -1.1772  0.4430
12763TIP3   OH259779   4.597   4.904  17.028 -0.1103  0.6562  0.5993
12763TIP3    H159780   4.587   4.921  16.934 -0.5308 -1.4543  0.2438
12763TIP3    H259781   4.533   4.962  17.070 -0.1167  1.4072 -0.4304
12764TIP3   OH259782   6.022   3.314  16.013 -0.5830  0.2938  0.0054
12764TIP3    H159783   5.950   3.358  16.059 -0.9126 -0.4074  0.1620
12764TIP3    H259784   6.015   3.222  16.039  1.0958  0.4124  0.9677
12765TIP3   OH259785   6.449   3.128   3.676  0.4086 -0.3343  0.2331
12765TIP3    H159786   6.451   3.037   3.645 -0.4965 -0.6984  1.1941
12765TIP3    H259787   6.529   3.138   3.728  0.9580 -0.3015 -0.6038
12766TIP3   OH259788   6.628   2.908   0.613  0.0197 -0.5977  0.4851
12766TIP3    H159789   6.682   2.857   0.673 -0.7501 -1.6713  0.2902
12766TIP3    H259790   6.539   2.900   0.648  0.1398  2.3801  1.6540
12767TIP3   OH259791   4.288   1.274   5.360 -0.0581 -0.1451  0.0687
12767TIP3    H159792   4.239   1.255   5.440  1.4603 -2.9485  0.3929
12767TIP3    H259793   4.267   1.201   5.301  2.2218 -0.4016 -0.4818
12768TIP3   OH259794   6.804   5.213  17.091 -0.0713  0.1313  0.0657
12768TIP3    H159795   6.818   5.229  17.184  0.4660  1.2294 -0.1915
12768TIP3    H259796   6.849   5.131  17.074  3.0064  1.7329  0.0510
12769TIP3   OH259797   5.518   0.793  15.144  0.4100  0.8211 -0.0918
12769TIP3    H159798   5.461   0.720  15.120  1.3182  0.0014  0.1953
12769TIP3    H259799   5.589   0.791  15.080  0.7379  1.0957  0.2546
12770TIP3   OH259800   0.555   0.443   2.949  0.1964 -0.3186 -0.2252
12770TIP3    H159801   0.551   0.539   2.945 -0.1213 -0.2923  0.5704
12770TIP3    H259802   0.463   0.416   2.945  0.2834 -0.5900 -0.3801
12771TIP3   OH259803   2.542   0.354  12.821 -0.6347 -0.2741  0.9488
12771TIP3    H159804   2.517   0.283  12.762 -0.0081  0.1566  0.1448
12771TIP3    H259805   2.459   0.392  12.849 -0.9755 -1.2811  1.3474
12772TIP3   OH259806   2.262   1.110  16.883 -0.1605 -0.2246  0.1414
12772TIP3    H159807   2.216   1.026  16.877  1.1662 -0.8578 -1.5100
12772TIP3    H259808   2.218   1.156  16.955 -1.4931 -1.9557  0.4740
12773TIP3   OH259809   5.055   5.331  14.421  0.0768  0.2028  0.1879
12773TIP3    H159810   5.006   5.413  14.430 -0.0170  0.3984 -1.9130
12773TIP3    H259811   5.027   5.278  14.496  0.4434  2.2164  1.8219
12774TIP3   OH259812   5.795   6.477   1.119  0.2583  0.3004  0.0990
12774TIP3    H159813   5.871   6.501   1.066  1.8231 -1.4533  1.4628
12774TIP3    H259814   5.805   6.529   1.199 -0.7138  1.0636 -0.2767
12775TIP3   OH259815   4.179   0.542  14.333 -0.0754  0.1760  0.3269
12775TIP3    H159816   4.182   0.636  14.316  0.0210  0.0786 -0.2045
12775TIP3    H259817   4.206   0.533  14.424  0.0330  0.6551  0.3402
12776TIP3   OH259818   2.776   3.700  10.816  0.2758  0.0546  0.6002
12776TIP3    H159819   2.819   3.644  10.880  0.1917 -1.4862 -0.6436
12776TIP3    H259820   2.712   3.750  10.867  1.2466 -0.0340  1.9329
12777TIP3   OH259821   3.126   3.107   0.628 -0.0010  0.0595 -0.1530
12777TIP3    H159822   3.092   3.091   0.717  0.8751 -1.8330 -0.1156
12777TIP3    H259823   3.132   3.019   0.589  0.4154  0.7959 -1.7895
12778TIP3   OH259824   3.594   3.800   5.124 -0.6075  0.0248  0.5838
12778TIP3    H159825   3.516   3.771   5.171 -0.0672 -2.3745  0.0509
12778TIP3    H259826   3.660   3.733   5.143  0.4528  0.4932 -1.3138
12779TIP3   OH259827   2.172   5.418  14.233  0.3664  0.3216  0.1149
12779TIP3    H159828   2.230   5.358  14.186  1.7009  2.3167 -0.8382
12779TIP3    H259829   2.096   5.364  14.257  0.6610 -1.2621 -2.3877
12780TIP3   OH259830   5.495   5.771  13.421 -0.2918 -0.0904  0.3301
12780TIP3    H159831   5.505   5.854  13.376 -0.0137 -0.0314  0.5023
12780TIP3    H259832   5.402   5.767  13.444 -0.7162 -0.7399 -1.4368
12781TIP3   OH259833   4.151   5.443   2.729  0.1221 -0.2940 -0.3235
12781TIP3    H159834   4.143   5.486   2.815  1.0444  0.6042 -0.6676
12781TIP3    H259835   4.062   5.440   2.696  0.1994  3.0457 -1.0504
12782TIP3   OH259836   3.250   6.193  11.364 -0.1563  0.3073 -0.0163
12782TIP3    H159837   3.325   6.192  11.424 -0.2820  1.8258  0.1875
12782TIP3    H259838   3.230   6.285  11.351 -0.5607 -0.0150 -1.8897
12783TIP3   OH259839   4.783   3.168  12.651 -0.5818  0.0768  0.4970
12783TIP3    H159840   4.722   3.231  12.613  0.9925  0.7774 -0.8773
12783TIP3    H259841   4.726   3.103  12.693 -2.2600  1.1056 -0.1246
12784TIP3   OH259842   5.030   6.461  14.330 -0.0938 -0.7029  0.1548
12784TIP3    H159843   5.040   6.381  14.279  0.5238  0.2428 -1.2136
12784TIP3    H259844   4.936   6.480  14.325 -0.3057 -1.5316  0.7961
12785TIP3   OH259845   2.796   1.298   0.998  0.1497 -0.1419 -0.1233
12785TIP3    H159846   2.881   1.311   0.955  0.1211 -2.9793 -1.0957
12785TIP3    H259847   2.816   1.287   1.090  0.6578  0.8169 -0.1064
12786TIP3   OH259848   2.034   0.083   1.926  0.0231  0.2662 -0.0233
12786TIP3    H159849   1.940   0.098   1.924  0.0380  0.2535 -0.7604
12786TIP3    H259850   2.055   0.076   2.020 -0.5848  0.9777  0.1660
12787TIP3   OH259851   0.694   4.888  14.377  0.5996 -0.4714 -0.0547
12787TIP3    H159852   0.649   4.804  14.391 -0.7069  0.2220 -0.0277
12787TIP3    H259853   0.646   4.929  14.305 -0.3598  1.3590  1.5979
12788TIP3   OH259854   2.370   2.541   4.967  0.7390  0.6801 -0.2085
12788TIP3    H159855   2.431   2.484   5.014  1.5406  1.3377 -0.4193
12788TIP3    H259856   2.387   2.628   5.002 -0.6535  0.7484  0.2833
12789TIP3   OH259857   0.390   5.567   4.383  0.7502 -0.1174 -0.6713
12789TIP3    H159858   0.428   5.532   4.464 -1.6484 -0.3248  0.4222
12789TIP3    H259859   0.407   5.661   4.388 -0.7630  0.1046  0.9068
12790TIP3   OH259860   4.588   1.000  10.453  0.0029  0.1766  0.5274
12790TIP3    H159861   4.673   0.999  10.498  0.7844  2.4046 -0.8026
12790TIP3    H259862   4.549   1.084  10.476 -1.3072 -0.3103  0.1330
12791TIP3   OH259863   3.535   3.507   2.069 -0.0338  0.6366  0.2710
12791TIP3    H159864   3.509   3.423   2.031  2.3644  0.3420 -0.8135
12791TIP3    H259865   3.458   3.537   2.116 -1.4064 -1.4706 -0.5700
12792TIP3   OH259866   0.236   1.630   3.176 -0.3312  0.1146  0.1816
12792TIP3    H159867   0.308   1.672   3.223  0.7551  0.4479 -1.7159
12792TIP3    H259868   0.263   1.538   3.167 -0.4380  0.0973  0.0315
12793TIP3   OH259869   6.227   2.872  13.744  0.1486 -0.0995  0.1734
12793TIP3    H159870   6.315   2.837  13.763  0.5879  0.7537 -0.2750
12793TIP3    H259871   6.195   2.817  13.672  1.4812  1.4039 -1.6116
12794TIP3   OH259872   4.486   6.669  12.878 -0.2340 -0.3180  0.1610
12794TIP3    H159873   4.493   6.623  12.795  0.4571 -0.3611  0.2452
12794TIP3    H259874   4.505   6.602  12.944 -1.3261 -0.4225  0.3908
12795TIP3   OH259875   3.572   1.769   0.064  0.6024 -0.3859 -0.0228
12795TIP3    H159876   3.508   1.747   0.132  1.8865 -2.3554  0.5573
12795TIP3    H259877   3.569   1.695   0.003  3.4264 -1.2422  0.8259
12796TIP3   OH259878   1.654   6.619  16.029  0.4351 -0.7540 -1.0046
12796TIP3    H159879   1.575   6.616  16.083  0.2633  3.2287 -0.8770
12796TIP3    H259880   1.631   6.573  15.949 -0.9249 -2.4639  0.3358
12797TIP3   OH259881   2.730   4.350   1.285 -0.2269 -0.1605 -0.2355
12797TIP3    H159882   2.819   4.324   1.260  0.3399  2.0702 -0.6545
12797TIP3    H259883   2.676   4.327   1.210  0.0361 -1.3326 -0.0670
12798TIP3   OH259884   1.497   5.600   3.167  0.0640  0.3269 -0.3699
12798TIP3    H159885   1.404   5.596   3.148  0.3213  0.0917 -1.6599
12798TIP3    H259886   1.538   5.552   3.095  1.4679  3.8221 -1.9853
12799TIP3   OH259887   3.714   4.614  11.882 -0.7681 -0.6643  0.0421
12799TIP3    H159888   3.659   4.692  11.876 -0.2602 -0.3607 -0.7272
12799TIP3    H259889   3.754   4.621  11.969 -1.0510 -0.2914  0.1476
12800TIP3   OH259890   4.094   5.201   1.776  0.0878 -0.3683  0.3364
12800TIP3    H159891   4.017   5.152   1.747 -0.7255  0.4355  1.0942
12800TIP3    H259892   4.063   5.251   1.852  1.0980  0.7258  0.0366
12801TIP3   OH259893   6.257   1.504   5.607 -0.4411  0.2670  0.4071
12801TIP3    H159894   6.350   1.492   5.585 -0.8622  1.0861 -2.0010
12801TIP3    H259895   6.258   1.570   5.676  0.7236  1.3009 -0.5543
12802TIP3   OH259896   1.503   3.258  16.700 -0.4776  0.2818  0.5423
12802TIP3    H159897   1.586   3.211  16.693 -0.7536 -0.2767  1.0489
12802TIP3    H259898   1.457   3.217  16.774 -1.3841  0.3141  0.0073
12803TIP3   OH259899   0.975   2.569  16.763 -0.2111  0.2244  0.2680
12803TIP3    H159900   0.909   2.583  16.696  0.9306  0.7989 -0.7659
12803TIP3    H259901   1.048   2.529  16.717  1.4325  2.6153  0.6719
12804TIP3   OH259902   4.966   5.048  13.726 -0.4653 -0.1457 -0.1752
12804TIP3    H159903   4.947   4.964  13.768 -1.1763 -1.3462 -2.7540
12804TIP3    H259904   5.057   5.041  13.698 -0.0757  0.5418  0.8907
12805TIP3   OH259905   2.745   1.659  14.457  0.8578 -0.3778 -0.3898
12805TIP3    H159906   2.795   1.604  14.516  1.0813 -0.0640 -0.2825
12805TIP3    H259907   2.688   1.710  14.514  1.8851  0.7470 -0.3468
12806TIP3   OH259908   5.650   6.005   5.818  0.4650  0.2053  0.3942
12806TIP3    H159909   5.739   5.988   5.786  0.6750  2.2880 -0.2174
12806TIP3    H259910   5.646   6.100   5.827 -2.4675  0.3681 -1.9199
12807TIP3   OH259911   2.885   6.553   1.706 -0.4521 -0.0107  0.6174
12807TIP3    H159912   2.911   6.645   1.709 -0.2477 -0.0536  0.2416
12807TIP3    H259913   2.793   6.553   1.735 -1.2797  0.6460 -1.8449
12808TIP3   OH259914   3.143   1.329  14.299  0.7273  0.2799  0.2484
12808TIP3    H159915   3.054   1.350  14.270  0.3907  2.3257  2.5951
12808TIP3    H259916   3.142   1.345  14.393  2.3857 -4.0678  1.1078
12809TIP3   OH259917   5.741   4.718   3.132  0.5329  0.1339 -0.3787
12809TIP3    H159918   5.785   4.804   3.128  0.0325  0.4416  0.5853
12809TIP3    H259919   5.654   4.734   3.096 -0.3099  0.5327  1.7689
12810TIP3   OH259920   6.236   1.708   3.312  0.0670  0.3634 -0.2059
12810TIP3    H159921   6.261   1.789   3.357  0.8033  0.1464 -0.2049
12810TIP3    H259922   6.206   1.736   3.226  2.9050  0.4476 -1.2234
12811TIP3   OH259923   2.814   0.877  11.149 -0.6895 -0.3800  0.5285
12811TIP3    H159924   2.732   0.828  11.154 -1.3384  0.5558 -0.7170
12811TIP3    H259925   2.858   0.845  11.070 -0.9407  0.7642 -0.0815
12812TIP3   OH259926   1.581   6.207   5.309 -0.3251  0.0709  0.2521
12812TIP3    H159927   1.504   6.182   5.259  0.4311 -0.8704 -0.4555
12812TIP3    H259928   1.610   6.289   5.268 -1.1245  0.6060  0.7332
12813TIP3   OH259929   5.486   3.878  15.523  0.3981 -0.1328 -0.2381
12813TIP3    H159930   5.419   3.810  15.533 -0.0590 -0.0975 -2.6627
12813TIP3    H259931   5.438   3.960  15.528  0.5247 -0.0684 -0.1061
12814TIP3   OH259932   0.656   2.617   2.701 -0.2051  0.1313 -0.2529
12814TIP3    H159933   0.737   2.573   2.675  0.3651  0.0810  1.5215
12814TIP3    H259934   0.684   2.703   2.732 -0.7777 -0.0011  0.6643
12815TIP3   OH259935   2.921   1.217  16.482  0.1929 -0.2377 -0.1649
12815TIP3    H159936   2.882   1.288  16.533 -0.8631  0.9749 -2.5645
12815TIP3    H259937   3.015   1.223  16.499 -0.1322  0.1171  1.6151
12816TIP3   OH259938   3.895   0.334   4.957  0.0602 -0.4992 -0.1742
12816TIP3    H159939   3.809   0.295   4.946  0.1887 -1.3968  1.7424
12816TIP3    H259940   3.888   0.384   5.039  0.4526  1.9850 -1.5920
12817TIP3   OH259941   5.437   3.238   0.844  0.3423  0.3673  0.1109
12817TIP3    H159942   5.369   3.252   0.910  0.3902 -0.8650  0.4250
12817TIP3    H259943   5.408   3.289   0.768 -0.5255  0.4937  0.5253
12818TIP3   OH259944   0.565   4.662   5.210 -0.0857  0.5590 -0.6074
12818TIP3    H159945   0.648   4.628   5.176 -0.1718 -0.5068  0.2080
12818TIP3    H259946   0.588   4.745   5.252  0.7645 -0.2198  0.5128
12819TIP3   OH259947   2.866   0.796  14.002  0.1230 -0.5065  0.2365
12819TIP3    H159948   2.947   0.805  13.951 -0.5928 -1.4232 -1.0988
12819TIP3    H259949   2.824   0.717  13.966 -2.8327  1.6149 -1.1792
12820TIP3   OH259950   5.029   2.641  14.556  0.0782 -0.2276  0.0355
12820TIP3    H159951   5.119   2.636  14.590  0.4456 -0.3844 -0.9557
12820TIP3    H259952   5.000   2.729  14.579  0.7852  0.1159 -0.3942
12821TIP3   OH259953   5.837   3.315  16.230  0.4012  0.2744  0.5349
12821TIP3    H159954   5.841   3.335  16.323 -0.0331  0.2523  0.5594
12821TIP3    H259955   5.744   3.297  16.213  0.4266  0.5895  0.0344
12822TIP3   OH259956   4.995   3.639  14.839  0.8302 -0.0524 -0.1059
12822TIP3    H159957   4.997   3.725  14.796 -0.2616  0.1168  0.1665
12822TIP3    H259958   4.911   3.637  14.885  0.5168 -1.5495 -0.7105
12823TIP3   OH259959   6.269   2.832  16.850  0.8881  0.5092  0.0031
12823TIP3    H159960   6.193   2.781  16.823  1.7456 -0.3885 -0.7901
12823TIP3    H259961   6.246   2.866  16.936  0.3179 -1.3179  0.6034
12824TIP3   OH259962   1.238   5.603  14.260 -0.0227  0.2298  0.3105
12824TIP3    H159963   1.181   5.553  14.201  0.6435 -0.8243  0.5501
12824TIP3    H259964   1.282   5.666  14.202 -2.0573  1.6246  0.2646
12825TIP3   OH259965   5.834   3.580   5.662  0.1018  1.1000 -0.1429
12825TIP3    H159966   5.900   3.539   5.606 -1.1316 -0.2821 -0.6049
12825TIP3    H259967   5.760   3.520   5.659 -0.8990  2.2707  0.9788
12826TIP3   OH259968   1.889   6.160   5.678 -0.1483  0.0311 -1.1036
12826TIP3    H159969   1.798   6.173   5.651 -1.0278 -0.4484  1.4376
12826TIP3    H259970   1.882   6.128   5.768  2.4554 -2.8609 -1.8629
12827TIP3   OH259971   4.473   4.615   3.525 -0.0659  1.0421 -0.3796
12827TIP3    H159972   4.491   4.524   3.550 -0.0812  0.3975 -2.5743
12827TIP3    H259973   4.553   4.662   3.548  1.1670 -0.1494 -2.1211
12828TIP3   OH259974   1.161   4.055   2.590  0.5827 -0.9786  0.5737
12828TIP3    H159975   1.143   3.961   2.586  2.2622 -1.3290  0.8846
12828TIP3    H259976   1.210   4.073   2.510 -1.9780  0.1562 -0.7749
12829TIP3   OH259977   3.785   0.669  16.188  0.6794  0.3820 -0.3447
12829TIP3    H159978   3.853   0.701  16.127  0.5197  1.8874  0.2332
12829TIP3    H259979   3.731   0.746  16.205  0.3546 -0.1832  1.2270
12830TIP3   OH259980   3.514   1.659  10.676  0.4783  0.0170  0.2783
12830TIP3    H159981   3.575   1.601  10.631 -0.7048  0.6615 -2.2408
12830TIP3    H259982   3.471   1.708  10.606 -0.5879  1.9051  2.1868
12831TIP3   OH259983   0.958   1.823   4.490  0.0656 -0.7344 -0.1579
12831TIP3    H159984   0.917   1.782   4.566  1.3416 -0.6184  0.6225
12831TIP3    H259985   1.040   1.774   4.479 -0.1730 -0.8440 -1.5598
12832TIP3   OH259986   1.647   1.174  11.851  0.1531  0.3042  0.1795
12832TIP3    H159987   1.702   1.110  11.896 -0.9073  0.0631  1.1487
12832TIP3    H259988   1.654   1.150  11.758  0.4140 -0.7144  0.4522
12833TIP3   OH259989   3.596   3.959   4.479 -0.1037 -0.4231  0.0182
12833TIP3    H159990   3.627   3.991   4.564  0.4767 -1.7070  0.2994
12833TIP3    H259991   3.515   4.007   4.463 -1.6008 -2.0582  2.5099
12834TIP3   OH259992   1.663   0.332   1.400 -0.2749 -0.3557 -0.2765
12834TIP3    H159993   1.676   0.352   1.307  0.2900 -2.0073 -0.5727
12834TIP3    H259994   1.689   0.412   1.446  1.2586 -0.1650 -1.4430
12835TIP3   OH259995   1.758   2.893   1.294  0.9521 -0.6094 -0.2545
12835TIP3    H159996   1.828   2.957   1.292  1.9698 -1.6864  0.4087
12835TIP3    H259997   1.799   2.812   1.325  0.0758 -2.0433 -2.6264
12836TIP3   OH259998   6.063   2.788  14.376  0.5638 -0.5315  0.2701
12836TIP3    H159999   6.093   2.711  14.327  0.2732 -0.9102  0.6903
12836TIP3    H260000   6.134   2.808  14.437  0.4719 -0.6973  0.4296
12837TIP3   OH260001   4.783   0.943   0.708 -0.7040 -0.3942 -0.1098
12837TIP3    H160002   4.754   0.874   0.648 -1.4025 -0.3903  0.2199
12837TIP3    H260003   4.707   0.999   0.719  0.0956  0.9265 -1.0423
12838TIP3   OH260004   4.378   0.986   0.786  0.1904 -0.1314  0.4852
12838TIP3    H160005   4.411   1.075   0.779 -0.1989 -0.0041  0.2088
12838TIP3    H260006   4.311   0.980   0.717 -0.3770 -0.3696  1.0521
12839TIP3   OH260007   5.596   6.207   5.018 -0.0767  0.3072  0.1200
12839TIP3    H160008   5.604   6.169   4.930  4.6465  2.8933 -0.7003
12839TIP3    H260009   5.660   6.159   5.071 -1.4114  0.2066  1.6875
12840TIP3   OH260010   6.224   0.011   2.672  0.3451 -0.0775  0.3365
12840TIP3    H160011   6.185  -0.066   2.632 -0.5460  0.1130  0.8250
12840TIP3    H260012   6.223  -0.007   2.766  0.2634  0.4731  0.4442
12841TIP3   OH260013   6.568   0.446   2.750  0.4021 -0.5307  0.2822
12841TIP3    H160014   6.499   0.381   2.761  0.0474 -0.3145 -0.6709
12841TIP3    H260015   6.604   0.430   2.663  1.9648 -1.0232  0.9975
12842TIP3   OH260016   0.008   5.758   5.763 -0.3972 -0.3694  0.1643
12842TIP3    H160017   0.048   5.677   5.793  0.1410  0.1047  0.7326
12842TIP3    H260018  -0.048   5.785   5.835  2.1604  1.6444  1.4955
12843TIP3   OH260019   2.513   4.794  16.058  0.2993 -0.0263 -0.1688
12843TIP3    H160020   2.553   4.836  15.981 -0.5904  1.6087  0.2310
12843TIP3    H260021   2.419   4.810  16.048  0.2667  1.2277  1.8277
12844TIP3   OH260022   5.917   0.069   4.217  0.7369 -0.3487 -0.1675
12844TIP3    H160023   5.873   0.076   4.302 -2.4720 -0.5663 -1.7304
12844TIP3    H260024   5.935  -0.025   4.207  0.7297 -0.3782  0.1040
12845TIP3   OH260025   6.672   0.583  13.120 -0.2780  0.2269  0.0556
12845TIP3    H160026   6.727   0.611  13.047  1.2648  1.1693  1.5534
12845TIP3    H260027   6.709   0.499  13.147  0.6124  0.9893  1.2385
12846TIP3   OH260028   3.158   3.796   5.367 -0.7830  0.7589 -0.5277
12846TIP3    H160029   3.121   3.865   5.313 -2.9857 -0.6345 -0.8476
12846TIP3    H260030   3.086   3.767   5.423  0.4497 -0.4062  0.5042
12847TIP3   OH260031   5.876   5.993  12.204 -0.6413 -0.7299 -0.2163
12847TIP3    H160032   5.798   5.941  12.186 -2.5612  1.0385  2.6229
12847TIP3    H260033   5.889   5.985  12.299  1.0795  1.1133 -0.2620
12848TIP3   OH260034   3.801   1.290   0.409  0.1708 -0.4064 -0.2989
12848TIP3    H160035   3.850   1.213   0.379  0.7276  0.2661 -1.1329
12848TIP3    H260036   3.814   1.355   0.340 -1.8446 -0.1823 -0.5095
12849TIP3   OH260037   3.017   4.802  13.442 -0.1133 -0.0021 -0.1831
12849TIP3    H160038   3.089   4.767  13.389  0.6697 -0.0125  0.8646
12849TIP3    H260039   3.050   4.886  13.474  0.6662 -1.3932  2.8113
12850TIP3   OH260040   2.386   1.079  15.354 -0.2665 -0.2011 -0.0580
12850TIP3    H160041   2.447   1.145  15.321 -0.0202 -1.1347 -1.5227
12850TIP3    H260042   2.439   1.000  15.363 -0.7241 -0.3960  0.9925
12851TIP3   OH260043   0.531   3.465  12.326  0.5210 -0.4086 -0.2425
12851TIP3    H160044   0.507   3.405  12.396  0.7705  0.1631  0.3391
12851TIP3    H260045   0.607   3.512  12.359 -0.4499  1.1418 -0.1580
12852TIP3   OH260046   3.230   5.158  15.874  0.7377 -0.0025 -0.4259
12852TIP3    H160047   3.257   5.250  15.883  0.2661  0.1737 -0.7932
12852TIP3    H260048   3.265   5.132  15.789  1.2684 -0.3029 -0.1175
12853TIP3   OH260049   3.402   6.638  15.118 -0.7144  0.0810  0.4863
12853TIP3    H160050   3.380   6.550  15.147  2.4728 -1.5409 -1.6312
12853TIP3    H260051   3.397   6.634  15.022 -0.5479  2.2189  0.3541
12854TIP3   OH260052   4.399   3.056  16.206 -1.1213 -0.0621  0.1132
12854TIP3    H160053   4.467   2.989  16.213 -2.1710 -1.2225 -0.4830
12854TIP3    H260054   4.389   3.090  16.295 -0.9564 -1.1038  0.5331
12855TIP3   OH260055   4.554   4.917  15.195 -0.2888 -0.4929 -0.4253
12855TIP3    H160056   4.625   4.907  15.132  0.3417 -1.1488  0.3815
12855TIP3    H260057   4.541   5.012  15.201  0.3634 -0.3812 -0.7434
12856TIP3   OH260058   0.283   0.700   0.042 -0.4740 -0.5769  0.2195
12856TIP3    H160059   0.296   0.664  -0.045  0.3205  0.6316 -0.1732
12856TIP3    H260060   0.367   0.687   0.087  0.5227  2.6166 -0.6208
12857TIP3   OH260061   3.517   0.693  13.905 -0.7091 -0.4298 -0.8482
12857TIP3    H160062   3.473   0.766  13.949 -0.8195 -1.2797  0.4647
12857TIP3    H260063   3.488   0.615  13.953  1.9574 -1.0500 -0.1787
12858TIP3   OH260064   0.400   3.262   4.857 -0.4984 -0.0376  0.3722
12858TIP3    H160065   0.361   3.334   4.807 -3.0224 -1.0222  0.8493
12858TIP3    H260066   0.357   3.267   4.943  0.2066 -1.3713  0.8105
12859TIP3   OH260067   6.553   2.855   2.574 -0.5521  0.5469  0.4215
12859TIP3    H160068   6.603   2.937   2.577  0.0755  0.2014 -0.3455
12859TIP3    H260069   6.500   2.856   2.654 -2.0246  2.5983 -0.5465
12860TIP3   OH260070   3.301   4.774  15.403 -0.3377 -0.0459  0.1093
12860TIP3    H160071   3.350   4.703  15.361 -0.0175 -0.2624  0.8350
12860TIP3    H260072   3.273   4.736  15.487 -2.4826 -0.2209 -0.6527
12861TIP3   OH260073   1.990   2.592   0.492 -0.2057 -0.3228  0.1630
12861TIP3    H160074   1.908   2.641   0.492  1.0975  1.9143  1.4186
12861TIP3    H260075   1.991   2.547   0.577 -0.3491 -0.7724 -0.0682
12862TIP3   OH260076   2.296   5.786  11.412 -0.2506  0.5418  0.1741
12862TIP3    H160077   2.206   5.781  11.443 -1.3303 -0.0192 -2.8702
12862TIP3    H260078   2.329   5.696  11.417 -0.0997  0.6130  0.5295
12863TIP3   OH260079   3.271   0.910   4.320 -0.6475  0.2181 -0.5401
12863TIP3    H160080   3.266   0.829   4.270  0.3303 -0.4596  0.4124
12863TIP3    H260081   3.227   0.891   4.403 -0.3008  0.6100 -0.2569
12864TIP3   OH260082   1.204   5.919   4.811  0.3742 -0.5792  0.0658
12864TIP3    H160083   1.223   5.918   4.905 -0.1645 -0.6679  0.1775
12864TIP3    H260084   1.192   6.012   4.790  1.1195 -0.5059 -0.0460
12865TIP3   OH260085   1.444   2.766   0.292  0.4458  0.0877  0.8599
12865TIP3    H160086   1.497   2.722   0.226 -0.3696  1.5805 -0.7997
12865TIP3    H260087   1.408   2.695   0.345  0.8435 -1.1338 -0.4909
12866TIP3   OH260088   5.332   6.307   0.166 -0.6906  0.5720  0.2435
12866TIP3    H160089   5.360   6.345   0.249 -0.1217 -0.1218  0.3720
12866TIP3    H260090   5.300   6.220   0.188 -1.2777  0.6855 -0.1550
12867TIP3   OH260091   4.948   3.247  12.140 -0.5000  0.1992  0.0558
12867TIP3    H160092   5.021   3.249  12.078 -0.0491 -0.7469  0.5522
12867TIP3    H260093   4.968   3.318  12.201  0.5212 -0.7019  0.7721
12868TIP3   OH260094   0.969   1.291   0.670  0.0147 -0.1491  0.7130
12868TIP3    H160095   0.910   1.354   0.712  0.1570 -1.4223  2.9019
12868TIP3    H260096   1.037   1.276   0.736  0.7845 -1.4519 -0.3791
12869TIP3   OH260097   4.233   5.879  14.581  0.3991  0.0979 -0.0815
12869TIP3    H160098   4.303   5.937  14.611  0.4648 -0.2950  0.5260
12869TIP3    H260099   4.170   5.937  14.538  1.9914  0.2448 -2.3308
12870TIP3   OH260100   3.175   1.897  17.252 -0.4881  0.0125 -0.3711
12870TIP3    H160101   3.090   1.911  17.210 -0.9590 -2.0436 -0.1366
12870TIP3    H260102   3.186   1.802  17.254  0.9729  0.1888  1.2674
12871TIP3   OH260103   0.196   4.409  16.610 -0.2243  0.0014  0.3784
12871TIP3    H160104   0.111   4.365  16.618  0.5143 -1.3599  0.9975
12871TIP3    H260105   0.241   4.389  16.692  1.2347 -0.4829 -0.5159
12872TIP3   OH260106   4.834   4.966   1.713 -0.1269  0.1348 -0.4517
12872TIP3    H160107   4.822   5.047   1.664 -0.7373  0.7786  0.7374
12872TIP3    H260108   4.924   4.970   1.744 -0.1346  0.3317 -0.4512
12873TIP3   OH260109   0.906   5.086   2.827  0.0119  0.0381  0.9944
12873TIP3    H160110   0.924   5.160   2.770  1.0963  0.1973  1.5304
12873TIP3    H260111   0.977   5.024   2.809 -1.6658 -1.5149 -0.5129
12874TIP3   OH260112   0.881   3.663   5.362 -0.2241 -0.0256 -0.1726
12874TIP3    H160113   0.908   3.620   5.442 -0.1611  2.5000  1.2142
12874TIP3    H260114   0.785   3.666   5.367 -0.1221  2.6803  1.2601
12875TIP3   OH260115   5.479   4.898   4.527 -0.1091 -1.0680  0.0717
12875TIP3    H160116   5.459   4.849   4.447  1.0090 -0.4193 -0.6159
12875TIP3    H260117   5.561   4.860   4.559  1.1762  0.8491 -0.8916
12876TIP3   OH260118   5.092   0.907   5.071  0.7526  0.0453  0.7411
12876TIP3    H160119   5.107   0.922   4.978 -0.1630 -1.4814  0.3327
12876TIP3    H260120   5.140   0.828   5.091 -0.9656 -0.9587  1.0096
12877TIP3   OH260121   3.367   0.001   5.590  0.1097  0.1140  0.5875
12877TIP3    H160122   3.327  -0.061   5.651 -1.3729 -0.0985 -0.5632
12877TIP3    H260123   3.461  -0.006   5.607 -0.3424  0.9878  3.6927
12878TIP3   OH260124   3.588   5.634  12.765 -0.0373 -0.4150  0.2289
12878TIP3    H160125   3.629   5.718  12.782 -3.2526  1.8552 -2.6293
12878TIP3    H260126   3.510   5.655  12.713 -1.3192 -5.0803  0.0422
12879TIP3   OH260127   1.069   1.196  16.398 -0.5006  0.2405 -0.5147
12879TIP3    H160128   0.992   1.142  16.414 -0.0672 -0.3858 -0.5622
12879TIP3    H260129   1.143   1.141  16.422  0.0796 -0.1131 -2.9643
12880TIP3   OH260130   3.781   2.484  17.251  0.1864  0.8206 -0.5085
12880TIP3    H160131   3.701   2.506  17.298  1.1613  2.4846  0.4284
12880TIP3    H260132   3.823   2.569  17.233  2.3147 -0.0719  0.0644
12881TIP3   OH260133   1.614   2.038   4.203  0.4449 -0.2973  0.2576
12881TIP3    H160134   1.519   2.028   4.196  0.4749 -0.6440  0.3474
12881TIP3    H260135   1.626   2.118   4.255  0.2047  0.0942 -0.2786
12882TIP3   OH260136   0.452   2.586   4.755 -0.0475 -0.3064 -0.1155
12882TIP3    H160137   0.357   2.577   4.756 -0.0226 -0.8720 -2.2946
12882TIP3    H260138   0.483   2.512   4.807 -0.6985 -1.4025 -1.2767
12883TIP3   OH260139   0.790   3.603   1.253  0.3934  0.0749  0.0906
12883TIP3    H160140   0.789   3.698   1.241 -0.7079  0.3932  2.4318
12883TIP3    H260141   0.875   3.585   1.293  1.2142 -0.1497 -1.6753
12884TIP3   OH260142   2.808   1.798  12.459  0.6781 -0.1225 -0.1599
12884TIP3    H160143   2.733   1.846  12.423  2.1062  1.8352 -0.6159
12884TIP3    H260144   2.863   1.779  12.383  1.3694 -0.2085  0.3549
12885TIP3   OH260145   4.781   3.578  15.885  0.1086 -0.1798  0.5306
12885TIP3    H160146   4.807   3.493  15.921  0.3625 -0.6585 -0.7558
12885TIP3    H260147   4.699   3.599  15.930 -0.0929 -1.2245  0.6564
12886TIP3   OH260148   6.668   4.304   4.089 -0.0916  0.1389 -0.3627
12886TIP3    H160149   6.726   4.270   4.158  1.0686  1.6057 -0.5904
12886TIP3    H260150   6.652   4.229   4.032  1.3988 -0.3472 -0.1535
12887TIP3   OH260151   2.741   1.990  14.507  0.6244  0.3081 -0.6094
12887TIP3    H160152   2.806   1.927  14.477 -0.2665 -0.9201  0.0121
12887TIP3    H260153   2.730   2.049  14.432  0.8207 -0.7928 -1.5295
12888TIP3   OH260154   6.489   4.628   5.995  0.0287 -0.1964 -0.0213
12888TIP3    H160155   6.516   4.570   6.066  1.2976 -0.1603 -0.4722
12888TIP3    H260156   6.487   4.715   6.036 -0.1316 -0.3064  0.2038
12889TIP3   OH260157   4.699   6.160   5.281  0.4112 -0.7548 -0.0105
12889TIP3    H160158   4.631   6.140   5.346  0.6145 -0.6541  0.2354
12889TIP3    H260159   4.654   6.212   5.215 -0.0406 -1.7481 -0.4825
12890TIP3   OH260160   3.859   6.380   1.270 -0.3029 -0.7875  0.1273
12890TIP3    H160161   3.825   6.326   1.199  0.2035  0.1995 -0.8790
12890TIP3    H260162   3.948   6.349   1.283  0.7563  1.2176 -1.9481
12891TIP3   OH260163   5.867   4.200  13.621  0.3530 -0.2789  0.1156
12891TIP3    H160164   5.886   4.212  13.714 -1.2287  0.5244  0.3527
12891TIP3    H260165   5.879   4.107  13.606 -3.2912 -1.1874  2.1036
12892TIP3   OH260166   2.742   2.447   6.390 -0.4814  0.1493  0.1623
12892TIP3    H160167   2.779   2.503   6.322 -0.3000 -1.1842 -0.8529
12892TIP3    H260168   2.774   2.360   6.369 -1.9763 -0.5848  0.8662
12893TIP3   OH260169   1.494   6.151   0.010  0.0948  0.1162  0.5118
12893TIP3    H160170   1.523   6.116  -0.074 -0.3075 -1.7466  1.1368
12893TIP3    H260171   1.528   6.090   0.075 -0.0908  1.2271  1.6781
12894TIP3   OH260172   2.339   5.443   6.227 -0.3167 -0.0170 -0.0284
12894TIP3    H160173   2.256   5.415   6.265  1.2144 -1.3768  2.4495
12894TIP3    H260174   2.372   5.509   6.289  0.6307  0.2182 -0.7816
12895TIP3   OH260175   2.071   1.996  15.405  0.3815 -0.2439 -0.5635
12895TIP3    H160176   2.056   1.902  15.399  0.8566 -0.2216 -2.3419
12895TIP3    H260177   1.984   2.034  15.414  0.1993 -0.8550  0.3237
12896TIP3   OH260178   5.473   2.183  11.896 -0.3961  0.0088 -0.5751
12896TIP3    H160179   5.487   2.232  11.815 -0.3316  1.4301  0.2762
12896TIP3    H260180   5.557   2.187  11.942 -0.1170 -1.6807 -0.8874
12897TIP3   OH260181   6.319   1.812   0.232 -0.4375 -0.2890  0.2364
12897TIP3    H160182   6.300   1.841   0.143 -1.0680 -0.3599  0.3404
12897TIP3    H260183   6.263   1.867   0.287  1.5925  1.3105  0.7686
12898TIP3   OH260184   6.704   0.205   3.820 -0.1714 -0.8914 -0.1566
12898TIP3    H160185   6.785   0.171   3.857 -0.0761  0.2973  0.7552
12898TIP3    H260186   6.646   0.217   3.895 -0.5119  0.0816 -0.5639
12899TIP3   OH260187   0.283   1.414   1.575 -0.0217 -0.0059  0.0425
12899TIP3    H160188   0.375   1.395   1.555  0.4063  1.9614  0.0733
12899TIP3    H260189   0.246   1.329   1.599  1.6890 -0.8885 -0.3714
12900TIP3   OH260190   6.561   3.874   1.457 -0.6878 -0.0105 -0.3140
12900TIP3    H160191   6.603   3.809   1.513 -0.3415 -0.0190 -0.5836
12900TIP3    H260192   6.472   3.841   1.445 -0.5779 -0.3246 -0.2740
12901TIP3   OH260193   0.531   3.916   6.239  0.1237 -0.3781 -0.7522
12901TIP3    H160194   0.624   3.902   6.257  0.3791  0.4028 -1.3820
12901TIP3    H260195   0.494   3.828   6.232  0.9394 -0.7028 -1.0957
12902TIP3   OH260196   4.535   0.905   3.789  0.4018  0.0955 -0.0974
12902TIP3    H160197   4.567   0.883   3.877  1.6511  2.6436  0.1329
12902TIP3    H260198   4.602   0.870   3.730  1.1851  1.1440  0.1491
12903TIP3   OH260199   2.443   0.175  13.508 -0.2639  0.3459 -0.3722
12903TIP3    H160200   2.528   0.189  13.467 -0.2119  0.7424 -0.1316
12903TIP3    H260201   2.418   0.261  13.541 -0.0933 -0.0558  0.8344
12904TIP3   OH260202   4.558   4.707  16.821  0.1039 -0.4715  0.3342
12904TIP3    H160203   4.516   4.638  16.770 -1.3385  0.6452 -0.0222
12904TIP3    H260204   4.644   4.719  16.779 -0.4685 -0.5989 -0.8922
12905TIP3   OH260205   6.456   3.074  14.501 -0.4651 -0.0291 -0.6347
12905TIP3    H160206   6.449   3.068  14.597  0.7830 -0.1220 -0.5423
12905TIP3    H260207   6.377   3.031  14.468 -1.6494  1.3050  0.3805
12906TIP3   OH260208   5.160   2.704  16.778  0.2813 -0.4775  0.0197
12906TIP3    H160209   5.176   2.765  16.706  0.7824 -1.4187 -0.6742
12906TIP3    H260210   5.077   2.733  16.815  1.9149  2.4744  1.6069
12907TIP3   OH260211   5.896   1.161  11.064 -0.7610  0.4008 -0.2569
12907TIP3    H160212   5.927   1.213  10.989  2.3487 -1.7572 -0.5718
12907TIP3    H260213   5.862   1.081  11.025 -1.0287  0.1292  0.5273
12908TIP3   OH260214   6.092   5.005  13.715 -0.3418 -0.4881  0.7245
12908TIP3    H160215   6.088   4.920  13.673 -2.5607  0.0529 -0.2282
12908TIP3    H260216   6.120   5.065  13.646 -3.5689  0.3290  0.0391
12909TIP3   OH260217   0.718   3.566   3.548 -0.0375  0.0740  0.2427
12909TIP3    H160218   0.650   3.547   3.483  0.1800 -0.3957  0.1506
12909TIP3    H260219   0.732   3.483   3.593 -0.0085  0.3351  0.7273
12910TIP3   OH260220   1.460   1.201  12.834 -0.0445 -0.1213  0.7775
12910TIP3    H160221   1.468   1.118  12.882 -2.1625 -1.8618 -1.7471
12910TIP3    H260222   1.366   1.215  12.828  0.3057  2.8368  1.6719
12911TIP3   OH260223   1.723   5.186   0.695 -0.3340  0.1519 -0.4646
12911TIP3    H160224   1.661   5.234   0.640 -0.4864 -0.1115 -0.5223
12911TIP3    H260225   1.724   5.234   0.778 -1.2422 -0.3295 -0.1735
12912TIP3   OH260226   6.183   3.171  11.465 -0.4898 -0.4098  0.6364
12912TIP3    H160227   6.160   3.244  11.522 -2.0406 -0.8536  0.6011
12912TIP3    H260228   6.130   3.184  11.386  0.6248 -0.5466 -0.1399
12913TIP3   OH260229   4.812   1.292  13.811  0.3568 -0.2865 -0.0234
12913TIP3    H160230   4.852   1.249  13.886 -0.0394 -0.0417  0.3283
12913TIP3    H260231   4.887   1.326  13.761  0.6819 -1.5730 -0.4383
12914TIP3   OH260232   1.291   0.169   0.023 -0.4299  0.1794 -0.0199
12914TIP3    H160233   1.358   0.165  -0.045  1.3191  1.0189  1.5724
12914TIP3    H260234   1.221   0.222  -0.015 -0.0883 -0.5218 -1.6440
12915TIP3   OH260235   4.713   3.597  16.479 -0.5727  0.0877  0.0327
12915TIP3    H160236   4.745   3.681  16.511  0.2982 -0.6691  1.1850
12915TIP3    H260237   4.639   3.619  16.422  0.6321  1.7238 -0.9381
12916TIP3   OH260238   2.925   3.470  11.419  0.0348 -0.3284  0.2834
12916TIP3    H160239   2.933   3.407  11.347 -0.9705 -1.5395  1.2038
12916TIP3    H260240   2.936   3.417  11.498 -2.0338  0.4470  1.1151
12917TIP3   OH260241   3.682   1.423  12.913 -0.3201  0.3861 -0.1585
12917TIP3    H160242   3.656   1.412  13.004 -0.1450  0.5881 -0.0838
12917TIP3    H260243   3.771   1.457  12.917  0.7767 -2.2823 -0.4195
12918TIP3   OH260244   3.323   0.095  14.852  0.0869 -0.0847  0.1182
12918TIP3    H160245   3.399   0.141  14.887  0.2570  0.5932 -1.1324
12918TIP3    H260246   3.278   0.061  14.930  0.2967  1.6536  1.0211
12919TIP3   OH260247   2.975   2.530  14.513  0.0022 -0.0782 -0.2175
12919TIP3    H160248   3.009   2.514  14.425  0.9323 -0.3147  0.1804
12919TIP3    H260249   2.896   2.581  14.499  2.7720  4.2587 -0.9961
12920TIP3   OH260250   3.744   0.969   3.773  0.2727 -0.4025  0.2244
12920TIP3    H160251   3.695   1.048   3.747 -1.1238 -0.1972  3.2116
12920TIP3    H260252   3.692   0.897   3.738 -0.6684 -0.0926  0.9509
12921TIP3   OH260253   6.655   2.609   1.941 -0.4631 -0.5043  0.3698
12921TIP3    H160254   6.598   2.645   1.872 -0.3909 -3.3797 -1.2868
12921TIP3    H260255   6.598   2.603   2.018 -1.3000  0.2708 -0.1696
12922TIP3   OH260256   4.661   1.055  11.743 -0.4106 -0.3014  0.1517
12922TIP3    H160257   4.716   1.000  11.688 -0.2277  0.1581 -0.1265
12922TIP3    H260258   4.720   1.090  11.810 -0.2441  0.6360 -0.4758
12923TIP3   OH260259   1.530   3.051   0.012  0.0841 -0.2045  0.1501
12923TIP3    H160260   1.614   3.065   0.056  0.2975  1.2993 -0.7095
12923TIP3    H260261   1.553   3.034  -0.079 -0.5656  0.5940 -0.1655
12924TIP3   OH260262   1.040   1.672  14.891 -0.2687 -0.5829 -0.1236
12924TIP3    H160263   1.043   1.663  14.796  0.9765 -0.1200 -0.1491
12924TIP3    H260264   1.121   1.629  14.921  2.1439  3.8884  0.2767
12925TIP3   OH260265   5.019   3.861   3.448  0.2668 -0.7942  0.2047
12925TIP3    H160266   4.961   3.937   3.439 -0.6446 -1.2827  1.8542
12925TIP3    H260267   5.090   3.878   3.386  0.3473  1.6656  0.9252
12926TIP3   OH260268   1.184   1.249  10.870  0.2589 -0.2254  0.2122
12926TIP3    H160269   1.114   1.244  10.935 -0.0670 -0.7166 -0.1735
12926TIP3    H260270   1.141   1.231  10.786  1.1471 -2.4802  0.1799
12927TIP3   OH260271   2.189   4.716  15.114  0.4171  0.0623 -0.5172
12927TIP3    H160272   2.140   4.759  15.044 -1.7405 -0.9857  0.3009
12927TIP3    H260273   2.256   4.780  15.139 -0.8484  1.7572 -1.3274
12928TIP3   OH260274   2.205   0.454   3.010  0.0777 -0.3002  0.0244
12928TIP3    H160275   2.212   0.548   3.024  0.7457 -0.1425 -1.2432
12928TIP3    H260276   2.202   0.416   3.097 -1.2698  0.9741  0.5487
12929TIP3   OH260277   5.008   1.882   5.007 -0.1766 -0.1958  0.2752
12929TIP3    H160278   4.913   1.883   5.022 -0.0273 -0.4203  1.2927
12929TIP3    H260279   5.038   1.968   5.037  0.1510 -0.7057  1.4330
12930TIP3   OH260280   0.740   5.089   5.597 -0.1380 -0.1111 -0.0310
12930TIP3    H160281   0.676   5.152   5.630 -2.1008 -1.2387 -1.6067
12930TIP3    H260282   0.809   5.143   5.558 -0.5066  1.0966  0.9402
12931TIP3   OH260283   3.700   2.783   5.183 -0.4987  0.2302  0.1637
12931TIP3    H160284   3.627   2.846   5.186 -2.4384 -1.9522  0.8539
12931TIP3    H260285   3.657   2.698   5.179  2.0693 -1.0974 -0.0167
12932TIP3   OH260286   0.070   0.926  15.822  1.2964 -0.1909 -0.0331
12932TIP3    H160287  -0.008   0.880  15.856  0.5564  1.1616  0.1332
12932TIP3    H260288   0.043   1.018  15.818  2.1714 -0.0095 -2.0607
12933TIP3   OH260289   5.923   2.738  16.983  0.0207  1.2205  0.1566
12933TIP3    H160290   5.896   2.810  17.039 -2.1181 -0.9352  2.0202
12933TIP3    H260291   5.917   2.773  16.894  0.1016  3.6475  1.0861
12934TIP3   OH260292   2.997   4.938  14.088  0.6883  0.3766 -0.1928
12934TIP3    H160293   2.981   4.856  14.134 -0.8552  0.0895 -1.1799
12934TIP3    H260294   3.073   4.922  14.034  0.3839 -0.4119 -0.3846
12935TIP3   OH260295   0.317   2.834  17.265  0.1419  0.0260  0.1837
12935TIP3    H160296   0.396   2.853  17.315 -0.0841 -1.9685  1.3403
12935TIP3    H260297   0.349   2.795  17.184  0.3757 -0.3111  0.4342
12936TIP3   OH260298   1.350   5.175   5.524 -1.1099 -0.4331  0.6626
12936TIP3    H160299   1.261   5.158   5.555 -0.3412 -0.5928  2.9165
12936TIP3    H260300   1.359   5.270   5.529 -0.9639 -0.4643  0.9885
12937TIP3   OH260301   1.434   3.142  12.008  0.0559  0.4415  0.2518
12937TIP3    H160302   1.412   3.224  11.965 -1.6755  0.0743  0.3897
12937TIP3    H260303   1.499   3.101  11.951 -1.2018  0.5927 -1.3102
12938TIP3   OH260304   1.445   3.654  15.434  0.4784  0.0293  0.6138
12938TIP3    H160305   1.438   3.650  15.339  0.7898  0.1772  0.5851
12938TIP3    H260306   1.523   3.602  15.455  0.7773  0.5211  0.7370
12939TIP3   OH260307   3.582   3.190   3.883 -0.1974 -0.0371  0.6264
12939TIP3    H160308   3.636   3.263   3.853  0.6739 -1.2387 -0.7671
12939TIP3    H260309   3.500   3.199   3.834  1.1899 -1.9433 -2.1405
12940TIP3   OH260310   6.591   1.638  11.393 -0.8173 -0.4364 -0.0799
12940TIP3    H160311   6.529   1.585  11.443 -1.6492  0.7746  0.2003
12940TIP3    H260312   6.599   1.593  11.309 -2.9014 -0.0718 -0.5123
12941TIP3   OH260313   4.045   3.390  12.083 -0.3095 -0.4985 -0.2009
12941TIP3    H160314   4.070   3.474  12.120  1.8687 -1.0432 -0.3534
12941TIP3    H260315   4.034   3.332  12.158  1.7496 -0.9826 -0.2403
12942TIP3   OH260316   4.541   4.589   3.135 -0.3604 -0.0648  0.2502
12942TIP3    H160317   4.509   4.560   3.049 -1.2134  2.1839 -0.2131
12942TIP3    H260318   4.563   4.681   3.123  1.7434 -0.3112  1.8606
12943TIP3   OH260319   0.431   6.590   4.981  0.1636 -0.2621  0.1655
12943TIP3    H160320   0.390   6.635   4.906 -1.7198 -2.2215 -0.0495
12943TIP3    H260321   0.412   6.497   4.966  0.0087 -0.7110  2.9323
12944TIP3   OH260322   2.267   4.490  16.148  0.0564 -0.2013  0.1966
12944TIP3    H160323   2.266   4.533  16.233  1.0657 -0.3665  0.2896
12944TIP3    H260324   2.253   4.398  16.167 -3.3844  0.1949 -0.0843
12945TIP3   OH260325   4.818   0.119   0.064  0.0300 -0.3130 -0.0019
12945TIP3    H160326   4.843   0.166  -0.015  2.1073 -2.0531 -0.4430
12945TIP3    H260327   4.850   0.173   0.136  0.2516  0.1272 -0.4285
12946TIP3   OH260328   3.572   0.853   1.431 -0.0555 -0.2297  0.0589
12946TIP3    H160329   3.664   0.828   1.439  0.3030  0.9058 -0.4218
12946TIP3    H260330   3.524   0.770   1.438  0.7299 -0.4383  4.2054
12947TIP3   OH260331   6.537   6.118   6.376  0.2175 -0.7450  0.4082
12947TIP3    H160332   6.476   6.173   6.326  0.9399 -0.3686 -0.0636
12947TIP3    H260333   6.544   6.161   6.461  0.7206 -0.1527  0.0668
12948TIP3   OH260334   2.709   4.583  14.564 -0.5818  0.4335 -0.1841
12948TIP3    H160335   2.615   4.601  14.561 -0.6306 -0.0271 -3.8688
12948TIP3    H260336   2.716   4.504  14.619 -2.6586 -1.0727 -1.9873
12949TIP3   OH260337   1.014   5.038  12.867  0.0722 -0.3382  0.5677
12949TIP3    H160338   0.940   4.982  12.892 -0.3650 -0.4956 -1.0289
12949TIP3    H260339   1.040   5.007  12.780  0.4288  1.3133  0.0647
12950TIP3   OH260340   1.494   2.000  15.421  0.1514  0.3764  0.9682
12950TIP3    H160341   1.434   1.936  15.458  0.5159  0.5587  1.8799
12950TIP3    H260342   1.467   2.008  15.330  0.4119 -1.4383  0.7070
12951TIP3   OH260343   6.660   4.042  13.616 -0.4700  0.1344 -0.3803
12951TIP3    H160344   6.644   3.977  13.684  0.0567 -1.0795 -1.4127
12951TIP3    H260345   6.755   4.051  13.612 -0.5239  0.6744 -0.5079
12952TIP3   OH260346   2.139   4.632  11.615 -0.7442 -0.1408 -0.0751
12952TIP3    H160347   2.132   4.661  11.524 -2.3506 -1.3679 -0.3719
12952TIP3    H260348   2.054   4.590  11.633  0.3226 -1.7656  1.3173
12953TIP3   OH260349   2.661   2.568   3.287  0.1456 -0.1921 -0.2443
12953TIP3    H160350   2.631   2.657   3.307  1.7810  0.2471  0.4080
12953TIP3    H260351   2.732   2.581   3.224  0.5339 -1.0060  0.0246
12954TIP3   OH260352   3.753   3.340   0.129 -0.0107  0.4930  0.4542
12954TIP3    H160353   3.720   3.428   0.147 -0.9118 -0.0642  1.5829
12954TIP3    H260354   3.674   3.284   0.129  0.4640 -0.2046 -0.9460
12955TIP3   OH260355   4.771   0.903   2.893  0.3513 -0.0342 -0.5910
12955TIP3    H160356   4.834   0.964   2.854 -0.7690  0.4688 -1.6700
12955TIP3    H260357   4.695   0.909   2.835 -0.3649 -1.2564  0.2243
12956TIP3   OH260358   5.257   5.508  14.992  0.7256 -0.4913  0.1039
12956TIP3    H160359   5.351   5.508  14.972  0.9045 -0.5438  0.9253
12956TIP3    H260360   5.249   5.564  15.069  0.1408 -0.8419  0.3015
12957TIP3   OH260361   1.257   1.872  15.265  0.3183  0.1196  0.2611
12957TIP3    H160362   1.194   1.940  15.291  0.6741  0.4348  0.3109
12957TIP3    H260363   1.307   1.912  15.194  2.0214  0.7529  1.7620
12958TIP3   OH260364   3.210   5.039  12.625 -0.2004 -0.1093  0.3236
12958TIP3    H160365   3.242   5.063  12.712 -1.4788  1.5980  0.3415
12958TIP3    H260366   3.115   5.048  12.631 -0.3932 -1.2509 -0.8875
12959TIP3   OH260367   3.171   5.271   3.962 -0.2527  0.0249 -0.1246
12959TIP3    H160368   3.167   5.359   3.998  2.1240  0.1560 -0.1195
12959TIP3    H260369   3.084   5.256   3.926 -0.8753  2.1206  0.4469
12960TIP3   OH260370   4.420   4.172  14.434 -0.3651 -0.1336 -0.0544
12960TIP3    H160371   4.476   4.168  14.511  1.6629  1.3399 -1.4205
12960TIP3    H260372   4.424   4.084  14.397  0.3410 -0.2635  0.3255
12961TIP3   OH260373   4.740   4.393   0.704 -0.2525 -0.1083 -0.4882
12961TIP3    H160374   4.810   4.430   0.649  1.0360  2.4450  2.6962
12961TIP3    H260375   4.659   4.420   0.661  0.7041 -0.1096 -2.3509
12962TIP3   OH260376   4.808   2.147  17.049 -0.0951 -0.2231 -0.4431
12962TIP3    H160377   4.731   2.127  16.996  0.6232  0.3415 -1.7404
12962TIP3    H260378   4.871   2.183  16.986  1.3661 -1.0452  0.5153
12963TIP3   OH260379   3.845   6.557   1.009 -0.4218  0.2920 -0.3510
12963TIP3    H160380   3.779   6.598   1.065 -0.0168  0.4948 -0.0194
12963TIP3    H260381   3.817   6.465   1.002 -0.8853  0.4412 -0.4322
12964TIP3   OH260382   0.535   3.406  12.062  1.0498  0.0547  0.4280
12964TIP3    H160383   0.521   3.441  12.150  1.8278  0.4172  0.4021
12964TIP3    H260384   0.614   3.448  12.030  0.4699  0.3563 -0.6726
12965TIP3   OH260385   2.485   2.952  17.148  0.0755  0.3928  0.4355
12965TIP3    H160386   2.541   3.028  17.167 -1.1886  1.1501  1.2437
12965TIP3    H260387   2.483   2.903  17.230  1.9910 -1.2815 -0.4800
12966TIP3   OH260388   2.330   5.551   5.951 -0.1482  0.0589  0.0466
12966TIP3    H160389   2.245   5.593   5.932 -0.6460 -0.6602  0.6667
12966TIP3    H260390   2.323   5.524   6.042 -0.6820 -3.3121 -0.9270
12967TIP3   OH260391   1.275   0.337   4.980  0.4080  0.0121 -0.0149
12967TIP3    H160392   1.331   0.275   5.028 -0.2628 -0.1227  0.5977
12967TIP3    H260393   1.278   0.417   5.033 -0.4319 -0.1751  0.3127
12968TIP3   OH260394   2.475   6.131  12.643 -0.0528  0.4124 -0.5104
12968TIP3    H160395   2.499   6.216  12.679 -1.5520  0.1948  1.0703
12968TIP3    H260396   2.497   6.069  12.713  0.4863 -0.4521 -1.4240
12969TIP3   OH260397   1.811   2.884  14.814 -0.7131 -0.4043  0.1625
12969TIP3    H160398   1.745   2.954  14.820 -0.4680 -0.0619 -1.0202
12969TIP3    H260399   1.894   2.929  14.830 -0.7306 -0.7936  1.4108
12970TIP3   OH260400   4.736   3.595  14.556 -0.2256  0.2302  0.7758
12970TIP3    H160401   4.694   3.671  14.596 -1.4484  0.3042 -0.5932
12970TIP3    H260402   4.698   3.591  14.468  0.5911 -1.3614  0.4864
12971TIP3   OH260403   2.869   6.367   5.932  0.0020  0.3897  0.2372
12971TIP3    H160404   2.959   6.363   5.965  0.2198  1.2352 -0.2163
12971TIP3    H260405   2.814   6.345   6.007  0.6708 -2.3116 -0.0216
12972TIP3   OH260406   4.185   4.671   4.210 -0.2653 -0.7053 -0.0038
12972TIP3    H160407   4.212   4.710   4.127 -2.3812 -0.2437 -0.4785
12972TIP3    H260408   4.180   4.577   4.191  0.2648 -0.7128 -0.1147
12973TIP3   OH260409   5.542   0.480  13.826 -0.1532  0.0376 -0.3437
12973TIP3    H160410   5.564   0.518  13.741 -0.3180  0.9386  0.0142
12973TIP3    H260411   5.627   0.466  13.869 -0.0485 -0.7821 -0.8083
12974TIP3   OH260412   4.815   0.874  13.337  0.6098  0.1363 -0.2372
12974TIP3    H160413   4.841   0.946  13.394  0.6711  0.9550 -1.2898
12974TIP3    H260414   4.734   0.903  13.296 -0.2332 -1.0616  0.5451
12975TIP3   OH260415   5.034   3.992  12.770  0.2152  0.0393  0.7373
12975TIP3    H160416   5.008   4.020  12.682 -0.0333 -0.2769  0.7127
12975TIP3    H260417   5.035   4.073  12.822  0.2738  0.2116  0.4678
12976TIP3   OH260418   3.221   1.691   2.469 -0.0539  0.2748  0.2019
12976TIP3    H160419   3.224   1.649   2.555 -0.8407 -0.0972  0.0523
12976TIP3    H260420   3.199   1.620   2.409  3.0452 -0.0201 -0.6811
12977TIP3   OH260421   5.672   4.093   5.320 -0.4254  0.4988  0.1138
12977TIP3    H160422   5.705   4.014   5.277 -1.3815  0.6267 -0.8672
12977TIP3    H260423   5.609   4.130   5.258 -0.9663  1.3153  1.1294
12978TIP3   OH260424   4.087   3.023   4.076 -0.5223 -0.1046  0.6586
12978TIP3    H160425   4.005   2.976   4.064  0.7327 -2.1938 -0.1114
12978TIP3    H260426   4.154   2.955   4.069  1.2441  1.4825  1.7254
12979TIP3   OH260427   4.234   6.746  15.849  0.0822  0.4858 -0.1404
12979TIP3    H160428   4.263   6.752  15.758 -0.8011  0.6419 -0.4099
12979TIP3    H260429   4.139   6.758  15.846 -0.1528 -1.0043  0.6310
12980TIP3   OH260430   0.437   2.989  16.743  0.6057 -0.4774  0.4614
12980TIP3    H160431   0.344   2.983  16.766  0.0187  1.3221 -1.2485
12980TIP3    H260432   0.450   2.921  16.677  0.0316  0.4501 -0.6337
12981TIP3   OH260433   6.002   6.019   0.270 -0.1950  0.2759  0.1661
12981TIP3    H160434   5.920   5.978   0.297 -0.8655  0.3642 -1.6334
12981TIP3    H260435   6.021   6.082   0.339 -1.8721  0.5597  0.3927
12982TIP3   OH260436   4.700   1.309   6.046  0.2950  0.5940  0.1625
12982TIP3    H160437   4.772   1.320   6.107  0.7554 -1.1613 -0.0354
12982TIP3    H260438   4.628   1.274   6.099  0.0514  0.9751  0.0852
12983TIP3   OH260439   0.355   3.625   4.310  0.5550 -0.1141 -0.2318
12983TIP3    H160440   0.284   3.574   4.350  0.9914 -0.0797  0.6125
12983TIP3    H260441   0.333   3.716   4.329 -0.0418 -0.0009 -1.4346
12984TIP3   OH260442   6.663   5.465  13.545  0.1958 -0.0938 -0.4638
12984TIP3    H160443   6.644   5.557  13.565  2.3938  0.6713 -1.6623
12984TIP3    H260444   6.609   5.445  13.469 -3.9812 -1.3414  2.6339
12985TIP3   OH260445   6.277   3.733   4.162  0.3782  1.0250  0.6919
12985TIP3    H160446   6.248   3.805   4.105 -0.8048 -0.6592 -0.8860
12985TIP3    H260447   6.364   3.759   4.191  0.5651  2.4183 -1.0462
12986TIP3   OH260448   0.676   5.633   0.988 -0.2269  0.1029 -0.4446
12986TIP3    H160449   0.757   5.682   0.976 -0.5196  0.4886 -0.8533
12986TIP3    H260450   0.661   5.633   1.082  1.3005 -1.6633 -0.1593
12987TIP3   OH260451   3.231   4.309  15.997 -0.0182  0.3302 -0.0805
12987TIP3    H160452   3.176   4.349  16.063 -0.7436 -2.2260  0.9247
12987TIP3    H260453   3.316   4.299  16.039  0.0867  0.5478 -0.2386
12988TIP3   OH260454   5.010   3.238   0.127 -0.1282  0.2990  0.2594
12988TIP3    H160455   5.000   3.152   0.085  1.0398  0.2607  0.0396
12988TIP3    H260456   4.924   3.257   0.163 -0.6280 -0.5766 -0.4436
12989TIP3   OH260457   4.337   6.463   5.566  0.1203 -0.0897 -0.0560
12989TIP3    H160458   4.258   6.460   5.511 -0.9365 -0.0467  1.4268
12989TIP3    H260459   4.375   6.549   5.549 -0.9264  0.4444  0.2741
12990TIP3   OH260460   2.798   6.344  15.864  0.6400  0.1562  0.2599
12990TIP3    H160461   2.714   6.385  15.841  0.5432 -0.5479 -0.6845
12990TIP3    H260462   2.858   6.417  15.875  0.2728  0.5964 -0.6183
12991TIP3   OH260463   6.125   4.780   3.689 -0.5642 -0.7253 -0.2161
12991TIP3    H160464   6.194   4.847   3.697 -0.8851 -0.3180 -0.8099
12991TIP3    H260465   6.099   4.762   3.779  0.0219 -0.5671 -0.0090
12992TIP3   OH260466   0.881   4.411  14.071 -0.2376 -0.0991  0.6153
12992TIP3    H160467   0.853   4.321  14.090  0.1114  0.1097  2.1788
12992TIP3    H260468   0.941   4.433  14.142  0.1049  1.1852 -0.0579
12993TIP3   OH260469   2.951   3.722  15.707 -0.0623  0.3535  0.1573
12993TIP3    H160470   3.018   3.720  15.775  0.1958  1.7019 -0.0339
12993TIP3    H260471   2.894   3.794  15.732 -1.0017 -0.3004 -0.0942
12994TIP3   OH260472   3.819   3.130  13.412  0.5769 -0.0076  0.4901
12994TIP3    H160473   3.807   3.121  13.317  2.3491 -2.6432  0.4588
12994TIP3    H260474   3.762   3.203  13.437 -1.8676 -0.8979 -2.2159
12995TIP3   OH260475   5.838   6.675   1.321  0.2149 -0.1792  0.3329
12995TIP3    H160476   5.843   6.638   1.409  0.6183  0.9859  0.8141
12995TIP3    H260477   5.922   6.718   1.308 -1.1099  2.7001  0.7786
12996TIP3   OH260478   3.997   3.792   0.388 -0.1057  0.7576 -0.1299
12996TIP3    H160479   3.922   3.797   0.329 -0.6784  1.1535  0.6228
12996TIP3    H260480   4.060   3.855   0.352 -0.7277  1.5016  0.0458
12997TIP3   OH260481   5.616   2.711   1.637  0.4169 -0.4003  0.3579
12997TIP3    H160482   5.688   2.737   1.695  0.5734  2.8772 -1.2276
12997TIP3    H260483   5.589   2.792   1.595 -0.8208 -2.4299 -2.9157
12998TIP3   OH260484   1.156   4.812   5.238 -0.3992 -0.2130  0.8137
12998TIP3    H160485   1.120   4.899   5.256  0.6523  0.3881  0.0814
12998TIP3    H260486   1.116   4.786   5.155 -0.2365 -0.1551  0.7165
12999TIP3   OH260487   2.709   6.123   1.079  0.5417 -0.5896 -0.0548
12999TIP3    H160488   2.700   6.189   1.148  1.7826  0.8515 -1.2413
12999TIP3    H260489   2.801   6.128   1.054  0.0995 -1.1107 -1.8238
13000TIP3   OH260490   6.421   5.174   1.846 -0.3481 -0.1441  0.3425
13000TIP3    H160491   6.402   5.103   1.908 -0.1159  0.6705  1.3654
13000TIP3    H260492   6.336   5.195   1.807 -1.2530  1.9318  3.2179
13001TIP3   OH260493   2.601   4.256   2.761  0.1943 -0.6921  0.1045
13001TIP3    H160494   2.608   4.188   2.827  1.1849 -1.7056 -1.0165
13001TIP3    H260495   2.675   4.241   2.702 -0.9956 -0.1898 -1.5634
13002TIP3   OH260496   3.607   1.998   0.208  0.0065  0.6300  0.0879
13002TIP3    H160497   3.588   1.956   0.124  1.8707  0.1408 -0.1027
13002TIP3    H260498   3.621   2.090   0.185  1.6040  0.2944 -0.2931
13003TIP3   OH260499   2.322   1.573   2.915  0.1746 -0.2139  0.4102
13003TIP3    H160500   2.237   1.601   2.883  0.4858  0.9525  0.5755
13003TIP3    H260501   2.356   1.514   2.847 -1.5536 -2.1922  1.2179
13004TIP3   OH260502   0.160   6.450   3.609  0.0075  0.5204 -0.2858
13004TIP3    H160503   0.070   6.481   3.620  0.3354  0.6500  2.2073
13004TIP3    H260504   0.198   6.452   3.697  1.6403 -2.0954 -0.8764
13005TIP3   OH260505   5.630   5.664   1.647  0.2673  0.4287  0.3632
13005TIP3    H160506   5.566   5.594   1.651  0.7582  0.0077  0.9074
13005TIP3    H260507   5.702   5.628   1.594  0.3609  0.6498  0.3388
13006TIP3   OH260508   3.424   4.599  11.254  0.5834 -0.3090 -0.4772
13006TIP3    H160509   3.396   4.512  11.225 -0.3190  0.1024 -0.9001
13006TIP3    H260510   3.410   4.655  11.177  0.1236  0.4133  0.1210
13007TIP3   OH260511   5.875   5.407   6.513 -0.3472  0.0540  0.5091
13007TIP3    H160512   5.952   5.352   6.501  0.0323  1.0118 -1.6475
13007TIP3    H260513   5.835   5.375   6.594  2.4309 -0.3075  1.8063
13008TIP3   OH260514   0.859   0.191  14.533  0.1657  0.3859 -0.5518
13008TIP3    H160515   0.932   0.206  14.474  1.5944  1.0891  1.3341
13008TIP3    H260516   0.832   0.101  14.516  2.4541 -0.3858 -0.2403
13009TIP3   OH260517   4.758   1.128   1.427  0.2195  0.0995 -0.2254
13009TIP3    H160518   4.762   1.102   1.335 -1.5043 -1.1563  0.0261
13009TIP3    H260519   4.789   1.051   1.475  1.4955  0.8879  0.2381
13010TIP3   OH260520   0.059   4.009  12.338  0.8152  0.5855 -0.3363
13010TIP3    H160521   0.100   3.954  12.405 -0.9164 -0.4598 -0.1247
13010TIP3    H260522   0.075   4.099  12.367  0.1081  0.1388  1.4492
13011TIP3   OH260523   4.656   0.817   1.439  0.3677  0.1184  0.1037
13011TIP3    H160524   4.649   0.882   1.370 -1.1786 -0.0738  0.0621
13011TIP3    H260525   4.600   0.745   1.410 -0.3453  0.0632  1.5815
13012TIP3   OH260526   6.548   1.656  17.066 -0.7009 -0.7085  0.1598
13012TIP3    H160527   6.476   1.621  17.013 -2.7082  0.4060  2.0355
13012TIP3    H260528   6.549   1.601  17.144  0.0233 -0.2832  0.4552
13013TIP3   OH260529   0.446   5.014   2.402 -0.1947  0.4103 -0.0069
13013TIP3    H160530   0.391   5.073   2.453 -1.0239 -0.3148 -0.0488
13013TIP3    H260531   0.394   4.935   2.392  0.1375  0.3624 -1.5759
13014TIP3   OH260532   6.577   2.071   3.494  0.0584 -0.0440  0.3364
13014TIP3    H160533   6.507   2.088   3.557 -0.8020 -1.9102 -0.0974
13014TIP3    H260534   6.586   1.976   3.493  1.1699  0.0652 -1.1747
13015TIP3   OH260535   5.916   6.181   0.066 -0.4206 -0.1123 -0.0919
13015TIP3    H160536   5.944   6.129  -0.009 -1.8142 -2.3909  0.9179
13015TIP3    H260537   5.937   6.126   0.142  1.5231  2.3980  1.2610
13016TIP3   OH260538   2.567   5.384  10.639 -0.0392  0.0404  0.2434
13016TIP3    H160539   2.634   5.323  10.668  0.9990  0.1048 -1.9132
13016TIP3    H260540   2.610   5.469  10.640  0.0567  0.0397 -1.4333
13017TIP3   OH260541   3.119   0.543   0.552  0.1192 -0.0619 -0.5557
13017TIP3    H160542   3.160   0.604   0.613 -1.1824  0.1614  0.1179
13017TIP3    H260543   3.130   0.583   0.466  0.9041  0.2022 -0.3360
13018TIP3   OH260544   3.568   6.230  15.111 -0.7351 -0.0150 -0.0871
13018TIP3    H160545   3.589   6.205  15.201  0.0636 -0.1550 -0.3072
13018TIP3    H260546   3.652   6.260  15.075 -1.3487  1.4684 -0.3127
13019TIP3   OH260547   3.484   4.513   6.520  0.2863 -0.3474 -0.2526
13019TIP3    H160548   3.550   4.566   6.475 -0.8474  0.1089 -1.4089
13019TIP3    H260549   3.407   4.570   6.525 -0.3659 -1.2456  0.1129
13020TIP3   OH260550   6.337   2.948  13.010 -0.2796  0.5658 -0.4285
13020TIP3    H160551   6.332   2.860  13.047  0.7396  1.3001  1.5787
13020TIP3    H260552   6.348   2.934  12.916 -1.8741 -1.3974 -0.3632
13021TIP3   OH260553   0.263   5.550  13.519 -0.5900 -0.5160 -0.0611
13021TIP3    H160554   0.307   5.601  13.451 -2.5715 -0.5755 -1.4161
13021TIP3    H260555   0.218   5.615  13.573 -1.5273 -0.6925 -0.6305
13022TIP3   OH260556   2.237   5.660  10.678  0.1101 -0.1461  0.7993
13022TIP3    H160557   2.213   5.586  10.734 -1.9460  0.2817  0.5050
13022TIP3    H260558   2.180   5.653  10.602  1.0975  0.7641 -0.0377
13023TIP3   OH260559   0.601   0.818  16.582 -0.0823  0.5548  0.3424
13023TIP3    H160560   0.640   0.780  16.503 -0.4692 -1.8743  1.2615
13023TIP3    H260561   0.525   0.866  16.550  0.1024  0.1048 -0.8314
13024TIP3   OH260562   1.665   2.584   2.342  0.3229 -0.1761  0.2043
13024TIP3    H160563   1.688   2.496   2.311  1.4301  0.8763 -2.0804
13024TIP3    H260564   1.573   2.577   2.366  0.1480 -1.7553 -0.8016
13025TIP3   OH260565   5.871   6.586  16.626 -0.2719 -0.1121  0.0834
13025TIP3    H160566   5.965   6.579  16.642 -0.1880 -0.1486 -0.4117
13025TIP3    H260567   5.830   6.570  16.711  0.1505 -0.5525  0.1988
13026TIP3   OH260568   2.820   0.015   2.205 -0.6045 -0.6938 -0.0985
13026TIP3    H160569   2.742   0.066   2.226 -1.0248 -1.2693 -0.2587
13026TIP3    H260570   2.840   0.038   2.114 -0.7874 -0.8115 -0.1679
13027TIP3   OH260571   6.606   1.804   3.518 -0.0365 -0.0156 -0.3565
13027TIP3    H160572   6.531   1.749   3.498 -0.4788  0.8916 -1.2489
13027TIP3    H260573   6.679   1.764   3.472  0.0052 -0.8174  0.3952
13028TIP3   OH260574   5.400   0.044  15.482  0.0005 -0.4589 -0.0070
13028TIP3    H160575   5.361   0.099  15.550 -0.4185 -1.5982  0.6834
13028TIP3    H260576   5.428  -0.036  15.528  0.4410 -0.9049 -1.0250
13029TIP3   OH260577   3.595   4.655   4.875  0.5864 -0.0811  0.4445
13029TIP3    H160578   3.531   4.725   4.860 -0.1257 -1.2183 -1.9277
13029TIP3    H260579   3.660   4.695   4.933 -0.4921  2.1337  0.1824
13030TIP3   OH260580   1.352   1.617  16.292  0.0614  0.0561  0.4832
13030TIP3    H160581   1.325   1.538  16.245  0.7336  1.1240 -1.7392
13030TIP3    H260582   1.310   1.688  16.244  0.8968  1.1833  1.4089
13031TIP3   OH260583   0.321   0.205  15.888  0.0208  0.1153  0.2085
13031TIP3    H160584   0.319   0.134  15.824  1.0780  1.7058 -1.6504
13031TIP3    H260585   0.269   0.274  15.848 -0.1250  0.7762  1.5267
13032TIP3   OH260586   2.366   0.178   5.372  0.3894  0.3153 -0.0635
13032TIP3    H160587   2.277   0.184   5.407  0.6039  1.2162  0.3164
13032TIP3    H260588   2.366   0.095   5.324 -0.2648 -0.3183  1.0167
13033TIP3   OH260589   2.645   0.372   3.681 -0.1507 -0.0195  0.2345
13033TIP3    H160590   2.555   0.397   3.660 -0.6585 -0.4906  1.8113
13033TIP3    H260591   2.644   0.358   3.775  1.6682  0.3195  0.3071
13034TIP3   OH260592   3.759   3.421   1.857 -0.3185  0.2331  0.5351
13034TIP3    H160593   3.687   3.379   1.903 -0.7249  0.5188  0.1558
13034TIP3    H260594   3.800   3.478   1.923 -0.0383 -0.4148  0.9254
13035TIP3   OH260595   4.172   2.898   0.734  0.6340 -0.4099  0.3118
13035TIP3    H160596   4.238   2.861   0.675 -0.8198 -0.6967 -1.1809
13035TIP3    H260597   4.096   2.839   0.725 -1.1159  1.9145 -0.7975
13036TIP3   OH260598   6.403   3.555   6.196  0.6597  0.7200 -0.9148
13036TIP3    H160599   6.436   3.607   6.269  0.9491  0.5164 -0.8961
13036TIP3    H260600   6.317   3.591   6.177 -0.2825 -0.5237  0.8536
13037TIP3   OH260601   0.429   3.376  15.805  0.1733  0.0928  0.2941
13037TIP3    H160602   0.424   3.463  15.765 -0.3235 -1.1207 -2.3285
13037TIP3    H260603   0.491   3.327  15.751  3.1954 -0.2026  3.7749
13038TIP3   OH260604   0.341   1.652  10.508  0.1262 -0.0139 -0.1557
13038TIP3    H160605   0.363   1.743  10.491 -0.6342  0.6098  2.0582
13038TIP3    H260606   0.343   1.610  10.421 -1.0898  2.4346 -1.4162
13039TIP3   OH260607   5.999   1.153   5.989 -0.2102  0.0271 -0.1852
13039TIP3    H160608   6.085   1.120   6.016 -0.3260 -0.7226 -0.7074
13039TIP3    H260609   6.017   1.238   5.949 -0.0860  1.3838  2.6610
13040TIP3   OH260610   2.591   4.168  13.663 -0.1615 -0.2116 -0.0979
13040TIP3    H160611   2.663   4.229  13.681 -0.2135 -0.2024  0.0731
13040TIP3    H260612   2.517   4.224  13.642 -0.3104 -0.2098  0.4333
13041TIP3   OH260613   4.752   0.619  15.954  0.1523  0.2849 -0.1810
13041TIP3    H160614   4.724   0.578  16.036  1.0191  2.8568  1.4501
13041TIP3    H260615   4.684   0.684  15.936 -0.1225 -0.3808 -1.6210
13042TIP3   OH260616   6.406   5.337  13.744 -0.8234 -0.3769  0.3881
13042TIP3    H160617   6.394   5.432  13.739  0.5148 -0.1502  1.2108
13042TIP3    H260618   6.356   5.311  13.822  0.2625 -0.0792  1.2003
13043TIP3   OH260619   5.645   6.779   0.921 -0.3997  0.5771 -0.0896
13043TIP3    H160620   5.640   6.850   0.858  2.5226 -0.0268 -1.0770
13043TIP3    H260621   5.593   6.709   0.882 -1.4312  1.3711 -0.1714
13044TIP3   OH260622   3.629   2.186  11.967  0.2376 -0.3005  0.3425
13044TIP3    H160623   3.626   2.093  11.990  0.4708 -0.4843 -0.3560
13044TIP3    H260624   3.541   2.219  11.988  0.0348 -0.7644  0.2341
13045TIP3   OH260625   5.143   0.296  15.820 -0.3194  0.4248 -0.4131
13045TIP3    H160626   5.139   0.390  15.801 -2.3943  1.4417  4.2190
13045TIP3    H260627   5.059   0.262  15.789 -0.9665  0.8135  0.8533
13046TIP3   OH260628   5.135   2.953   2.832  0.7043  0.0504  0.6018
13046TIP3    H160629   5.057   2.995   2.794  0.3304  1.1130  2.4781
13046TIP3    H260630   5.193   3.026   2.853  1.7100 -0.6607  0.3277
13047TIP3   OH260631   3.375   4.306   0.490  0.2006  0.2626  0.5681
13047TIP3    H160632   3.398   4.264   0.573  0.8712  0.3017  0.4048
13047TIP3    H260633   3.367   4.233   0.428 -2.9342 -0.0328  1.2390
13048TIP3   OH260634   1.386   2.552   2.367 -0.1031 -0.5158 -0.1998
13048TIP3    H160635   1.360   2.460   2.371  0.1055 -0.5620  0.1214
13048TIP3    H260636   1.352   2.589   2.448  1.9912 -0.8729  0.8814
13049TIP3   OH260637   5.313   0.708  13.660  0.6427 -0.0820  0.8118
13049TIP3    H160638   5.306   0.664  13.575  1.9759  0.4961  0.3926
13049TIP3    H260639   5.256   0.657  13.718 -0.5068 -0.3112 -0.4901
13050TIP3   OH260640   6.266   0.714   3.910 -0.2675  0.0686 -0.0531
13050TIP3    H160641   6.266   0.620   3.929  0.5841  0.1282  0.2764
13050TIP3    H260642   6.188   0.728   3.856  0.0787 -0.9655 -0.8220
13051TIP3   OH260643   6.156   6.586   5.520  0.0575  0.3147 -0.1908
13051TIP3    H160644   6.174   6.638   5.598  0.5913  0.4834 -0.4254
13051TIP3    H260645   6.191   6.638   5.448  0.3304 -0.2394 -0.4560
13052TIP3   OH260646   2.722   3.993   4.347 -0.1948 -0.1019  0.3803
13052TIP3    H160647   2.652   3.995   4.282 -1.0357  2.1907  1.3235
13052TIP3    H260648   2.677   3.991   4.431  0.8574  0.6922  0.9762
13053TIP3   OH260649   3.933   5.888   4.444 -0.6615 -0.1473 -0.3365
13053TIP3    H160650   4.020   5.865   4.475 -0.1078  3.0249  0.6666
13053TIP3    H260651   3.874   5.826   4.487  0.8655 -0.9216  0.6623
13054TIP3   OH260652   3.470   1.109   0.786 -0.0039 -0.5392 -0.1144
13054TIP3    H160653   3.402   1.108   0.853  0.9308 -0.4825  0.8436
13054TIP3    H260654   3.513   1.194   0.797 -0.4052 -0.1628 -1.3655
13055TIP3   OH260655   4.682   0.739  11.220  0.2321 -0.3215 -0.4377
13055TIP3    H160656   4.634   0.694  11.290 -2.1943  2.9891  0.1499
13055TIP3    H260657   4.764   0.766  11.260  0.5610 -1.8736 -0.0330
13056TIP3   OH260658   4.211   5.699  16.694 -0.0474  0.3381  0.2472
13056TIP3    H160659   4.285   5.668  16.642 -1.7320 -1.4006 -1.2084
13056TIP3    H260660   4.236   5.683  16.785  1.7698  0.7556 -0.1631
13057TIP3   OH260661   5.016   1.435  17.049  0.4441 -0.4990 -0.0596
13057TIP3    H160662   4.930   1.448  17.008  0.5127  0.7943  0.1928
13057TIP3    H260663   5.014   1.344  17.080 -1.4660  0.0051  1.4107
13058TIP3   OH260664   1.467   2.046   2.472  0.1163 -0.0520  0.0403
13058TIP3    H160665   1.429   1.975   2.523  2.4816 -0.0499  1.8880
13058TIP3    H260666   1.549   2.067   2.517  1.2953  1.3192 -2.6138
13059TIP3   OH260667   0.334   5.422  14.325  0.2336 -0.0518 -0.1060
13059TIP3    H160668   0.316   5.331  14.348  0.5064  0.1244  0.7875
13059TIP3    H260669   0.410   5.418  14.266  0.9586 -0.3081  0.8466
13060TIP3   OH260670   2.555   3.701   3.677 -0.3137 -0.3690  0.2139
13060TIP3    H160671   2.549   3.745   3.762  1.2294 -0.4228  0.3698
13060TIP3    H260672   2.494   3.748   3.621  0.6540  1.4130  0.6175
13061TIP3   OH260673   5.148   6.295   3.098  0.0803 -0.2167  0.5107
13061TIP3    H160674   5.126   6.228   3.033 -0.7818  1.0592 -0.5278
13061TIP3    H260675   5.243   6.298   3.098  0.0862  0.0704 -1.0320
13062TIP3   OH260676   4.441   3.929  13.924 -0.9108 -0.6203  0.0703
13062TIP3    H160677   4.476   3.852  13.968  0.7752  0.8396  1.3584
13062TIP3    H260678   4.468   4.003  13.980 -2.4794  0.8954 -1.1285
13063TIP3   OH260679   0.901   3.215  12.887  0.5328 -0.7508 -0.0211
13063TIP3    H160680   0.978   3.177  12.930  0.2873  0.0852  1.1634
13063TIP3    H260681   0.827   3.185  12.940  0.1396 -0.5755 -0.4687
13064TIP3   OH260682   5.131   5.674  15.889  0.3020  0.0065  0.0736
13064TIP3    H160683   5.041   5.703  15.901 -0.1315 -1.7253  1.1140
13064TIP3    H260684   5.141   5.667  15.794 -0.7687 -0.1288 -0.0340
13065TIP3   OH260685   5.556   0.344  11.468 -0.0992 -0.2251  0.6639
13065TIP3    H160686   5.561   0.348  11.373 -0.2339 -2.0340  0.5553
13065TIP3    H260687   5.644   0.368  11.498 -0.0420  0.2897  0.0797
13066TIP3   OH260688   4.828   3.270  16.059  0.0334  0.1740  0.0909
13066TIP3    H160689   4.895   3.338  16.069  0.4640 -0.0099 -1.4959
13066TIP3    H260690   4.877   3.191  16.037 -0.3463 -1.0106  3.2605
13067TIP3   OH260691   3.922   1.684   0.455  0.1051  0.5813 -0.1701
13067TIP3    H160692   3.982   1.637   0.396  0.1266 -0.0222  0.3313
13067TIP3    H260693   3.958   1.669   0.542 -1.1269 -0.3103  0.1965
13068TIP3   OH260694   3.837   4.124  14.566  0.1531  0.4027 -0.2242
13068TIP3    H160695   3.847   4.160  14.478 -0.6226  1.2024  0.0106
13068TIP3    H260696   3.780   4.047  14.554  1.3970 -0.4703 -0.6499
13069TIP3   OH260697   1.053   0.619   4.840 -0.1277  0.3056  0.0649
13069TIP3    H160698   0.993   0.560   4.885  0.5931 -0.9804 -0.6335
13069TIP3    H260699   1.005   0.647   4.761  0.0761 -0.5059 -0.3532
13070TIP3   OH260700   4.719   4.709  13.313 -0.2004  0.1838 -0.3864
13070TIP3    H160701   4.781   4.708  13.240  0.8512  1.6605  0.4640
13070TIP3    H260702   4.687   4.619  13.319 -1.3774  0.3340 -3.5704
13071TIP3   OH260703   0.130   6.111  12.328  0.4226 -0.1641 -0.0888
13071TIP3    H160704   0.154   6.159  12.249  1.6370  0.2782  0.5277
13071TIP3    H260705   0.143   6.175  12.399  0.6038 -0.9473  0.5914
13072TIP3   OH260706   6.064   3.285  15.496 -0.0843  0.2507  0.1637
13072TIP3    H160707   6.043   3.195  15.471 -0.3225 -0.4607  2.7476
13072TIP3    H260708   6.127   3.314  15.430  1.4936 -2.4889  0.3598
13073TIP3   OH260709   4.562   0.109   5.030 -0.9180 -0.7714  0.4533
13073TIP3    H160710   4.488   0.170   5.037  1.5330  2.1725  1.6825
13073TIP3    H260711   4.625   0.141   5.095  1.7232 -2.8304 -1.0338
13074TIP3   OH260712   3.896   6.340   2.158 -0.9559 -0.0579  0.2992
13074TIP3    H160713   3.805   6.368   2.165 -1.0554 -0.4009  0.4103
13074TIP3    H260714   3.894   6.247   2.181 -0.6451 -0.1748 -0.1384
13075TIP3   OH260715   0.162   4.967  15.793  0.0968 -0.0549 -0.4528
13075TIP3    H160716   0.090   4.956  15.731 -0.1942  0.7245 -0.2700
13075TIP3    H260717   0.131   5.036  15.853  0.7805 -0.0832 -0.0594
13076TIP3   OH260718   0.989   2.214   0.139 -0.2984 -0.7233  0.1111
13076TIP3    H160719   1.052   2.220   0.067 -0.1067 -1.3220  0.2264
13076TIP3    H260720   0.976   2.304   0.168  0.2034 -0.5625 -0.1747
13077TIP3   OH260721   1.735   1.315   2.572 -1.0168  0.4399  0.2587
13077TIP3    H160722   1.662   1.325   2.634  0.0886  1.8865  1.3686
13077TIP3    H260723   1.748   1.403   2.537  0.2295  0.2033  0.1195
13078TIP3   OH260724   3.874   4.321  14.765  0.4412 -0.0051  0.4506
13078TIP3    H160725   3.900   4.271  14.688  1.5700  2.0433 -0.5493
13078TIP3    H260726   3.820   4.392  14.730  1.4084  1.2587  1.4899
13079TIP3   OH260727   4.061   1.651  15.437  0.0165 -0.0371  0.2463
13079TIP3    H160728   3.970   1.626  15.424  0.2525 -0.4021 -0.8409
13079TIP3    H260729   4.081   1.624  15.526 -0.8391 -0.2778  0.3695
13080TIP3   OH260730   0.205   2.981   2.724  0.0826 -0.1283  0.3894
13080TIP3    H160731   0.207   3.057   2.782  1.3669 -0.9018  1.3649
13080TIP3    H260732   0.269   3.002   2.656 -0.7689  0.3720 -0.2877
13081TIP3   OH260733   2.272   6.318  13.405 -0.4777 -0.8692  0.4211
13081TIP3    H160734   2.191   6.336  13.358 -1.2116 -0.1753  1.9054
13081TIP3    H260735   2.247   6.258  13.475  0.2810 -0.6458  0.8919
13082TIP3   OH260736   6.289   0.844  15.125 -0.3524 -0.3198  0.2976
13082TIP3    H160737   6.292   0.751  15.149  0.5987 -0.7248 -1.3455
13082TIP3    H260738   6.232   0.847  15.048  0.9691  0.2038 -0.6838
13083TIP3   OH260739   5.783   1.343  17.123  0.1646  0.0565  0.2034
13083TIP3    H160740   5.728   1.286  17.069 -0.2494  1.6019 -1.0378
13083TIP3    H260741   5.837   1.391  17.059 -0.8071  2.4114  1.1055
13084TIP3   OH260742   3.521   3.245  16.530  0.1495 -0.2362 -0.6563
13084TIP3    H160743   3.510   3.328  16.576 -0.0888  0.8017 -2.5361
13084TIP3    H260744   3.595   3.203  16.574 -0.7531  0.2284  1.3554
13085TIP3   OH260745   5.113   1.510  15.993 -0.3867 -0.3121 -0.7544
13085TIP3    H160746   5.034   1.547  16.033 -0.8691  0.6685 -2.5709
13085TIP3    H260747   5.098   1.416  15.995 -0.1830 -0.3268  1.7912
13086TIP3   OH260748   4.746   1.458  16.001  0.2479  0.2434 -0.2473
13086TIP3    H160749   4.803   1.391  16.039 -0.0787  1.2800  2.1740
13086TIP3    H260750   4.776   1.540  16.041 -1.5146  1.0897 -0.6110
13087TIP3   OH260751   0.103   2.734  14.087 -0.4888  0.4110  0.4159
13087TIP3    H160752   0.140   2.736  14.175 -0.0135 -0.1807  0.2351
13087TIP3    H260753   0.147   2.661  14.044 -1.8970 -0.3350  0.2042
13088TIP3   OH260754   3.968   1.804   2.159  0.0270 -0.4245  0.4172
13088TIP3    H160755   4.033   1.808   2.089 -0.1059 -0.9231  0.2580
13088TIP3    H260756   4.019   1.792   2.239  0.1548 -0.3874  0.3412
13089TIP3   OH260757   6.278   0.687   0.676  0.8151 -0.0963  0.1981
13089TIP3    H160758   6.318   0.762   0.633 -0.5468 -1.0869 -2.9122
13089TIP3    H260759   6.235   0.724   0.753  0.9180  2.1769 -0.8024
13090TIP3   OH260760   1.157   0.289  16.398 -0.1627 -0.2172  0.3872
13090TIP3    H160761   1.243   0.265  16.363 -0.2670  0.5363 -0.3999
13090TIP3    H260762   1.153   0.247  16.484 -0.5958 -3.5998 -1.2120
13091TIP3   OH260763   5.601   2.721   4.814  0.2754  0.0574  0.1617
13091TIP3    H160764   5.689   2.734   4.778  0.6061 -1.4382  0.3800
13091TIP3    H260765   5.584   2.800   4.865  0.8921  1.0130 -1.1083
13092TIP3   OH260766   6.402   3.075  14.797 -0.0171 -0.0701 -0.1690
13092TIP3    H160767   6.355   3.061  14.879 -0.7765 -1.7155 -0.8762
13092TIP3    H260768   6.434   2.988  14.772  3.2603  0.9555  0.1852
13093TIP3   OH260769   2.337   5.954   2.417 -0.2723 -0.3910 -0.2919
13093TIP3    H160770   2.258   6.008   2.411 -1.3089 -1.7671  0.5883
13093TIP3    H260771   2.345   5.912   2.332  0.5099  1.0805 -0.9636
13094TIP3   OH260772   1.965   1.066   3.598  0.4273 -0.4583  0.3066
13094TIP3    H160773   2.013   1.002   3.545 -0.8429 -0.1571 -1.2393
13094TIP3    H260774   1.879   1.027   3.612 -0.2600  0.7814 -0.4110
13095TIP3   OH260775   1.477   1.411  17.192 -0.1476 -0.0373  0.4288
13095TIP3    H160776   1.386   1.385  17.201 -0.1454 -0.8295 -1.4517
13095TIP3    H260777   1.512   1.410  17.281 -2.1756  1.0939  1.2649
13096TIP3   OH260778   2.838   4.148  15.335  0.0823 -0.5790  0.0608
13096TIP3    H160779   2.907   4.200  15.375 -0.9613  1.6796 -0.9604
13096TIP3    H260780   2.773   4.212  15.306 -0.9048 -2.4008 -1.9394
13097TIP3   OH260781   0.574   6.243   5.263  0.1746  0.0600  0.6918
13097TIP3    H160782   0.529   6.197   5.333 -0.4292  1.4195  1.2033
13097TIP3    H260783   0.666   6.244   5.290  0.1370 -0.4941  0.8531
13098TIP3   OH260784   4.646   3.868   4.655  0.0368  0.5520  0.1456
13098TIP3    H160785   4.615   3.846   4.567 -0.0695 -0.7406  0.4978
13098TIP3    H260786   4.737   3.840   4.657 -0.3095 -0.5641  0.8376
13099TIP3   OH260787   3.401   1.071   0.292  0.0153  0.0161  0.2894
13099TIP3    H160788   3.466   1.093   0.226 -0.5133 -0.1174 -0.2805
13099TIP3    H260789   3.395   0.975   0.289  0.2295 -0.0152  0.7642
13100TIP3   OH260790   2.886   4.902   1.051 -0.4088  0.1146 -0.2287
13100TIP3    H160791   2.947   4.890   0.978 -0.4400  1.4718 -0.4809
13100TIP3    H260792   2.888   4.818   1.098  1.4705  0.0678 -0.3627
13101TIP3   OH260793   1.593   1.697   2.964  0.0628 -0.1767  0.3500
13101TIP3    H160794   1.519   1.755   2.944  0.0827 -0.7443 -1.4092
13101TIP3    H260795   1.642   1.744   3.031 -0.1405  1.6608 -0.7590
13102TIP3   OH260796   0.732   1.585  13.031 -0.6035 -0.4980 -0.0783
13102TIP3    H160797   0.732   1.566  12.937  0.5855  1.1780 -0.4407
13102TIP3    H260798   0.641   1.608  13.051 -0.2762  2.1755 -1.4870
13103TIP3   OH260799   3.246   2.805   3.423  0.4630  0.2088 -0.3327
13103TIP3    H160800   3.291   2.721   3.431  0.1849  0.0345 -0.6027
13103TIP3    H260801   3.159   2.788   3.457  0.2345  0.2487 -0.8934
13104TIP3   OH260802   3.334   5.470   5.255  0.0384 -0.1869  0.0675
13104TIP3    H160803   3.327   5.486   5.350 -1.1604 -0.5734  0.0532
13104TIP3    H260804   3.262   5.410   5.236 -0.9857  1.4778 -1.4472
13105TIP3   OH260805   1.692   5.388   1.592  0.1220  0.3501 -0.0897
13105TIP3    H160806   1.702   5.427   1.679  2.6622  2.1915 -1.1222
13105TIP3    H260807   1.609   5.422   1.559 -0.1019  0.8856  1.0187
13106TIP3   OH260808   0.591   0.129  15.517  0.2292  0.3735 -0.2716
13106TIP3    H160809   0.567   0.129  15.424  0.5053  1.5463 -0.3473
13106TIP3    H260810   0.542   0.202  15.555 -1.1993 -1.1366  0.8738
13107TIP3   OH260811   1.338   1.445   0.407 -0.0829  0.2765 -0.4559
13107TIP3    H160812   1.401   1.506   0.369  0.1994 -0.0168 -0.4527
13107TIP3    H260813   1.256   1.495   0.409  0.0911  0.5761 -0.6778
13108TIP3   OH260814   4.742   6.308   3.655  0.3746 -0.4511 -0.1912
13108TIP3    H160815   4.699   6.229   3.622  1.4068 -1.3292  0.5364
13108TIP3    H260816   4.775   6.352   3.577 -0.0464 -0.8310 -0.5867
13109TIP3   OH260817   4.237   2.804   3.369 -0.1031 -0.8881  0.2807
13109TIP3    H160818   4.294   2.727   3.361  0.7330 -0.2385 -0.0649
13109TIP3    H260819   4.280   2.872   3.317 -1.4197 -0.5094 -0.3169
13110TIP3   OH260820   1.839   6.445   4.078 -0.1255  0.3785  0.3592
13110TIP3    H160821   1.825   6.351   4.065 -0.3303  0.3940  0.4800
13110TIP3    H260822   1.898   6.450   4.154 -0.1769  0.3519  0.4004
13111TIP3   OH260823   1.764   4.183  14.318 -0.0977  0.3585  0.3729
13111TIP3    H160824   1.690   4.218  14.270 -0.9912 -1.1451  0.6308
13111TIP3    H260825   1.751   4.088  14.317  1.3817  0.1313  1.1218
13112TIP3   OH260826   2.653   3.635   0.574  0.6440 -0.2790  0.2176
13112TIP3    H160827   2.711   3.559   0.563  1.9431  0.6716  0.4094
13112TIP3    H260828   2.611   3.645   0.489  1.8669 -0.0947 -0.3815
13113TIP3   OH260829   2.465   0.041   2.957 -0.8290 -0.4662  0.5231
13113TIP3    H160830   2.488   0.120   3.005 -4.4989  1.2703 -0.3599
13113TIP3    H260831   2.545   0.015   2.912  0.8048  1.9624  1.9418
13114TIP3   OH260832   1.457   4.257  12.599 -0.1751  0.0909 -0.0768
13114TIP3    H160833   1.450   4.343  12.642 -2.1292  0.6923 -1.5109
13114TIP3    H260834   1.376   4.212  12.622  1.0138 -1.5662  0.9961
13115TIP3   OH260835   6.485   3.528   4.037  0.2072 -0.4481  0.5835
13115TIP3    H160836   6.409   3.559   3.989  0.0067  0.5462  1.5256
13115TIP3    H260837   6.510   3.447   3.992 -0.0675  0.3607 -1.0895
13116TIP3   OH260838   0.151   6.187  15.575 -0.3550 -0.4294 -0.0466
13116TIP3    H160839   0.069   6.228  15.602  0.5246  1.5169 -0.2057
13116TIP3    H260840   0.190   6.250  15.514  1.0909 -1.4780 -0.2281
13117TIP3   OH260841   3.878   4.561   2.549  0.1070 -0.2775 -0.4580
13117TIP3    H160842   3.825   4.584   2.473 -1.7962 -1.8667  0.3297
13117TIP3    H260843   3.845   4.618   2.619 -1.0086 -1.6279  0.1659
13118TIP3   OH260844   6.009   1.736  17.058 -0.2971  0.6732 -0.1798
13118TIP3    H160845   5.985   1.763  17.146  0.2640 -1.8906  0.8025
13118TIP3    H260846   6.075   1.799  17.030 -0.9520  1.8853  0.9555
13119TIP3   OH260847   5.845   3.486  16.902 -0.1766  0.2869  0.2732
13119TIP3    H160848   5.896   3.566  16.913 -0.7125  0.3312  2.8693
13119TIP3    H260849   5.768   3.512  16.851 -0.2581  1.3919  0.9532
13120TIP3   OH260850   6.437   6.063  12.847  0.4300  0.4382  0.4504
13120TIP3    H160851   6.526   6.028  12.856  0.1241 -0.3578  0.3435
13120TIP3    H260852   6.425   6.117  12.925  0.3074 -0.9939  1.4340
13121TIP3   OH260853   6.153   2.714   5.993  0.0750  0.9960 -0.0149
13121TIP3    H160854   6.127   2.797   6.032 -0.1005  0.0123  1.9930
13121TIP3    H260855   6.187   2.738   5.907 -2.1050  2.9043 -0.4006
13122TIP3   OH260856   5.360   5.061  15.851  0.1437 -0.9844  0.2906
13122TIP3    H160857   5.349   4.968  15.867  0.0391 -1.2485 -1.2692
13122TIP3    H260858   5.273   5.091  15.823 -0.0009 -0.2703  1.4328
13123TIP3   OH260859   3.009   6.337   2.464  0.2421  0.7256  0.4044
13123TIP3    H160860   3.008   6.272   2.535 -2.2204 -1.0351 -1.1607
13123TIP3    H260861   2.961   6.412   2.499 -0.2443  0.1940  0.8720
13124TIP3   OH260862   3.100   6.231   1.982 -0.4496  0.5381  0.1913
13124TIP3    H160863   3.083   6.149   1.935  0.6419  0.8482 -0.7707
13124TIP3    H260864   3.014   6.272   1.990 -1.4159 -1.8245  2.8593
13125TIP3   OH260865   0.153   1.257  11.230  0.2812  0.0291 -0.0857
13125TIP3    H160866   0.139   1.337  11.282 -0.1792 -0.3118  0.3188
13125TIP3    H260867   0.116   1.278  11.144 -0.9210 -0.1515  0.3702
13126TIP3   OH260868   3.725   4.665  15.111  0.2408 -0.1358  0.4982
13126TIP3    H160869   3.658   4.729  15.086  0.1871 -0.1167  0.6885
13126TIP3    H260870   3.785   4.715  15.167 -0.8181 -0.7276  2.1580
13127TIP3   OH260871   6.205   3.097  11.005 -0.1402  0.0898 -0.5724
13127TIP3    H160872   6.129   3.041  11.021 -0.0055 -0.4185 -1.6227
13127TIP3    H260873   6.267   3.074  11.074 -0.6581 -0.0223 -0.1460
13128TIP3   OH260874   0.853   6.047   1.126  0.0227  0.1439 -0.4924
13128TIP3    H160875   0.822   6.135   1.105  0.8363  0.3558 -0.8311
13128TIP3    H260876   0.948   6.055   1.131  0.0773 -0.6266 -0.0943
13129TIP3   OH260877   4.850   6.020   3.324 -0.0729  0.7175 -0.0761
13129TIP3    H160878   4.869   5.930   3.297 -0.5883  0.2366  1.1301
13129TIP3    H260879   4.892   6.029   3.409 -2.0870  0.8132  0.9426
13130TIP3   OH260880   0.888   1.659   5.498 -0.0275 -0.3458  0.1125
13130TIP3    H160881   0.959   1.624   5.444  0.6255  1.0688  0.0289
13130TIP3    H260882   0.810   1.611   5.469  0.2894  0.4579 -2.2081
13131TIP3   OH260883   5.181   3.935   0.684 -0.1955  0.2997 -0.4567
13131TIP3    H160884   5.186   4.029   0.703  2.0036  0.3515 -1.1624
13131TIP3    H260885   5.108   3.904   0.738  1.3206  1.7415  2.5155
13132TIP3   OH260886   6.762   4.762  14.389  0.1873  0.5853  0.4576
13132TIP3    H160887   6.818   4.684  14.391  1.9061  1.7998  0.6448
13132TIP3    H260888   6.808   4.823  14.331 -0.2191  2.1436  1.7483
13133TIP3   OH260889   4.045   2.527  13.243 -0.0484 -0.3484  0.1635
13133TIP3    H160890   4.020   2.619  13.249 -0.8104 -0.6667  2.2222
13133TIP3    H260891   3.981   2.488  13.183 -0.3279  0.2508  0.0712
13134TIP3   OH260892   4.066   4.380  15.961  0.3219  0.1228  0.6449
13134TIP3    H160893   4.023   4.419  16.037  0.4981 -0.0667  0.8418
13134TIP3    H260894   4.071   4.286  15.981  0.4191  0.0798  0.4257
13135TIP3   OH260895   5.308   3.822   3.217 -0.4250  0.1614 -0.0632
13135TIP3    H160896   5.388   3.794   3.174 -0.9348 -0.2303 -0.7733
13135TIP3    H260897   5.238   3.779   3.168 -1.1408  1.5187 -0.2640
13136TIP3   OH260898   1.930   1.357   5.223  0.5205  0.2603  0.8103
13136TIP3    H160899   1.967   1.317   5.144 -2.0183 -2.1681  0.7708
13136TIP3    H260900   1.963   1.303   5.294 -0.2331  0.1333  1.0652
13137TIP3   OH260901   2.132   0.801   5.448 -0.1063  0.1159  0.8116
13137TIP3    H160902   2.178   0.871   5.401 -0.7534 -0.4119 -0.6375
13137TIP3    H260903   2.056   0.781   5.393 -0.5819 -0.8944  1.8189
13138TIP3   OH260904   5.754   1.834  16.070  0.6645 -0.1776  0.1413
13138TIP3    H160905   5.741   1.929  16.072 -0.7901 -0.3737  0.8341
13138TIP3    H260906   5.763   1.809  16.162  1.3259 -0.6809 -0.0545
13139TIP3   OH260907   6.188   2.891   4.288  0.5674  0.2052 -0.3057
13139TIP3    H160908   6.224   2.975   4.313 -0.3758  1.0283 -1.6536
13139TIP3    H260909   6.221   2.875   4.200 -0.6153 -0.0401 -0.7136
13140TIP3   OH260910   0.587   2.706  16.902 -0.5391 -0.8596  0.5323
13140TIP3    H160911   0.533   2.766  16.953  2.6624  1.0643  1.7973
13140TIP3    H260912   0.644   2.663  16.966  2.1383  0.0823 -1.1318
13141TIP3   OH260913   2.334   3.337  17.066 -0.2722 -0.3684 -0.1991
13141TIP3    H160914   2.398   3.320  16.997 -0.9975 -1.5056 -0.6148
13141TIP3    H260915   2.262   3.380  17.021  0.5005  1.6061  0.4061
13142TIP3   OH260916   2.353   4.749   2.879 -0.2167  0.0554 -1.0892
13142TIP3    H160917   2.293   4.755   2.953 -0.6379 -0.6761 -1.3658
13142TIP3    H260918   2.401   4.832   2.881 -1.4945  0.8105 -1.0930
13143TIP3   OH260919   4.521   2.932   2.976 -0.0665 -0.3294 -0.0391
13143TIP3    H160920   4.521   2.842   3.009 -0.0084  0.9661  3.6607
13143TIP3    H260921   4.440   2.938   2.924 -1.0959 -1.9439  1.3104
13144TIP3   OH260922   5.586   1.151  16.561 -0.1631  0.3817  0.7629
13144TIP3    H160923   5.635   1.093  16.503 -1.8626 -0.1282 -0.1600
13144TIP3    H260924   5.505   1.105  16.581 -0.8810  1.7940  1.2229
13145TIP3   OH260925   4.649   6.134   1.456 -0.1234  0.4022  0.2052
13145TIP3    H160926   4.684   6.215   1.418 -1.3201  0.6170 -0.4372
13145TIP3    H260927   4.634   6.077   1.381 -0.3897  0.0084  0.5603
13146TIP3   OH260928   4.531   5.861  14.960 -0.3883 -0.0162  0.9608
13146TIP3    H160929   4.474   5.790  14.930  0.6003 -1.0214  1.4208
13146TIP3    H260930   4.490   5.941  14.927 -1.1722 -0.8536 -0.1008
13147TIP3   OH260931   2.462   0.045   1.260 -0.1897 -0.4772 -0.0605
13147TIP3    H160932   2.495   0.116   1.315 -1.8090  0.0805  0.2186
13147TIP3    H260933   2.370   0.067   1.246 -0.0322 -1.1106 -2.2247
13148TIP3   OH260934   5.363   1.405   1.299 -0.2109  0.1315  0.3123
13148TIP3    H160935   5.292   1.393   1.361  1.0373  0.2641  1.7909
13148TIP3    H260936   5.325   1.460   1.230 -2.5420 -2.6431 -0.6994
13149TIP3   OH260937   0.210   3.239   1.008 -0.2910 -0.3383  0.4296
13149TIP3    H160938   0.245   3.291   1.081  1.6527 -0.2180 -0.5498
13149TIP3    H260939   0.283   3.183   0.983 -1.1374 -0.7734 -1.0656
13150TIP3   OH260940   0.827   2.246  17.179  0.1097  0.0949  0.0107
13150TIP3    H160941   0.733   2.235  17.197  0.1764 -0.4812 -0.0188
13150TIP3    H260942   0.850   2.173  17.122  0.8168 -0.3436  0.8597
13151TIP3   OH260943   1.819   0.754   3.387  0.0678  0.3555 -0.3937
13151TIP3    H160944   1.835   0.745   3.293  0.9595  0.7973 -0.2859
13151TIP3    H260945   1.762   0.830   3.394  1.9876  1.8245 -0.3944
13152TIP3   OH260946   6.177   4.533  10.342 -0.0238  0.4185  0.1911
13152TIP3    H160947   6.094   4.569  10.311 -0.6837 -1.0483  0.2252
13152TIP3    H260948   6.239   4.551  10.272 -0.5135  0.9694 -0.1012
13153TIP3   OH260949   3.097   5.945  11.394 -0.3795  0.4036  0.1884
13153TIP3    H160950   3.115   6.038  11.383 -0.5463  0.5007  0.7124
13153TIP3    H260951   3.032   5.925  11.326 -1.4658  1.0122  1.0253
13154TIP3   OH260952   0.533   3.749   5.927  0.4670  0.2611  0.5787
13154TIP3    H160953   0.466   3.694   5.967  0.3733 -0.5250 -0.6173
13154TIP3    H260954   0.616   3.706   5.949  0.6207  1.4185  2.3408
13155TIP3   OH260955   3.871   5.084  13.831 -1.0838  0.0390  0.3973
13155TIP3    H160956   3.856   5.145  13.758 -0.5642 -0.3335 -0.0186
13155TIP3    H260957   3.838   5.131  13.908  1.2700  1.7340  0.4106
13156TIP3   OH260958   5.075   1.724   2.514  0.6693 -0.0680 -0.2227
13156TIP3    H160959   5.038   1.806   2.548  1.9288  0.7678 -0.8183
13156TIP3    H260960   5.170   1.737   2.520  0.9128 -0.2692 -3.1549
13157TIP3   OH260961   0.162   4.919   0.394  0.5806 -0.5025  0.2043
13157TIP3    H160962   0.154   4.837   0.443 -1.0382  0.4579  1.6237
13157TIP3    H260963   0.077   4.928   0.350  1.7630 -1.0040 -2.2862
13158TIP3   OH260964   5.829   3.093   2.450  0.6536  0.0925  0.1409
13158TIP3    H160965   5.914   3.056   2.424  0.5000 -0.3259  0.2236
13158TIP3    H260966   5.767   3.020   2.438  0.0316  0.8777 -1.5140
13159TIP3   OH260967   0.028   5.239   1.876 -0.5016 -0.3538 -0.1768
13159TIP3    H160968   0.034   5.295   1.954 -0.0277 -2.1871  1.1578
13159TIP3    H260969   0.119   5.230   1.846 -0.4207 -1.4165  0.3700
13160TIP3   OH260970   0.380   6.161  14.352 -0.2012  0.0796 -0.0414
13160TIP3    H160971   0.441   6.088  14.355  0.4912  0.5920 -1.4581
13160TIP3    H260972   0.370   6.187  14.444  1.1774 -0.4506  0.2713
13161TIP3   OH260973   5.888   4.470   3.313 -0.0436  0.3463  0.0385
13161TIP3    H160974   5.815   4.479   3.374  1.4954  0.6602  1.8650
13161TIP3    H260975   5.905   4.376   3.309  0.2963  0.3824  0.6234
13162TIP3   OH260976   2.599   2.599   2.254  0.3063 -0.0239 -0.3614
13162TIP3    H160977   2.670   2.594   2.318  0.0744 -3.6760 -0.3070
13162TIP3    H260978   2.521   2.615   2.307  0.3541 -1.3504  0.1217
13163TIP3   OH260979   3.811   0.154   2.461 -0.4298 -0.3522  0.1910
13163TIP3    H160980   3.744   0.109   2.513  0.7200 -2.1026  0.2101
13163TIP3    H260981   3.825   0.237   2.507 -1.4956 -0.6274  1.0449
13164TIP3   OH260982   1.433   3.971  16.339 -0.0658 -0.6600  0.3445
13164TIP3    H160983   1.491   3.927  16.401  2.0599  0.6672 -0.6284
13164TIP3    H260984   1.352   3.984  16.387  1.8582  1.2439  3.2359
13165TIP3   OH260985   3.585   4.644   3.619 -0.1459 -0.2762  0.1548
13165TIP3    H160986   3.533   4.578   3.665 -1.6177  1.3952  0.9529
13165TIP3    H260987   3.520   4.706   3.586  1.3230  1.6119  0.7610
13166TIP3   OH260988   1.860   3.928   0.090  0.3039  0.3615 -0.3368
13166TIP3    H160989   1.805   3.953   0.164  1.6161 -0.9082  1.1032
13166TIP3    H260990   1.801   3.881   0.031 -0.0434 -1.5567  1.4910
13167TIP3   OH260991   6.514   4.566   4.067  0.2869  0.2319 -0.5286
13167TIP3    H160992   6.453   4.492   4.065  0.8066 -0.1905 -0.7397
13167TIP3    H260993   6.601   4.526   4.067  0.5661  0.8168  0.3706
13168TIP3   OH260994   3.203   4.965  14.881 -0.1633  0.1507  0.6727
13168TIP3    H160995   3.126   4.923  14.919 -0.2867 -1.0841 -0.8857
13168TIP3    H260996   3.255   4.892  14.846  0.3891  1.1908 -0.7018
13169TIP3   OH260997   2.128   0.951   6.582  0.0031  0.2402 -0.2326
13169TIP3    H160998   2.175   0.998   6.513  0.8723  0.2793  0.3699
13169TIP3    H260999   2.039   0.986   6.579 -0.1041 -0.1202 -1.6571
13170TIP3   OH261000   0.861   2.154  16.243 -0.1015 -0.2850  0.5474
13170TIP3    H161001   0.870   2.125  16.152 -1.0789 -1.1593  0.7232
13170TIP3    H261002   0.926   2.103  16.291  2.3558  2.1485 -0.0629
13171TIP3   OH261003   0.673   4.096   1.745 -0.5869  0.3378 -0.6811
13171TIP3    H161004   0.745   4.136   1.792 -1.0418 -1.9378  2.1212
13171TIP3    H261005   0.607   4.165   1.738  0.5105  1.4414 -0.2171
13172TIP3   OH261006   1.897   1.743   0.686  0.4558  0.0488  0.3252
13172TIP3    H161007   1.819   1.743   0.742 -0.2348  0.7008 -0.6319
13172TIP3    H261008   1.915   1.651   0.670 -2.0220 -0.0721 -2.0713
13173TIP3   OH261009   3.248   0.031   1.193  0.7986 -0.1691  0.5144
13173TIP3    H161010   3.270   0.107   1.140 -0.7218  0.0802  0.2203
13173TIP3    H261011   3.158   0.046   1.221  1.8169  0.1160  3.8694
13174TIP3   OH261012   5.665   2.506  15.434  0.1261  0.1184  0.0888
13174TIP3    H161013   5.704   2.555  15.507  1.6406 -0.7316 -0.1210
13174TIP3    H261014   5.646   2.420  15.469 -0.7104  0.2311 -0.0747
13175TIP3   OH261015   3.981   1.937  11.367  0.2703  0.5717 -0.0753
13175TIP3    H161016   3.990   1.988  11.287 -0.5429  1.3795  0.3315
13175TIP3    H261017   3.920   1.867  11.345  1.5652 -0.3832 -0.6999
13176TIP3   OH261018   5.803   0.535  12.597  0.0421 -0.3716  0.6828
13176TIP3    H161019   5.883   0.586  12.608 -0.2722  0.3341 -0.2710
13176TIP3    H261020   5.821   0.478  12.523 -1.0274  1.1804 -0.8060
13177TIP3   OH261021   6.763   5.462   0.564 -0.2848  0.6074 -0.1827
13177TIP3    H161022   6.821   5.493   0.633 -0.1558 -2.0692  0.9539
13177TIP3    H261023   6.676   5.492   0.590  0.1064  1.8015 -0.2096
13178TIP3   OH261024   6.439   0.802  12.982 -0.2701 -0.4497  0.2258
13178TIP3    H161025   6.477   0.756  12.908  1.8623  0.4198  0.7419
13178TIP3    H261026   6.504   0.794  13.051 -0.6963  1.6988  0.9172
13179TIP3   OH261027   6.194   4.499   3.006  0.8542  0.7540 -0.5420
13179TIP3    H161028   6.231   4.430   2.952  0.5268 -1.2546  1.6997
13179TIP3    H261029   6.099   4.483   3.003  0.7465  1.3273 -0.2883
13180TIP3   OH261030   4.783   3.176  15.632  0.1068 -0.1212 -0.0867
13180TIP3    H161031   4.722   3.189  15.704  0.7995  1.3131  0.2569
13180TIP3    H261032   4.820   3.089  15.648 -0.0391  0.0159  1.0634
13181TIP3   OH261033   6.034   6.449   0.549 -0.2179  0.2117  0.0128
13181TIP3    H161034   5.967   6.441   0.618 -0.3085 -1.0480 -0.2144
13181TIP3    H261035   6.093   6.517   0.582 -1.6764  1.4631  0.1572
13182TIP3   OH261036   5.938   5.484  15.931 -0.1061 -0.1620  0.7319
13182TIP3    H161037   5.914   5.543  16.002 -1.1597 -0.3744  0.5649
13182TIP3    H261038   5.859   5.478  15.878  0.5105 -0.4097 -0.1752
13183TIP3   OH261039   1.364   6.341  12.725  0.1670  0.9891 -0.3084
13183TIP3    H161040   1.403   6.266  12.680  0.6629  1.9864 -1.5723
13183TIP3    H261041   1.362   6.410  12.659 -3.4735  1.0737 -0.2280
13184TIP3   OH261042   4.969   0.350   6.151  0.1004 -0.4447 -0.4029
13184TIP3    H161043   5.062   0.327   6.157  0.4863  1.0547 -0.4408
13184TIP3    H261044   4.961   0.428   6.205 -0.8138  0.3794 -1.7178
13185TIP3   OH261045   5.670   1.432  15.621  0.2351  0.3999 -0.0530
13185TIP3    H161046   5.635   1.459  15.536 -1.2505  2.3666  1.1229
13185TIP3    H261047   5.747   1.486  15.634  0.3608  0.2258 -0.0765
13186TIP3   OH261048   1.240   2.674  14.043  0.2136  0.5025 -0.2477
13186TIP3    H161049   1.171   2.607  14.051  0.5840  0.1973  0.3704
13186TIP3    H261050   1.319   2.624  14.024  0.1904  0.8861 -1.4280
13187TIP3   OH261051   1.273   1.276   1.745  0.1647  0.8462 -0.0067
13187TIP3    H161052   1.213   1.285   1.818  2.7763 -0.7345  2.4215
13187TIP3    H261053   1.323   1.358   1.744  0.7811  0.4812  0.6031
13188TIP3   OH261054   4.449   4.479  15.294  0.3849  0.2609  0.6182
13188TIP3    H161055   4.423   4.496  15.203 -1.0127 -0.3318  0.8980
13188TIP3    H261056   4.420   4.389  15.311  0.5739  0.3974  1.6756
13189TIP3   OH261057   6.754   4.285   0.694 -0.3448 -0.7207 -0.1633
13189TIP3    H161058   6.724   4.376   0.695  1.5565 -0.0661  0.0603
13189TIP3    H261059   6.674   4.233   0.703 -1.3158  0.9642  1.2684
13190TIP3   OH261060   5.771   4.016  11.960  0.2665 -0.1676 -0.0355
13190TIP3    H161061   5.718   4.085  12.000  1.4060  0.1398  0.9879
13190TIP3    H261062   5.851   4.014  12.014  1.0479 -0.9792 -1.2177
13191TIP3   OH261063   4.045   4.604  16.511  0.0499  0.0536  0.5929
13191TIP3    H161064   3.960   4.637  16.481  0.4525  0.0209 -0.6153
13191TIP3    H261065   4.048   4.514  16.478  0.0094 -0.3760  1.7476
13192TIP3   OH261066   0.352   1.181   0.382  0.5460  0.3635 -0.2285
13192TIP3    H161067   0.407   1.217   0.313  0.1260  0.1090 -0.6957
13192TIP3    H261068   0.379   1.229   0.461  0.8037  0.8770 -0.6220
13193TIP3   OH261069   0.797   2.849   3.978 -0.0711  0.2352  0.3149
13193TIP3    H161070   0.822   2.914   4.044  0.9076  0.1669  0.0209
13193TIP3    H261071   0.879   2.807   3.954 -0.7158 -1.2128  0.5894
13194TIP3   OH261072   0.666   6.239   3.477  0.4644  0.9318  0.0002
13194TIP3    H161073   0.648   6.210   3.388  0.7312  0.5976  0.0507
13194TIP3    H261074   0.583   6.275   3.509 -0.3848 -1.4193  0.5461
13195TIP3   OH261075   3.143   1.709   5.417  0.2809  0.5373  0.3867
13195TIP3    H161076   3.113   1.666   5.336  2.7896 -1.4429  0.4776
13195TIP3    H261077   3.169   1.797   5.388  1.0141 -0.0976 -0.9312
13196TIP3   OH261078   6.459   0.942  10.657 -0.0256 -0.2942  0.5275
13196TIP3    H161079   6.414   0.860  10.676  0.2428 -0.4678  0.4189
13196TIP3    H261080   6.541   0.916  10.615  0.1029  0.0259  0.5755
13197TIP3   OH261081   3.993   6.121   4.880 -0.5196  0.0918 -0.1664
13197TIP3    H161082   4.081   6.097   4.908 -0.7875 -0.8024 -0.0811
13197TIP3    H261083   3.996   6.216   4.872  0.7824 -0.0119 -1.2753
13198TIP3   OH261084   1.356   5.652   0.568  0.0482  0.2009  0.2583
13198TIP3    H161085   1.338   5.731   0.516  0.8547 -0.5660 -1.2366
13198TIP3    H261086   1.290   5.653   0.637 -0.1051  2.0548  0.1089
13199TIP3   OH261087   0.905   2.718  14.679  0.4250  0.0498 -0.2279
13199TIP3    H161088   0.867   2.774  14.612  1.7835 -0.3432 -1.3446
13199TIP3    H261089   0.972   2.772  14.720 -1.0995  0.6499  1.5630
13200TIP3   OH261090   6.762   3.013  16.780 -0.4080 -0.1156 -0.5866
13200TIP3    H161091   6.786   3.099  16.814  0.5083 -0.5571 -0.0978
13200TIP3    H261092   6.727   2.966  16.855  1.2292 -0.9478 -0.3163
13201TIP3   OH261093   6.254   3.038  13.516 -0.2834  0.3814  0.0129
13201TIP3    H161094   6.245   3.046  13.611  0.3189  3.6274 -0.1198
13201TIP3    H261095   6.308   2.961  13.503  1.8310  1.3562  2.4779
13202TIP3   OH261096   5.436   2.106  10.967 -0.4391  0.2538 -0.2868
13202TIP3    H161097   5.440   2.197  10.938  0.6208  0.1723 -0.4238
13202TIP3    H261098   5.396   2.059  10.894  1.3884  0.2009 -1.2845
13203TIP3   OH261099   6.521   2.932  15.244  0.2714  0.1512  0.4629
13203TIP3    H161100   6.530   2.838  15.228 -0.9847  0.0763  0.1187
13203TIP3    H261101   6.605   2.968  15.219  1.0021 -0.9661  1.2518
13204TIP3   OH261102   1.056   5.185  13.282  0.6433 -0.2845  0.0177
13204TIP3    H161103   1.065   5.091  13.301  0.6025 -0.6412 -1.6275
13204TIP3    H261104   1.106   5.198  13.201  0.8368  1.1664  0.3541
13205TIP3   OH261105   4.773   1.528   2.780 -0.8521 -0.7127 -0.3145
13205TIP3    H161106   4.711   1.567   2.719 -1.1466  0.8346  0.9404
13205TIP3    H261107   4.854   1.520   2.730 -0.7082  1.7969 -0.5347
13206TIP3   OH261108   5.369   0.816   2.827 -0.2241 -0.0364  0.4298
13206TIP3    H161109   5.321   0.740   2.860  0.6845 -1.4103 -1.3861
13206TIP3    H261110   5.452   0.813   2.874 -0.2770 -0.0242  0.5248
13207TIP3   OH261111   5.192   2.555   1.144  0.6124 -0.1030  0.7865
13207TIP3    H161112   5.239   2.636   1.127  0.8814 -0.4073  0.0489
13207TIP3    H261113   5.113   2.560   1.090  0.6480 -0.3481  0.7101
13208TIP3   OH261114   0.398   6.297  15.329 -0.4525  0.1635 -0.2517
13208TIP3    H161115   0.409   6.202  15.324 -0.0453  0.1768  0.3253
13208TIP3    H261116   0.487   6.332  15.334 -0.4541  0.7881 -3.5569
13209TIP3   OH261117   3.703   1.446  16.316  0.2649 -0.1101 -0.4725
13209TIP3    H161118   3.761   1.514  16.350  0.0693  0.2554 -0.8614
13209TIP3    H261119   3.757   1.368  16.313  0.3849 -0.0575  0.3320
13210TIP3   OH261120   3.048   1.579   3.763 -0.1391 -0.7827  0.3684
13210TIP3    H161121   3.066   1.656   3.816  2.2815 -1.0774  0.0105
13210TIP3    H261122   3.064   1.505   3.821 -2.0020 -1.0409  0.5739
13211TIP3   OH261123   0.781   5.747   1.730 -0.2074  0.1974  0.0395
13211TIP3    H161124   0.800   5.824   1.677 -2.6751  0.0743 -1.0859
13211TIP3    H261125   0.772   5.676   1.666  0.7183 -0.7581  0.9583
13212TIP3   OH261126   0.690   5.549  13.474  0.4744  0.6995 -0.2858
13212TIP3    H161127   0.727   5.468  13.438  1.1099  0.8670 -0.0302
13212TIP3    H261128   0.752   5.617  13.448 -0.5323  1.2466 -1.2815
13213TIP3   OH261129   6.535   1.784   4.327  0.2800  0.2943  0.1895
13213TIP3    H161130   6.583   1.722   4.273  0.2668  0.3726  0.0879
13213TIP3    H261131   6.457   1.805   4.275  0.9249  1.3978 -0.3592
13214TIP3   OH261132   4.648   1.172   3.893 -0.2403 -0.0745 -0.0735
13214TIP3    H161133   4.572   1.118   3.873 -0.2628  0.6175 -1.9499
13214TIP3    H261134   4.717   1.139   3.836  0.4444  0.2751  0.5478
13215TIP3   OH261135   6.063   1.774  14.456  0.0431 -0.0021  0.3918
13215TIP3    H161136   6.027   1.689  14.431  0.2232  0.0530 -0.0778
13215TIP3    H261137   5.990   1.821  14.495  0.0836 -0.5721  1.1481
13216TIP3   OH261138   6.643   3.593   4.393  0.1173 -0.3829 -0.2085
13216TIP3    H161139   6.667   3.589   4.300 -0.9122 -0.1185 -0.4884
13216TIP3    H261140   6.552   3.566   4.396 -0.6951  2.2545  0.3865
13217TIP3   OH261141   0.762   4.701   5.585 -0.0527  0.7055  0.1767
13217TIP3    H161142   0.699   4.647   5.537 -0.9881  1.8652  0.0818
13217TIP3    H261143   0.848   4.665   5.560 -0.6545 -0.7446  0.1362
13218TIP3   OH261144   2.845   0.702  15.883  0.8765 -0.1498 -0.1107
13218TIP3    H161145   2.887   0.723  15.967  0.3741 -0.4692  0.2235
13218TIP3    H261146   2.766   0.757  15.881  0.7666 -0.3121 -0.2674
13219TIP3   OH261147   3.868   6.246   3.771  0.1853  0.2067  0.6798
13219TIP3    H161148   3.943   6.305   3.758 -0.3459  0.4852 -1.4027
13219TIP3    H261149   3.906   6.168   3.812  2.1904 -0.7750 -2.7478
13220TIP3   OH261150   4.168   6.612  16.508 -0.3801  0.4447 -0.8646
13220TIP3    H161151   4.177   6.558  16.429 -1.2334 -1.2253  0.1672
13220TIP3    H261152   4.241   6.584  16.564 -0.5697  0.6869 -0.5031
13221TIP3   OH261153   2.281   6.549   6.165 -0.2276  0.4092 -1.4098
13221TIP3    H161154   2.208   6.610   6.149 -0.8194 -0.2752 -1.3625
13221TIP3    H261155   2.329   6.588   6.238 -0.6091  0.8225 -1.3753
13222TIP3   OH261156   5.008   1.005   1.160 -0.3203  1.0021 -0.3916
13222TIP3    H161157   4.929   1.024   1.211 -0.8557  0.2146 -0.9314
13222TIP3    H261158   5.074   1.063   1.198 -1.4018  2.4154 -0.6203
13223TIP3   OH261159   4.234   1.251  10.964 -0.1230 -0.2221 -0.5771
13223TIP3    H161160   4.293   1.279  10.895 -1.3078 -0.4061 -1.6885
13223TIP3    H261161   4.158   1.216  10.917 -1.2829  0.3975  0.8334
13224TIP3   OH261162   4.946   6.603   1.141  0.0069 -0.5799  0.2560
13224TIP3    H161163   5.009   6.632   1.207 -0.0547 -2.2980  1.1198
13224TIP3    H261164   4.997   6.546   1.083 -0.4651 -0.9447  0.1939
13225TIP3   OH261165   0.222   4.367   2.300  0.0833 -0.2606  0.7429
13225TIP3    H161166   0.305   4.351   2.256  0.3829  0.3038  1.0931
13225TIP3    H261167   0.156   4.332   2.241  0.3835  1.6075 -0.7291
13226TIP3   OH261168   0.975   2.785  10.265  0.1291  0.4870 -0.1810
13226TIP3    H161169   0.951   2.723  10.334  1.6715  0.5838  0.4570
13226TIP3    H261170   0.997   2.865  10.311  0.6896  0.7101 -0.8307
13227TIP3   OH261171   4.437   3.896  14.331 -0.1321 -0.0570 -0.7313
13227TIP3    H161172   4.481   3.889  14.246 -0.3619 -1.2559 -0.7646
13227TIP3    H261173   4.397   3.810  14.344  0.1587  0.0260  0.7441
13228TIP3   OH261174   4.238   1.966  16.709 -0.5829 -0.7481 -0.0191
13228TIP3    H161175   4.302   2.029  16.676  0.9797 -2.4173 -0.3210
13228TIP3    H261176   4.163   1.975  16.650 -0.1331  0.3766 -0.4446
13229TIP3   OH261177   2.720   1.260   1.815  0.0803  0.5658  0.0656
13229TIP3    H161178   2.721   1.330   1.881 -0.3516  0.4957  0.1474
13229TIP3    H261179   2.724   1.180   1.867 -0.3809  0.5081  0.0100
13230TIP3   OH261180   4.206   0.706   5.778 -0.4213 -0.0876 -0.4607
13230TIP3    H161181   4.250   0.648   5.840  0.3823  0.4044 -0.5496
13230TIP3    H261182   4.140   0.651   5.736  0.3104 -0.9308 -0.5262
13231TIP3   OH261183   5.733   4.929   4.821 -0.0771  0.0462 -0.1025
13231TIP3    H161184   5.691   4.994   4.876 -2.8838 -1.4122 -0.4679
13231TIP3    H261185   5.801   4.890   4.877 -1.2665  0.2744  1.5157
13232TIP3   OH261186   5.629   4.078   2.004  0.4662  0.7836 -0.5261
13232TIP3    H161187   5.533   4.075   2.009  0.4487  0.8865 -0.7699
13232TIP3    H261188   5.651   4.015   1.935  0.4701  1.8689 -1.5404
13233TIP3   OH261189   2.455   3.162   5.427  0.4668  0.3436 -0.1831
13233TIP3    H161190   2.397   3.236   5.411 -1.4378 -0.8314  1.0256
13233TIP3    H261191   2.504   3.186   5.506  0.2654  0.5742 -0.1286
13234TIP3   OH261192   0.487   0.625  13.926 -0.3274 -0.0552 -0.0371
13234TIP3    H161193   0.480   0.713  13.963  2.0241  0.5157 -0.8351
13234TIP3    H261194   0.400   0.607  13.890 -0.7562  2.0658 -0.1310
13235TIP3   OH261195   6.690   6.306  11.794 -0.1216 -0.1054 -0.1577
13235TIP3    H161196   6.627   6.252  11.841 -0.3314 -1.0424 -1.4803
13235TIP3    H261197   6.751   6.336  11.861 -0.5639 -1.1833  0.7361
13236TIP3   OH261198   4.803   3.561  17.289 -0.3650 -0.0961  0.1334
13236TIP3    H161199   4.838   3.559  17.378  0.4428  0.8417 -0.1616
13236TIP3    H261200   4.735   3.494  17.289  0.2572 -0.7452  1.2015
13237TIP3   OH261201   2.368   0.044  13.738  0.1761  0.2215 -0.8445
13237TIP3    H161202   2.279   0.031  13.705 -0.0363 -2.3557  0.5749
13237TIP3    H261203   2.419   0.071  13.661 -1.5676  0.4474 -1.9403
13238TIP3   OH261204   5.437   5.277  15.301 -0.3919  0.2768  0.0050
13238TIP3    H161205   5.472   5.310  15.219 -0.6142 -0.5153 -0.4179
13238TIP3    H261206   5.344   5.297  15.297 -0.2941  0.7938  0.3398
13239TIP3   OH261207   4.079   1.713  16.778  0.0691  0.9526  0.5769
13239TIP3    H161208   4.050   1.762  16.855 -0.3385  3.0647 -0.8826
13239TIP3    H261209   4.129   1.776  16.726 -0.6193 -0.0963 -1.4357
13240TIP3   OH261210   3.888   0.754  11.713  0.8751  0.0967 -0.1054
13240TIP3    H161211   3.858   0.833  11.668  0.7893  0.6517  0.9137
13240TIP3    H261212   3.808   0.717  11.752  1.2574  0.7474  1.3252
13241TIP3   OH261213   2.142   1.980  11.805 -0.2138  0.5769  0.3524
13241TIP3    H161214   2.121   1.908  11.745  0.4876  0.4500  0.2613
13241TIP3    H261215   2.222   1.951  11.849  0.5200  1.6618 -0.2627
13242TIP3   OH261216   0.851   4.362  14.373  0.2256  0.3731 -0.5665
13242TIP3    H161217   0.933   4.342  14.327 -0.0627 -1.6976 -0.2350
13242TIP3    H261218   0.876   4.371  14.465  0.2147  0.6775 -0.5917
13243TIP3   OH261219   3.254   3.931   3.460  0.3189 -0.6081 -0.1981
13243TIP3    H161220   3.204   4.006   3.429  1.0009 -0.5972 -1.3035
13243TIP3    H261221   3.190   3.876   3.506 -0.6046 -0.3629 -1.1741
13244TIP3   OH261222   5.918   6.199  14.824  0.3109  0.0129 -0.2486
13244TIP3    H161223   5.990   6.262  14.823  0.8215 -0.5361  1.2086
13244TIP3    H261224   5.951   6.125  14.875 -0.7317 -0.9106 -0.8779
13245TIP3   OH261225   5.013   2.762  16.129  0.3292 -0.1954 -0.4853
13245TIP3    H161226   5.008   2.752  16.034  0.7067 -0.1596 -0.5097
13245TIP3    H261227   4.924   2.742  16.160 -0.0688  0.8501 -0.9359
13246TIP3   OH261228   6.431   4.131   1.350 -0.4846 -0.3617 -0.1985
13246TIP3    H161229   6.440   4.065   1.419 -0.8682  0.2307  0.4328
13246TIP3    H261230   6.336   4.144   1.341 -0.3892  1.7814  1.3327
13247TIP3   OH261231   5.783   3.675  11.721  0.1297 -0.7353 -0.7175
13247TIP3    H161232   5.878   3.669  11.734  0.0635  1.3392  0.9618
13247TIP3    H261233   5.774   3.700  11.629  1.2429 -0.2890 -0.7173
13248TIP3   OH261234   0.344   3.007   1.153  0.1529 -0.1092 -0.1746
13248TIP3    H161235   0.252   3.029   1.157  0.0214 -0.2964 -1.7799
13248TIP3    H261236   0.348   2.930   1.096  1.0757 -1.3878  1.5872
13249TIP3   OH261237   6.077   1.037  13.387 -0.2591 -0.0069 -0.1489
13249TIP3    H161238   6.071   1.118  13.337 -0.1807  0.2232  0.2114
13249TIP3    H261239   6.102   0.971  13.322 -0.9726  0.1312 -0.5623
13250TIP3   OH261240   1.185   5.347   0.446 -0.6535  0.8894 -0.2828
13250TIP3    H161241   1.174   5.337   0.541  0.5636 -0.2295 -0.2396
13250TIP3    H261242   1.262   5.404   0.438  1.3274 -1.7007 -0.5643
13251TIP3   OH261243   3.490   5.656  13.134 -0.0452  0.4320 -0.4668
13251TIP3    H161244   3.539   5.576  13.114  0.2134  0.2539  0.8172
13251TIP3    H261245   3.556   5.725  13.139 -0.0484  0.3974  0.1525
13252TIP3   OH261246   2.308   0.654   5.271 -0.0406 -0.3001  0.3192
13252TIP3    H161247   2.403   0.639   5.275 -0.0019 -0.2856 -0.4017
13252TIP3    H261248   2.282   0.671   5.361  0.7925  0.5465  0.4067
13253TIP3   OH261249   6.144   4.314  17.216  0.0007  0.0969 -0.1228
13253TIP3    H161250   6.057   4.300  17.177  0.0441 -0.5996  0.0251
13253TIP3    H261251   6.127   4.321  17.310  0.1845 -0.7134 -0.0299
13254TIP3   OH261252   0.956   2.923   1.935  0.0754  0.5611  0.2100
13254TIP3    H161253   1.025   2.972   1.891  0.1933  0.1204 -0.0893
13254TIP3    H261254   0.905   2.991   1.981 -0.2047  1.0447 -0.8073
13255TIP3   OH261255   6.041   3.349  11.991 -0.3619  0.2350  0.3828
13255TIP3    H161256   6.001   3.310  12.069 -0.4150 -0.5908 -0.0511
13255TIP3    H261257   6.133   3.325  11.996 -0.4639 -0.2555 -0.0731
13256TIP3   OH261258   3.782   1.629   3.052 -0.3873 -0.0539  0.5430
13256TIP3    H161259   3.740   1.675   2.979 -2.3498 -0.3818  1.4306
13256TIP3    H261260   3.823   1.552   3.011 -1.7952 -0.4407 -0.1833
13257TIP3   OH261261   4.389   3.068  17.058  0.2781  0.2184  0.4479
13257TIP3    H161262   4.425   3.015  17.130 -0.1917 -0.2739  0.3248
13257TIP3    H261263   4.309   3.023  17.034 -1.2727  2.1792  1.7895
13258TIP3   OH261264   4.030   4.523  17.225 -0.2512  0.2634  0.0963
13258TIP3    H161265   3.963   4.492  17.164  1.1846 -1.2147 -0.7453
13258TIP3    H261266   4.112   4.485  17.193  0.5306 -0.5747  2.9357
13259TIP3   OH261267   6.202   4.908   1.690 -0.2834  0.2720  0.1457
13259TIP3    H161268   6.137   4.963   1.646  0.6838  0.7614 -0.7127
13259TIP3    H261269   6.181   4.916   1.783 -1.8028 -0.0504 -0.1515
13260TIP3   OH261270   1.505   3.217  10.610 -0.3911 -0.3832  0.0662
13260TIP3    H161271   1.563   3.290  10.589  0.9901 -0.9670  1.6661
13260TIP3    H261272   1.420   3.257  10.624  0.3181  0.9261  0.7602
13261TIP3   OH261273   0.163   2.428   5.464  0.0563 -0.0590 -0.4923
13261TIP3    H161274   0.164   2.522   5.443 -0.2907  0.0767  0.0810
13261TIP3    H261275   0.110   2.422   5.544  0.1749 -0.7312 -0.4620
13262TIP3   OH261276   1.830   4.016  13.882  0.2315 -0.1291  0.8562
13262TIP3    H161277   1.881   3.962  13.822  2.4437  0.5881  2.0391
13262TIP3    H261278   1.813   4.097  13.834 -1.5083 -1.1175 -0.2465
13263TIP3   OH261279   0.758   1.138  17.023 -0.2342 -0.1090 -0.7340
13263TIP3    H161280   0.835   1.083  17.009 -0.2162 -0.7889  1.8198
13263TIP3    H261281   0.779   1.221  16.981  1.7977 -0.3543 -0.2420
13264TIP3   OH261282   5.982   0.144   2.708  0.2936  0.0845  0.2405
13264TIP3    H161283   6.066   0.126   2.664  0.3394  1.3191 -0.1982
13264TIP3    H261284   5.918   0.093   2.659  0.6562 -0.1854  0.0430
13265TIP3   OH261285   1.645   0.771  15.164  0.0993 -0.5592 -0.2142
13265TIP3    H161286   1.709   0.830  15.124  0.0905 -0.4990 -0.1385
13265TIP3    H261287   1.635   0.803  15.253 -2.1620  1.1269 -1.0443
13266TIP3   OH261288   0.729   3.717  11.086  0.0835 -0.7530 -0.0810
13266TIP3    H161289   0.648   3.676  11.056  0.1772 -0.3321 -0.9400
13266TIP3    H261290   0.700   3.799  11.126  0.2985  0.9496 -3.2455
13267TIP3   OH261291   1.672   1.313  13.399  0.8940 -0.0147  0.1615
13267TIP3    H161292   1.640   1.265  13.322  2.4771  1.3556 -1.4069
13267TIP3    H261293   1.702   1.397  13.364 -0.7033  1.6771  2.6782
13268TIP3   OH261294   5.377   0.569  16.259 -0.1160 -0.4865  0.3986
13268TIP3    H161295   5.296   0.570  16.208 -0.4722 -1.1355  0.9484
13268TIP3    H261296   5.366   0.498  16.321  1.1991 -1.0895 -0.0265
13269TIP3   OH261297   2.620   2.089   0.452  0.1841 -0.2191 -0.1816
13269TIP3    H161298   2.654   2.162   0.504 -3.7559  2.9286 -1.7269
13269TIP3    H261299   2.641   2.111   0.361 -1.5695 -0.6435 -0.7282
13270TIP3   OH261300   6.762   3.765   4.928 -0.4926 -0.2663  0.1498
13270TIP3    H161301   6.765   3.776   5.023  5.7057  0.1109  0.0600
13270TIP3    H261302   6.736   3.851   4.895 -0.1928  0.3136  1.3910
13271TIP3   OH261303   0.383   3.109   5.227 -0.4383  0.3439  0.4287
13271TIP3    H161304   0.306   3.156   5.260 -0.8385  2.2627 -2.9793
13271TIP3    H261305   0.452   3.176   5.225  0.2774 -0.4085 -0.1087
13272TIP3   OH261306   5.412   4.427   2.030 -0.3020 -0.1681 -0.8126
13272TIP3    H161307   5.361   4.347   2.039  1.0304 -0.7794  1.5491
13272TIP3    H261308   5.495   4.409   2.075  1.1067  1.5911 -2.5833
13273TIP3   OH261309   2.435   5.103   2.552  0.0622  0.0665 -0.2419
13273TIP3    H161310   2.366   5.161   2.521 -2.9950 -3.1800  0.1871
13273TIP3    H261311   2.512   5.128   2.502 -1.4320  3.6858 -0.8454
13274TIP3   OH261312   1.601   5.978  11.518 -0.2985  0.1342  0.0776
13274TIP3    H161313   1.546   6.040  11.469  1.4870  0.7880 -1.1399
13274TIP3    H261314   1.592   5.895  11.470 -0.0467  0.2928 -0.2448
13275TIP3   OH261315   4.321   4.758   5.621 -0.8957 -0.0710  0.0185
13275TIP3    H161316   4.416   4.744   5.613 -0.5435  1.7885  0.7554
13275TIP3    H261317   4.306   4.771   5.715 -1.7588  0.4117 -0.1780
13276TIP3   OH261318   3.797   0.727   5.862  0.0411 -0.7920 -0.1176
13276TIP3    H161319   3.716   0.776   5.879  1.3593  1.3973  0.0090
13276TIP3    H261320   3.829   0.761   5.779  1.4883 -0.7072  0.4533
13277TIP3   OH261321   4.139   4.667  15.672 -0.3766 -0.0843 -0.2204
13277TIP3    H161322   4.149   4.634  15.583 -0.2396 -2.4965  0.6338
13277TIP3    H261323   4.045   4.683  15.682 -0.4207 -0.0232 -0.7259
13278TIP3   OH261324   3.434   1.458  12.309 -0.3678 -0.4742  0.1176
13278TIP3    H161325   3.426   1.527  12.374  0.3557  0.9164 -1.2383
13278TIP3    H261326   3.347   1.418  12.306 -0.4660 -0.4004  1.7491
13279TIP3   OH261327   4.070   2.848  12.950 -0.4676  0.2053 -0.3323
13279TIP3    H161328   4.073   2.758  12.917 -3.9784  0.6094 -1.9648
13279TIP3    H261329   4.055   2.839  13.044 -0.7060 -0.9269 -0.4716
13280TIP3   OH261330   2.960   5.211  13.443 -0.6031  0.1380  0.5037
13280TIP3    H161331   2.872   5.250  13.446  0.1270  1.7310  1.8786
13280TIP3    H261332   3.011   5.272  13.390 -0.4612 -1.0807 -0.7707
13281TIP3   OH261333   1.601   3.830  16.507  0.0516 -0.2208 -0.3294
13281TIP3    H161334   1.535   3.815  16.574 -0.4980 -0.6640 -0.9572
13281TIP3    H261335   1.656   3.751  16.509 -1.0504 -1.0429 -1.6117
13282TIP3   OH261336   0.871   4.379   5.819  0.2818 -0.2736  0.3149
13282TIP3    H161337   0.955   4.423   5.808 -0.3368  1.2036  1.3441
13282TIP3    H261338   0.821   4.436   5.877 -0.3460 -2.6106  2.1628
13283TIP3   OH261339   6.685   6.537   5.404 -0.5118 -0.1019 -0.0578
13283TIP3    H161340   6.774   6.540   5.370  0.1052 -2.1544  1.2667
13283TIP3    H261341   6.685   6.600   5.476  0.7803 -2.1822  1.8546
13284TIP3   OH261342   5.268   1.907  13.355  0.0259 -0.5504  0.3420
13284TIP3    H161343   5.263   1.943  13.266  1.3606 -0.4048  0.3270
13284TIP3    H261344   5.193   1.848  13.361 -0.1400 -0.4666 -0.8363
13285TIP3   OH261345   5.751   3.636   0.657 -0.0099  0.3303 -0.2748
13285TIP3    H161346   5.690   3.692   0.608 -0.4035 -1.5806 -2.0106
13285TIP3    H261347   5.835   3.681   0.652 -1.1302  2.8062  1.8081
13286TIP3   OH261348   1.648   2.926  13.253 -0.3788 -0.2748 -0.4172
13286TIP3    H161349   1.630   2.962  13.340  1.5504 -2.7603  1.0915
13286TIP3    H261350   1.740   2.899  13.257 -0.6443 -1.6522 -2.7744
13287TIP3   OH261351   5.027   5.285   1.001  0.2170  0.7719  0.2791
13287TIP3    H161352   5.054   5.235   1.079  2.2735  1.3723 -0.0013
13287TIP3    H261353   5.019   5.375   1.032  0.0340  0.8438  0.0212
13288TIP3   OH261354   0.119   1.951   0.344 -0.8108  0.3594 -0.0327
13288TIP3    H161355   0.188   1.894   0.309 -0.0263  2.1116 -1.4428
13288TIP3    H261356   0.121   1.937   0.438 -0.8522 -2.1669 -0.3705
13289TIP3   OH261357   2.091   3.959  13.753 -0.1961  0.3381  0.0566
13289TIP3    H161358   2.133   3.970  13.668 -0.4603  1.3189  0.0446
13289TIP3    H261359   2.090   4.047  13.791  1.3484 -0.3570  1.7658
13290TIP3   OH261360   2.141   6.335  15.495  0.2745 -0.1597  0.0195
13290TIP3    H161361   2.150   6.430  15.497  0.0231 -0.1521  1.0331
13290TIP3    H261362   2.225   6.302  15.527 -0.4857 -0.2221  2.0376
13291TIP3   OH261363   1.406   3.534   2.407 -0.1466 -0.4328  0.6152
13291TIP3    H161364   1.344   3.508   2.475 -0.3642  1.0020  0.9965
13291TIP3    H261365   1.491   3.507   2.442 -0.5703 -2.8301 -0.1258
13292TIP3   OH261366   6.541   0.750   3.791 -0.3985  0.3578 -0.9316
13292TIP3    H161367   6.446   0.750   3.802 -0.4190 -1.3376 -0.9684
13292TIP3    H261368   6.573   0.687   3.856  0.5573 -0.2231 -1.9283
13293TIP3   OH261369   5.597   4.984  14.949 -0.0635  0.0287  0.4270
13293TIP3    H161370   5.603   4.979  14.853 -1.1592  1.3157  0.2782
13293TIP3    H261371   5.593   4.892  14.977  1.6618 -0.4021 -0.6511
13294TIP3   OH261372   0.828   5.317   0.513 -0.3080 -0.0754  0.0105
13294TIP3    H161373   0.749   5.369   0.526 -0.0337  0.2085  0.6007
13294TIP3    H261374   0.832   5.259   0.589  1.4738  1.8069  1.4211
13295TIP3   OH261375   3.430   3.636  11.909 -0.6303 -0.0532  0.0139
13295TIP3    H161376   3.444   3.665  11.819  1.7542 -0.5649  0.1838
13295TIP3    H261377   3.518   3.630  11.946 -1.4830 -1.3133  1.9127
13296TIP3   OH261378   3.927   2.615  11.602  0.1341  0.9691  0.0498
13296TIP3    H161379   3.911   2.602  11.508 -0.4715  2.6348 -0.0945
13296TIP3    H261380   3.852   2.576  11.645  0.3107  0.3835 -0.1723
13297TIP3   OH261381   0.242   5.484   1.233 -0.3299  0.0340 -0.2993
13297TIP3    H161382   0.208   5.427   1.302 -0.1647 -0.8845 -0.9703
13297TIP3    H261383   0.165   5.529   1.198 -0.2389  1.6542  1.4970
13298TIP3   OH261384   3.978   2.341   1.971 -0.1200 -0.0921 -0.1864
13298TIP3    H161385   3.911   2.340   1.903  0.3124 -0.7578 -0.6134
13298TIP3    H261386   3.981   2.431   2.001  1.3140  0.7382 -2.6895
13299TIP3   OH261387   2.969   6.134  11.157  0.0604  0.2825  0.3861
13299TIP3    H161388   2.937   6.069  11.095  0.6666 -0.2181  0.5973
13299TIP3    H261389   2.958   6.218  11.111  1.3951 -0.1659 -0.7838
13300TIP3   OH261390   0.197   2.121  16.312  0.4450  0.0464  0.0448
13300TIP3    H161391   0.180   2.127  16.218 -0.2677  0.3437  0.1948
13300TIP3    H261392   0.264   2.052  16.319  0.2168 -0.2481 -0.6413
13301TIP3   OH261393   5.911   3.760   4.577 -0.0241  0.4381 -0.2998
13301TIP3    H161394   5.988   3.788   4.527  0.8041 -0.2679  0.5469
13301TIP3    H261395   5.885   3.678   4.536 -0.0240  0.4313 -0.2864
13302TIP3   OH261396   2.344   4.367   2.840  0.0188  0.1838 -0.6832
13302TIP3    H161397   2.335   4.297   2.776  0.7001 -0.1303 -0.4427
13302TIP3    H261398   2.435   4.394   2.835  0.5723 -1.1422  1.4636
13303TIP3   OH261399   5.795   0.436   4.656  0.1669 -0.0048 -0.1636
13303TIP3    H161400   5.708   0.444   4.696 -0.5761  1.6702 -2.0326
13303TIP3    H261401   5.855   0.449   4.730 -1.1554 -0.5126  1.0436
13304TIP3   OH261402   2.026   3.341   5.586  0.5061 -0.1592  0.3099
13304TIP3    H161403   1.953   3.281   5.571  2.2816 -2.1976 -0.3276
13304TIP3    H261404   2.079   3.299   5.654  2.1571  0.3436 -0.6477
13305TIP3   OH261405   0.996   4.783  12.117  0.3559 -0.3812  0.2539
13305TIP3    H161406   1.004   4.708  12.058  0.7603 -0.5625  0.5323
13305TIP3    H261407   0.955   4.747  12.196  0.9029 -0.3928  0.5356
13306TIP3   OH261408   4.514   0.632  14.418 -0.3894  0.0177 -0.3497
13306TIP3    H161409   4.598   0.615  14.461 -0.9830  0.4109  1.0089
13306TIP3    H261410   4.450   0.629  14.490 -1.3058  1.4468 -1.0966
13307TIP3   OH261411   6.431   3.569  16.642  0.0626 -0.4327  0.1121
13307TIP3    H161412   6.428   3.481  16.681 -3.7672 -1.0654 -1.3349
13307TIP3    H261413   6.452   3.554  16.550 -2.9611 -0.1588 -0.6871
13308TIP3   OH261414   0.905   6.018  14.802 -0.8331 -0.0804  0.1980
13308TIP3    H161415   0.910   6.017  14.898 -0.5252 -1.8642  0.1656
13308TIP3    H261416   0.980   5.966  14.774 -1.0972  0.1938 -1.0246
13309TIP3   OH261417   0.059   4.350  15.266  0.2053  0.0734 -0.4664
13309TIP3    H161418   0.086   4.318  15.181 -1.0160 -0.5620 -0.6229
13309TIP3    H261419   0.010   4.431  15.247  0.1543  0.0706 -0.3497
13310TIP3   OH261420   3.857   6.743   0.723  0.6125  0.2250 -0.2020
13310TIP3    H161421   3.767   6.739   0.757  0.4656  2.6717 -0.2014
13310TIP3    H261422   3.888   6.653   0.726 -1.5977 -0.5456  0.4905
13311TIP3   OH261423   0.863   3.093   3.530 -0.4504 -0.3560  0.2782
13311TIP3    H161424   0.830   3.022   3.476 -0.2607  0.1375 -0.4888
13311TIP3    H261425   0.823   3.078   3.616  0.7056 -2.2140  0.5284
13312TIP3   OH261426   4.833   4.777   5.464 -0.2463 -0.0162  0.3616
13312TIP3    H161427   4.871   4.797   5.379 -1.6008 -0.0615 -0.2759
13312TIP3    H261428   4.895   4.716   5.504  1.8286  2.1661  0.6151
13313TIP3   OH261429   0.910   0.227   3.208  0.2382  0.1638  0.2804
13313TIP3    H161430   0.879   0.137   3.213  1.0884 -0.1097  0.8507
13313TIP3    H261431   0.886   0.256   3.121 -1.6880 -0.0011  0.7284
13314TIP3   OH261432   2.812   5.383  16.061 -0.8413 -0.4270 -0.4161
13314TIP3    H161433   2.852   5.470  16.065 -0.9343 -0.4755  2.2071
13314TIP3    H261434   2.882   5.323  16.087 -1.3425 -0.9552 -0.2762
13315TIP3   OH261435   1.943   4.086   6.277 -0.0390  0.2092 -0.7473
13315TIP3    H161436   1.930   4.179   6.297  1.7921  0.0079  1.6944
13315TIP3    H261437   1.985   4.085   6.192 -0.6700  1.5912 -1.0926
13316TIP3   OH261438   5.141   2.284   2.289 -0.3158  0.4009  0.4827
13316TIP3    H161439   5.114   2.201   2.329  0.3396  0.2934  0.7099
13316TIP3    H261440   5.216   2.313   2.341  0.4075  0.3751 -0.5221
13317TIP3   OH261441   4.260   2.813  15.483  0.5096  0.3993 -0.0382
13317TIP3    H161442   4.304   2.729  15.481  1.7917  1.0504  0.3442
13317TIP3    H261443   4.322   2.872  15.525 -0.5225  1.4523  0.0531
13318TIP3   OH261444   4.289   3.816   1.299 -0.5791  0.2076 -0.2432
13318TIP3    H161445   4.326   3.780   1.219  1.6822  2.7979 -0.4566
13318TIP3    H261446   4.362   3.816   1.361 -2.3196 -1.8840  1.8959
13319TIP3   OH261447   5.779   6.422   0.036 -0.2436 -0.4055  0.2940
13319TIP3    H161448   5.823   6.342   0.062 -1.0306 -0.3677  1.8153
13319TIP3    H261449   5.697   6.393  -0.003 -0.4453 -0.3559  0.6788
13320TIP3   OH261450   1.607   4.018   1.738  0.2182 -0.6789  0.3412
13320TIP3    H161451   1.580   3.930   1.711  1.6562 -0.7489 -0.9484
13320TIP3    H261452   1.687   4.005   1.788  1.0631 -0.0199 -0.8270
13321TIP3   OH261453   0.761   2.503  11.164  0.2060  0.1643  0.1019
13321TIP3    H161454   0.750   2.597  11.153 -1.4501 -0.0342  0.0444
13321TIP3    H261455   0.820   2.477  11.093 -0.0835  0.9920 -0.4354
13322TIP3   OH261456   5.769   5.343  16.253  0.5020 -0.0240 -0.6354
13322TIP3    H161457   5.676   5.353  16.271  0.4271  1.8603 -1.9143
13322TIP3    H261458   5.807   5.430  16.271  1.7268 -0.3273 -1.6556
13323TIP3   OH261459   2.424   3.074   1.763 -0.5274 -0.1950  0.1307
13323TIP3    H161460   2.466   3.023   1.694  0.5629 -1.6325  1.7829
13323TIP3    H261461   2.465   3.161   1.757  1.3351 -1.0183  0.4944
13324TIP3   OH261462   3.258   6.608   1.725  0.4486 -0.5582 -0.3156
13324TIP3    H161463   3.295   6.520   1.729  0.0097 -0.8024 -1.4449
13324TIP3    H261464   3.233   6.628   1.816  0.9111 -1.4372  0.0073
13325TIP3   OH261465   4.516   5.375   0.891 -0.5984  0.1377  0.0510
13325TIP3    H161466   4.450   5.431   0.850 -0.6450  0.2817  0.3204
13325TIP3    H261467   4.599   5.413   0.866 -0.6390  1.4532  1.7790
13326TIP3   OH261468   1.354   1.684  11.289  0.1070  0.1850 -0.1250
13326TIP3    H161469   1.288   1.753  11.295  0.1759  0.3162 -0.8095
13326TIP3    H261470   1.312   1.615  11.237  0.2894  0.0160 -0.0481
13327TIP3   OH261471   2.777   1.278  11.478 -0.2333 -0.4097 -0.9426
13327TIP3    H161472   2.825   1.252  11.556 -1.7822  0.8154  0.4344
13327TIP3    H261473   2.788   1.204  11.418  2.6597 -0.5029 -0.3754
13328TIP3   OH261474   5.709   1.456  12.155 -0.1626 -0.5548 -0.1239
13328TIP3    H161475   5.676   1.370  12.182  1.0867 -0.9737  0.0933
13328TIP3    H261476   5.775   1.478  12.221 -1.7955  1.4248  0.9056
13329TIP3   OH261477   1.863   1.565   0.406 -0.1730  0.1269 -0.1309
13329TIP3    H161478   1.846   1.523   0.491 -2.5167 -3.2416 -2.1295
13329TIP3    H261479   1.909   1.498   0.356  1.0763  2.0450 -1.5785
13330TIP3   OH261480   2.961   6.182  14.806 -0.0424 -0.6894  0.4028
13330TIP3    H161481   2.965   6.118  14.877 -0.4999 -1.0085  0.1402
13330TIP3    H261482   2.884   6.157  14.755 -1.4248  1.3120  1.4623
13331TIP3   OH261483   3.305   1.416  17.122 -0.4672  0.0607  0.3647
13331TIP3    H161484   3.257   1.333  17.130 -0.5056  0.1117  0.6896
13331TIP3    H261485   3.350   1.410  17.038 -1.8062  0.4148 -0.4067
13332TIP3   OH261486   1.500   2.359   4.778 -0.5295  0.2325  0.5613
13332TIP3    H161487   1.417   2.336   4.736 -0.5746 -2.7568  2.1472
13332TIP3    H261488   1.567   2.316   4.725 -0.3577 -0.9776  1.7357
13333TIP3   OH261489   1.429   2.802  16.796 -0.0631  0.0467  0.0296
13333TIP3    H161490   1.400   2.871  16.737 -1.1523 -1.7916 -1.6605
13333TIP3    H261491   1.524   2.799  16.785 -0.3004 -0.5567 -1.9683
13334TIP3   OH261492   5.278   2.034   2.751  0.2885 -0.2899  0.3042
13334TIP3    H161493   5.203   2.093   2.752  0.8952  0.4844  0.7609
13334TIP3    H261494   5.339   2.074   2.689  0.7549 -0.3636  0.7095
13335TIP3   OH261495   0.487   1.276  12.286 -0.6488 -0.0226  0.3236
13335TIP3    H161496   0.531   1.331  12.222 -0.4099 -0.0248  0.4858
13335TIP3    H261497   0.525   1.189  12.273 -1.1962 -0.1987 -0.0945
13336TIP3   OH261498   3.979   2.243   2.643 -0.1458  0.1416 -0.3392
13336TIP3    H161499   3.954   2.190   2.719 -2.4823  1.8339  0.1432
13336TIP3    H261500   4.016   2.323   2.681  1.2239 -0.1359 -1.0412
13337TIP3   OH261501   1.892   2.681   1.408 -0.1871  0.2593 -0.0393
13337TIP3    H161502   1.852   2.627   1.476 -0.7106 -0.7067 -1.0801
13337TIP3    H261503   1.982   2.647   1.400 -0.7948 -1.1183 -1.3323
13338TIP3   OH261504   2.932   4.043  11.337  0.3264 -1.0213  0.0342
13338TIP3    H161505   2.999   3.981  11.310 -1.2427 -2.8295  0.1670
13338TIP3    H261506   2.849   4.000  11.316 -0.7980  1.2761 -0.3704
13339TIP3   OH261507   6.424   4.997  11.952  0.3454  0.6305  0.3313
13339TIP3    H161508   6.364   5.005  12.026 -0.1788 -0.0340 -0.0179
13339TIP3    H261509   6.421   5.083  11.910  1.0482  1.1808  1.3766
13340TIP3   OH261510   2.735   0.176  12.884 -0.4589  0.2410 -0.1063
13340TIP3    H161511   2.744   0.145  12.794 -0.2147  0.9859 -0.3479
13340TIP3    H261512   2.661   0.237  12.882 -1.1727 -0.5949  0.4362
13341TIP3   OH261513   5.502   4.402   0.031  0.3849 -0.0146  0.1139
13341TIP3    H161514   5.533   4.392   0.120  1.1709 -2.7639 -0.4241
13341TIP3    H261515   5.407   4.392   0.037  0.5013 -0.8319  0.5507
13342TIP3   OH261516   2.023   3.146   2.977  0.1353 -0.3440 -0.2478
13342TIP3    H161517   1.944   3.158   3.031 -0.9433 -0.0542 -1.8523
13342TIP3    H261518   2.075   3.081   3.025  1.4036  3.2182  3.5070
13343TIP3   OH261519   2.505   3.935  16.422  0.2506  0.0300 -0.0736
13343TIP3    H161520   2.484   3.881  16.345  0.4943  0.8421 -0.7201
13343TIP3    H261521   2.425   3.982  16.441  0.0817 -0.4496  0.3977
13344TIP3   OH261522   2.787   3.424   0.478 -0.0642 -0.2350  0.2906
13344TIP3    H161523   2.784   3.482   0.401  1.0190  1.6928  1.6691
13344TIP3    H261524   2.880   3.407   0.491 -0.1969 -0.0611  1.5256
13345TIP3   OH261525   2.250   4.265  14.492 -0.0275  0.8936  0.2339
13345TIP3    H161526   2.173   4.302  14.449  0.8276 -1.0568 -3.1684
13345TIP3    H261527   2.322   4.283  14.432  1.0783 -2.6248  0.4050
13346TIP3   OH261528   0.997   6.777  17.223 -0.2836 -0.1017 -0.1100
13346TIP3    H161529   0.996   6.797  17.130 -1.1590 -1.9798 -0.5338
13346TIP3    H261530   1.056   6.702  17.232 -0.8265 -0.4439  0.7212
13347TIP3   OH261531   5.200   5.521   0.735  0.1824  0.0400 -0.1784
13347TIP3    H161532   5.131   5.569   0.689 -0.2852  0.3812  0.8679
13347TIP3    H261533   5.189   5.430   0.707 -0.3153  0.1895 -0.4738
13348TIP3   OH261534   1.606   2.740   6.153  0.4937 -0.0935 -0.5725
13348TIP3    H161535   1.686   2.785   6.126 -0.2469  0.8399 -1.2590
13348TIP3    H261536   1.622   2.714   6.243  1.0708  1.2787 -0.2690
13349TIP3   OH261537   6.341   5.443  17.053  0.0094  0.5800 -0.9008
13349TIP3    H161538   6.344   5.535  17.078 -2.1453  0.8768 -1.6116
13349TIP3    H261539   6.413   5.403  17.101  0.3167  2.4242  0.2425
13350TIP3   OH261540   5.706   5.884   1.515 -0.1354 -0.3264 -0.6111
13350TIP3    H161541   5.681   5.965   1.559  1.5297  0.0146 -0.2795
13350TIP3    H261542   5.674   5.814   1.573 -4.1190 -0.0246 -2.2428
13351TIP3   OH261543   0.789   3.899  16.573 -0.2144 -0.7108  0.4369
13351TIP3    H161544   0.719   3.961  16.556  0.2164 -0.4927 -0.6093
13351TIP3    H261545   0.766   3.822  16.521 -1.4209 -1.9578  2.7293
13352TIP3   OH261546   5.643   3.255  16.641  0.2039 -0.2428 -0.2244
13352TIP3    H161547   5.631   3.310  16.719  0.6231 -1.8207  0.9855
13352TIP3    H261548   5.642   3.317  16.568 -0.3611  1.2553  1.0153
13353TIP3   OH261549   5.078   2.005   5.616  0.2176  0.7932  0.2832
13353TIP3    H161550   5.101   1.920   5.655  0.2245 -0.4595 -2.3622
13353TIP3    H261551   5.162   2.047   5.598  0.2091  1.6380  2.1176
13354TIP3   OH261552   1.056   2.238  15.151 -0.5517 -0.3167 -0.2051
13354TIP3    H161553   1.077   2.245  15.057  0.8273 -2.3734 -0.0937
13354TIP3    H261554   1.006   2.317  15.170  0.7620  1.0738 -2.2515
13355TIP3   OH261555   4.193   2.354  16.947 -0.2411  0.3874 -0.9503
13355TIP3    H161556   4.115   2.394  16.908 -1.0002  0.1297  0.2467
13355TIP3    H261557   4.218   2.414  17.017 -0.6494 -0.5879  0.0526
13356TIP3   OH261558   4.074   6.122  13.437  0.1861  0.1080  0.3979
13356TIP3    H161559   4.082   6.202  13.385  0.2213 -0.3595 -0.3168
13356TIP3    H261560   4.113   6.054  13.383 -1.0339 -0.6463  0.4316
13357TIP3   OH261561   1.569   0.682   3.682  0.1932  0.4657  0.3399
13357TIP3    H161562   1.508   0.627   3.632  2.3253 -1.5097 -0.1683
13357TIP3    H261563   1.513   0.749   3.721 -2.0317 -0.0585 -1.7723
13358TIP3   OH261564   3.332   0.071  15.807 -0.0488  0.1057  0.5804
13358TIP3    H161565   3.336   0.167  15.802 -0.2524 -0.0028 -2.4110
13358TIP3    H261566   3.406   0.047  15.863  1.4020  1.9107 -0.4889
13359TIP3   OH261567   4.956   6.309  16.268 -0.4383  0.1835 -0.2666
13359TIP3    H161568   4.914   6.374  16.211 -0.9313  0.0847 -0.0226
13359TIP3    H261569   4.892   6.237  16.272  0.9281 -1.1934 -2.1255
13360TIP3   OH261570   0.407   5.082   6.022  0.7279  0.1055  0.2979
13360TIP3    H161571   0.352   5.130   5.960  2.3287  1.2856 -0.2494
13360TIP3    H261572   0.451   5.151   6.073  3.0597 -0.7544 -0.4862
13361TIP3   OH261573   0.205   4.683   6.230  0.4043 -0.1247 -0.0665
13361TIP3    H161574   0.252   4.613   6.275  2.3983  0.4376 -1.1737
13361TIP3    H261575   0.273   4.727   6.177 -0.4170  3.5962  1.7788
13362TIP3   OH261576   4.790   4.815   1.974  0.1177  0.3967 -0.2838
13362TIP3    H161577   4.881   4.785   1.977  0.2033  0.5082 -1.5162
13362TIP3    H261578   4.791   4.888   1.912 -0.5563  1.3285  0.7911
13363TIP3   OH261579   0.172   0.162  11.631 -0.4220 -0.0784 -0.6838
13363TIP3    H161580   0.123   0.144  11.712 -1.3600 -1.8419 -1.6230
13363TIP3    H261581   0.105   0.173  11.564  0.3066  2.5088 -1.0609
13364TIP3   OH261582   0.290   2.817   3.592  0.1089  0.3379  0.0093
13364TIP3    H161583   0.303   2.841   3.684  1.4850 -1.0728  0.1981
13364TIP3    H261584   0.207   2.769   3.592  0.8809 -1.0377  0.8037
13365TIP3   OH261585   5.166   2.278  11.653  0.4019 -0.2111 -0.0927
13365TIP3    H161586   5.258   2.284  11.624  0.0239  1.3957 -1.0862
13365TIP3    H261587   5.144   2.368  11.678 -0.8479 -0.6236  0.2906
13366TIP3   OH261588   3.044   2.683  12.089  0.3937 -0.3964 -0.2664
13366TIP3    H161589   3.001   2.711  12.008  0.5448 -0.4241 -0.3580
13366TIP3    H261590   2.978   2.695  12.157  0.5947  0.5967 -0.2369
13367TIP3   OH261591   4.386   0.214  12.403 -0.5801 -0.1924  0.2274
13367TIP3    H161592   4.335   0.244  12.328 -2.1367 -0.5702  1.0975
13367TIP3    H261593   4.460   0.167  12.364 -0.1211  1.5696 -1.0756
13368TIP3   OH261594   1.996   0.623   4.329 -0.7895 -0.3677  0.0983
13368TIP3    H161595   1.923   0.647   4.386 -0.0973  0.3144  0.7169
13368TIP3    H261596   1.963   0.637   4.240 -1.9470 -1.6388  0.3138
13369TIP3   OH261597   5.352   6.087  15.219 -0.1584 -0.5682  0.4540
13369TIP3    H161598   5.322   6.029  15.289  0.3646  0.4640  1.5665
13369TIP3    H261599   5.273   6.109  15.170 -0.6982 -0.4484  1.3725
13370TIP3   OH261600   3.786   4.527   2.280  0.3525 -0.0535 -0.1999
13370TIP3    H161601   3.770   4.492   2.193  0.3013 -0.5310  0.0004
13370TIP3    H261602   3.837   4.459   2.324  1.0449  0.5105 -0.1108
13371TIP3   OH261603   3.744   1.540   6.304  0.4179  0.1090 -0.0142
13371TIP3    H161604   3.768   1.618   6.355 -0.4763  1.0676 -1.0573
13371TIP3    H261605   3.720   1.475   6.370  2.7072  0.1606  0.9453
13372TIP3   OH261606   4.419   2.916  15.254 -0.0118 -0.1747 -0.2561
13372TIP3    H161607   4.480   2.986  15.232  0.2094  0.5285  2.3764
13372TIP3    H261608   4.471   2.836  15.247  0.3142  0.1107 -1.1834
13373TIP3   OH261609   4.817   3.590  12.671 -0.3657 -0.1012 -0.0046
13373TIP3    H161610   4.849   3.504  12.644  0.2510  0.2356 -0.3622
13373TIP3    H261611   4.849   3.650  12.603  1.7912  0.8771  1.8091
13374TIP3   OH261612   6.431   0.788   1.233 -0.2089 -0.2061  0.2556
13374TIP3    H161613   6.383   0.858   1.277  0.1127  0.8674 -1.0523
13374TIP3    H261614   6.520   0.793   1.268 -0.4853 -0.7694  1.0600
13375TIP3   OH261615   5.992   2.422  11.174 -0.0254  0.1948 -0.1601
13375TIP3    H161616   5.977   2.377  11.091  0.5023 -0.3461  0.0341
13375TIP3    H261617   6.087   2.423  11.184 -0.1056 -0.2108  0.6935
13376TIP3   OH261618   6.608   4.142   0.092  0.3993  0.2418  0.1328
13376TIP3    H161619   6.526   4.166   0.048  0.2963 -0.2758  0.0285
13376TIP3    H261620   6.617   4.048   0.075  1.3504  0.4203 -0.3974
13377TIP3   OH261621   2.258   4.395  12.123  0.6455  0.7395 -0.1196
13377TIP3    H161622   2.251   4.481  12.081  2.9568  0.2274 -1.6178
13377TIP3    H261623   2.344   4.396  12.165  1.0910 -1.1947 -0.9632
13378TIP3   OH261624   0.624   0.193   0.405 -0.0846 -0.4031  0.1019
13378TIP3    H161625   0.709   0.179   0.446 -1.1662 -1.1907  2.1687
13378TIP3    H261626   0.596   0.279   0.436  0.4053  0.3312 -1.4345
13379TIP3   OH261627   4.564   1.728   2.938 -0.5699 -0.0038 -0.7598
13379TIP3    H161628   4.545   1.635   2.951  0.7081  0.0666  2.1432
13379TIP3    H261629   4.527   1.771   3.016 -0.4731  1.8161 -1.6901
13380TIP3   OH261630   2.928   3.526   2.776 -0.1965  0.4190  0.1043
13380TIP3    H161631   3.015   3.515   2.738 -0.4116  2.0044 -0.8779
13380TIP3    H261632   2.871   3.469   2.724 -0.0167  0.5477 -0.2348
13381TIP3   OH261633   6.210   1.332  14.255  0.7659 -0.1066  0.7865
13381TIP3    H161634   6.192   1.333  14.161 -0.7415  0.7326  1.0782
13381TIP3    H261635   6.125   1.344  14.297  1.4409 -0.3040  2.2634
13382TIP3   OH261636   0.196   2.095   3.759 -1.0200 -0.7824 -0.3005
13382TIP3    H161637   0.271   2.046   3.793 -1.3171 -0.0378  1.4547
13382TIP3    H261638   0.167   2.044   3.683 -0.8036 -2.9060  0.9986
13383TIP3   OH261639   2.490   5.706   4.140 -0.2579 -0.3926 -0.7000
13383TIP3    H161640   2.509   5.765   4.068  0.8641  0.4937  0.3052
13383TIP3    H261641   2.537   5.743   4.215 -3.5454  0.2171  1.1706
13384TIP3   OH261642   5.158   6.010  16.711 -0.2165  0.6240 -0.6220
13384TIP3    H161643   5.215   6.084  16.687  1.3827 -0.0610  0.8886
13384TIP3    H261644   5.200   5.934  16.671  0.4122  0.0028  1.1499
13385TIP3   OH261645   5.437   0.587  14.594 -0.4234 -0.6731  0.4534
13385TIP3    H161646   5.385   0.663  14.566 -0.4392 -0.8814 -0.0854
13385TIP3    H261647   5.501   0.575  14.525  1.4779  0.6366  1.9203
13386TIP3   OH261648   0.350   1.278   3.866 -0.4364  0.2436  0.1366
13386TIP3    H161649   0.396   1.246   3.943  0.7088  0.2399 -0.5243
13386TIP3    H261650   0.319   1.199   3.822 -0.6044  0.2190  0.2983
13387TIP3   OH261651   6.136   3.954  17.081  0.1951 -0.0691 -0.3465
13387TIP3    H161652   6.078   4.030  17.083  2.6733  1.8605  1.7059
13387TIP3    H261653   6.184   3.963  16.999 -0.9548 -0.5545 -1.0792
13388TIP3   OH261654   3.280   1.729  12.893 -0.0645  0.2015  0.4423
13388TIP3    H161655   3.319   1.643  12.880  0.3269  0.9019 -3.7978
13388TIP3    H261656   3.354   1.790  12.892 -0.6477  0.9272 -0.9603
13389TIP3   OH261657   6.156   4.978   0.385  0.2912  0.6193  0.1350
13389TIP3    H161658   6.134   4.924   0.461 -1.6130  0.7588 -0.2931
13389TIP3    H261659   6.078   5.032   0.372  0.8614  1.0382 -1.5400
13390TIP3   OH261660   4.149   0.986  12.126  0.5244  0.0074 -0.5185
13390TIP3    H161661   4.091   0.934  12.071 -1.6605  1.9817 -0.1723
13390TIP3    H261662   4.234   0.981  12.084 -0.2781 -1.5513 -1.9979
13391TIP3   OH261663   5.343   0.316   1.624 -0.1601  0.9243 -0.0202
13391TIP3    H161664   5.439   0.312   1.618 -0.1652  1.7233 -0.7178
13391TIP3    H261665   5.321   0.406   1.601 -0.9704  1.2368  1.9165
13392TIP3   OH261666   6.062   6.400   3.598  0.3691 -0.1222  0.1700
13392TIP3    H161667   6.067   6.305   3.585 -4.4686 -0.5574  0.3649
13392TIP3    H261668   6.072   6.412   3.692  0.0117 -0.5626  0.2685
13393TIP3   OH261669   3.955   1.056   3.015 -0.2988  0.5069  0.3707
13393TIP3    H161670   3.875   1.012   2.986  0.0793  0.1016 -0.0533
13393TIP3    H261671   3.932   1.149   3.016 -0.3222  0.5390 -1.2358
13394TIP3   OH261672   1.660   3.898  11.712  0.7415 -0.5008 -0.1789
13394TIP3    H161673   1.646   3.804  11.705 -1.0629 -0.2405 -0.2447
13394TIP3    H261674   1.585   3.930  11.763  1.1309  0.9482 -0.4932
13395TIP3   OH261675   2.876   6.491   0.872  0.3593 -0.2327 -0.3793
13395TIP3    H161676   2.918   6.507   0.788 -1.1435 -2.4244 -1.5853
13395TIP3    H261677   2.946   6.454   0.927  1.2218  0.7711 -0.7799
13396TIP3   OH261678   3.426   0.816   4.615  0.2254 -0.1438 -0.2773
13396TIP3    H161679   3.431   0.756   4.540 -1.4498 -0.0238 -0.5202
13396TIP3    H261680   3.332   0.832   4.625  0.5953  1.5750  0.4841
13397TIP3   OH261681   4.406   2.218  16.069 -0.1334  0.0114  0.2244
13397TIP3    H161682   4.382   2.301  16.026  0.1542 -1.1995 -2.3773
13397TIP3    H261683   4.339   2.157  16.040  1.2588 -1.3487 -0.1502
13398TIP3   OH261684   6.211   3.756   3.853 -0.4828 -0.6323 -0.1920
13398TIP3    H161685   6.210   3.838   3.901 -0.1954 -1.0524  0.5417
13398TIP3    H261686   6.125   3.717   3.869 -0.5755 -0.5324 -0.4418
13399TIP3   OH261687   4.773   6.503  11.556 -0.4227  0.4440 -0.0699
13399TIP3    H161688   4.792   6.503  11.463 -3.9323  0.6102 -0.8509
13399TIP3    H261689   4.740   6.591  11.574 -0.0041  0.3362  1.2799
13400TIP3   OH261690   2.862   6.014  13.423 -0.7253 -0.1358  0.2829
13400TIP3    H161691   2.941   5.974  13.460  0.2381  0.9105 -0.5544
13400TIP3    H261692   2.795   6.002  13.489  0.3259 -0.4486  1.3102
13401TIP3   OH261693   6.681   0.899  12.189 -0.2843 -0.9568 -0.1557
13401TIP3    H161694   6.677   0.807  12.216  0.5603 -1.3843 -1.4255
13401TIP3    H261695   6.638   0.900  12.103  0.4708 -0.3175 -0.5257
13402TIP3   OH261696   0.908   3.367  16.786 -0.5701 -0.2730 -0.2607
13402TIP3    H161697   0.881   3.278  16.761 -2.3188  0.1069  0.2017
13402TIP3    H261698   0.860   3.384  16.867  0.8916  0.5516  0.4457
13403TIP3   OH261699   4.463   4.213  11.858 -0.5039 -0.1102 -0.2857
13403TIP3    H161700   4.447   4.304  11.832 -0.2832 -0.3457 -1.2938
13403TIP3    H261701   4.515   4.177  11.786 -1.4530 -1.3219 -0.3840
13404TIP3   OH261702   2.008   1.934  12.110  0.1154  0.6807 -0.4151
13404TIP3    H161703   2.098   1.942  12.077  0.2283 -0.5699 -0.4289
13404TIP3    H261704   1.963   2.010  12.073  0.7491  0.3938 -1.8290
13405TIP3   OH261705   1.334   0.999  14.275  0.1794  0.0125 -0.5177
13405TIP3    H161706   1.242   0.978  14.285  0.8503 -2.5977  0.5344
13405TIP3    H261707   1.335   1.083  14.228 -2.6922  0.1524 -0.3828
13406TIP3   OH261708   2.744   2.342  16.031  0.0889 -0.6201  0.2302
13406TIP3    H161709   2.699   2.291  16.099 -3.5641  2.5545  0.3339
13406TIP3    H261710   2.694   2.326  15.951  0.0209  1.3005 -0.1412
13407TIP3   OH261711   6.749   0.993   6.309  0.1589 -0.1210 -0.3624
13407TIP3    H161712   6.769   1.077   6.349  1.5347 -1.0549  0.9658
13407TIP3    H261713   6.812   0.932   6.348  0.8807 -1.2797 -3.1775
13408TIP3   OH261714   2.019   1.648  16.439 -0.1883 -0.1696 -0.3953
13408TIP3    H161715   2.013   1.566  16.390 -0.0564  0.3326 -1.2520
13408TIP3    H261716   2.108   1.648  16.475  0.3301  0.3002 -1.6479
13409TIP3   OH261717   3.374   0.071   6.001 -0.3281  0.0199  0.2463
13409TIP3    H161718   3.456   0.028   6.025 -0.2873 -1.8040 -2.9537
13409TIP3    H261719   3.397   0.131   5.930 -1.5590  0.3680  0.1144
13410TIP3   OH261720   3.642   1.710   1.989  0.0181  0.3127 -0.2149
13410TIP3    H161721   3.557   1.694   2.030  0.3785  1.1174  0.8627
13410TIP3    H261722   3.703   1.715   2.062  1.2612 -1.8399 -1.0816
13411TIP3   OH261723   1.079   0.864  10.861  0.0782 -0.4380 -0.2271
13411TIP3    H161724   1.047   0.847  10.950  0.0947 -0.5343 -0.2389
13411TIP3    H261725   1.091   0.777  10.823 -3.2680 -0.3957 -1.5235
13412TIP3   OH261726   4.517   4.549   1.836  0.2715  0.2747 -0.0455
13412TIP3    H161727   4.577   4.487   1.795  1.0208  0.5983  0.5531
13412TIP3    H261728   4.539   4.634   1.797  0.9574  0.5777  0.9620
13413TIP3   OH261729   6.330   4.663   1.803  0.0311 -0.3779 -0.6402
13413TIP3    H161730   6.286   4.578   1.804 -0.6005 -0.0962 -2.4282
13413TIP3    H261731   6.269   4.723   1.846  0.5781 -0.8496  0.8347
13414TIP3   OH261732   5.479   1.725  11.111  0.4438  0.1121 -0.6184
13414TIP3    H161733   5.430   1.741  11.030 -2.0658 -0.9294  0.6338
13414TIP3    H261734   5.455   1.636  11.137  2.3966 -0.1238  0.4939
13415TIP3   OH261735   3.716   1.665  15.758 -0.3710 -0.5398  0.1380
13415TIP3    H161736   3.634   1.710  15.739  1.6665  2.5996 -1.6206
13415TIP3    H261737   3.715   1.652  15.853 -1.0473  3.3054  0.7181
13416TIP3   OH261738   2.760   0.386   4.577  0.5170  0.0600  0.2925
13416TIP3    H161739   2.697   0.422   4.515  1.2621 -1.3892 -1.3526
13416TIP3    H261740   2.802   0.314   4.529  1.5774 -0.6603  2.2518
13417TIP3   OH261741   1.950   0.141   1.251 -0.3206  0.5265 -0.0309
13417TIP3    H161742   1.897   0.091   1.313  1.6517  1.8342  2.8965
13417TIP3    H261743   1.896   0.216   1.228 -0.3734  1.0739  1.7583
13418TIP3   OH261744   4.481   4.455   0.352 -0.5755 -0.7737  0.1435
13418TIP3    H161745   4.576   4.445   0.363  0.2012  0.3976 -4.4699
13418TIP3    H261746   4.464   4.545   0.381  0.0900 -0.3521 -0.7197
13419TIP3   OH261747   5.727   2.246  13.953 -0.2340 -0.7786 -0.1991
13419TIP3    H161748   5.738   2.282  13.865 -1.0851  0.6680  0.2637
13419TIP3    H261749   5.781   2.302  14.009 -3.2984  1.2717  0.8592
13420TIP3   OH261750   0.797   1.813   2.373  0.6782 -0.2926  0.2580
13420TIP3    H161751   0.802   1.764   2.455  1.9107  0.6579  0.7784
13420TIP3    H261752   0.752   1.894   2.396  2.2857  0.6069  0.3454
13421TIP3   OH261753   1.423   2.536   5.670 -0.1489 -0.8419  0.4576
13421TIP3    H161754   1.349   2.513   5.614  0.7725 -1.2000 -0.6256
13421TIP3    H261755   1.409   2.629   5.690 -0.8239 -0.8743  0.1589
13422TIP3   OH261756   2.076   3.598   5.491  0.3458 -0.5568 -0.4520
13422TIP3    H161757   2.103   3.645   5.570  2.0576  0.3317 -1.5288
13422TIP3    H261758   2.060   3.508   5.520  0.6575 -0.1606  0.9520
13423TIP3   OH261759   4.356   3.033   5.029 -0.0903  0.5091  0.0126
13423TIP3    H161760   4.412   2.987   5.092 -1.2491 -0.1938  0.5621
13423TIP3    H261761   4.411   3.047   4.953  0.4099 -1.4893 -0.0147
13424TIP3   OH261762   5.565   5.113  10.777 -0.4010 -0.0481  0.1596
13424TIP3    H161763   5.493   5.110  10.840 -0.9728  0.2268 -0.4729
13424TIP3    H261764   5.522   5.103  10.692  0.4201 -1.0600 -0.1516
13425TIP3   OH261765   2.217   5.746   3.559  0.0402  0.4618  0.2428
13425TIP3    H161766   2.271   5.670   3.539  0.1522  0.5871  0.0592
13425TIP3    H261767   2.142   5.711   3.606  0.0416  0.2233  0.0695
13426TIP3   OH261768   1.592   3.931   5.311  0.2013  0.1789 -0.6216
13426TIP3    H161769   1.641   3.996   5.361 -0.6205  0.6731 -0.4426
13426TIP3    H261770   1.600   3.850   5.361  0.3828  0.3831 -0.3192
13427TIP3   OH261771   2.985   2.951  11.155  0.1043 -0.1397 -0.1226
13427TIP3    H161772   2.993   2.960  11.060 -1.0015 -2.2950 -0.4711
13427TIP3    H261773   3.069   2.915  11.183 -0.3729 -1.7156 -0.6414
13428TIP3   OH261774   6.630   0.438   2.476  0.6026  0.0992  0.0576
13428TIP3    H161775   6.703   0.380   2.458 -0.0621 -0.4268 -0.9480
13428TIP3    H261776   6.660   0.524   2.446  1.5423  0.2891  1.4517
13429TIP3   OH261777   3.274   0.317  15.294 -0.4283  0.2483  0.4494
13429TIP3    H161778   3.193   0.324  15.345  0.0771 -1.5700  1.5741
13429TIP3    H261779   3.298   0.224  15.300  2.0527  0.8566  0.6676
13430TIP3   OH261780   5.314   0.507   2.422 -0.4809  0.1262 -0.6433
13430TIP3    H161781   5.306   0.578   2.359  2.1051 -0.3105 -1.5361
13430TIP3    H261782   5.407   0.505   2.444 -0.9083 -1.4775  1.1358
13431TIP3   OH261783   3.133   0.613   1.690  0.5610  0.3567  0.4214
13431TIP3    H161784   3.154   0.666   1.766  0.0711 -0.1201  0.8971
13431TIP3    H261785   3.040   0.629   1.674  0.3700 -0.4819  0.6712
13432TIP3   OH261786   1.554   5.706  16.991  0.2485 -0.2981  0.2848
13432TIP3    H161787   1.488   5.723  16.924 -0.9838 -0.5863  1.4036
13432TIP3    H261788   1.633   5.686  16.942 -0.6266 -0.4707 -1.0882
13433TIP3   OH261789   4.788   0.794  11.670  0.4224  0.1296 -0.1364
13433TIP3    H161790   4.773   0.771  11.578  1.9771 -0.8256 -0.1705
13433TIP3    H261791   4.746   0.724  11.719  3.0772 -1.5907 -0.2079
13434TIP3   OH261792   3.709   6.354   1.524  0.2837 -0.1617 -0.0913
13434TIP3    H161793   3.727   6.437   1.568 -0.7812  0.2332 -0.3805
13434TIP3    H261794   3.754   6.361   1.440 -1.9420  1.2078 -1.2143
13435TIP3   OH261795   2.332   5.979  14.515  0.4363  0.0658 -0.3724
13435TIP3    H161796   2.295   6.059  14.552 -0.3676 -0.4875  0.0198
13435TIP3    H261797   2.264   5.945  14.457  0.9147 -0.1449 -0.8204
13436TIP3   OH261798   3.936   6.018   3.912 -0.2527 -0.3839 -0.4171
13436TIP3    H161799   3.896   5.933   3.929  0.0357 -0.4104  0.1424
13436TIP3    H261800   4.025   6.010   3.947 -0.4889  0.4121  0.3828
13437TIP3   OH261801   6.713   2.487   2.614 -0.0672 -0.0628 -0.2518
13437TIP3    H161802   6.656   2.430   2.665 -0.7420  1.1301  0.3534
13437TIP3    H261803   6.720   2.444   2.529 -2.0065 -0.1567 -0.3876
13438TIP3   OH261804   2.118   2.862  11.570 -0.4149 -0.7845 -0.1798
13438TIP3    H161805   2.098   2.787  11.514 -2.3908 -1.3973  1.2615
13438TIP3    H261806   2.150   2.823  11.652 -0.2654 -0.0286  0.1294
13439TIP3   OH261807   2.971   3.640  16.062 -0.4757  0.3930  0.2415
13439TIP3    H161808   3.045   3.681  16.018 -0.8003  0.8627  0.1248
13439TIP3    H261809   2.907   3.710  16.073 -0.1984  0.4164  1.9445
13440TIP3   OH261810   1.841   5.369  14.589  0.4840  0.6535 -0.1199
13440TIP3    H161811   1.857   5.461  14.609 -2.1453  1.3674 -1.0494
13440TIP3    H261812   1.833   5.327  14.675 -1.6449  1.9800  0.3910
13441TIP3   OH261813   4.461   0.094   2.148  0.0994 -0.3214 -0.0010
13441TIP3    H161814   4.540   0.073   2.199 -0.8392 -1.7628  0.8658
13441TIP3    H261815   4.415   0.159   2.202 -0.2878 -0.9521  0.4396
13442TIP3   OH261816   6.309   1.538   3.829 -0.3133 -0.2338 -0.4486
13442TIP3    H161817   6.260   1.475   3.882  0.1418  1.5848  2.2511
13442TIP3    H261818   6.375   1.486   3.783 -0.3434 -1.8081  1.2521
13443TIP3   OH261819   2.231   0.732  12.689 -0.2007 -0.3503  0.3860
13443TIP3    H161820   2.227   0.680  12.769 -1.3514 -2.3336 -0.9419
13443TIP3    H261821   2.317   0.775  12.693 -0.8455  0.7823  3.3874
13444TIP3   OH261822   4.447   4.321   1.177  0.1008 -0.2532  0.3385
13444TIP3    H161823   4.392   4.380   1.228 -1.3636 -1.4374  0.1653
13444TIP3    H261824   4.522   4.375   1.150 -0.9972  1.3979  0.5281
13445TIP3   OH261825   4.750   4.651   5.780 -0.0362  0.6173 -0.1726
13445TIP3    H161826   4.676   4.680   5.726  0.1720  1.3385 -0.0677
13445TIP3    H261827   4.802   4.730   5.795  0.0721  0.3619  0.8354
13446TIP3   OH261828   5.824   3.396  15.622  0.3387  0.5125 -0.1652
13446TIP3    H161829   5.812   3.463  15.689  0.0440 -0.1216  0.4275
13446TIP3    H261830   5.915   3.407  15.594  0.2195  1.3152 -0.2447
13447TIP3   OH261831   0.072   5.451   3.209 -0.8005  1.0894  0.0107
13447TIP3    H161832   0.120   5.393   3.269  2.0808  3.9137  0.5469
13447TIP3    H261833  -0.002   5.482   3.261 -1.1212 -0.3539  0.4473
13448TIP3   OH261834   4.376   2.497   4.987  0.0321 -0.7271 -0.5024
13448TIP3    H161835   4.312   2.540   4.929  0.6357 -0.6966 -1.1486
13448TIP3    H261836   4.443   2.463   4.927  0.6752 -0.6657  0.1850
13449TIP3   OH261837   5.001   1.642  11.319 -0.5431 -0.3587  0.0444
13449TIP3    H161838   5.043   1.656  11.235 -0.6723 -2.0150 -0.3050
13449TIP3    H261839   4.907   1.654  11.302 -0.3914  1.5158  0.4384
13450TIP3   OH261840   2.155   3.563  11.505 -0.3219  0.2288 -0.0530
13450TIP3    H161841   2.139   3.530  11.594 -1.8724 -0.6222 -0.6217
13450TIP3    H261842   2.117   3.651  11.504  2.2445  1.3776  0.9478
13451TIP3   OH261843   6.150   4.694   5.584  0.3467 -0.3890 -0.0938
13451TIP3    H161844   6.224   4.716   5.641 -1.2951  0.6960  1.7289
13451TIP3    H261845   6.128   4.604   5.606  1.7391 -1.0387 -1.3548
13452TIP3   OH261846   4.017   1.240   6.395  0.7166  0.3001  0.1028
13452TIP3    H161847   4.103   1.216   6.360  0.3841 -0.2073 -0.3788
13452TIP3    H261848   3.956   1.182   6.350  0.4473 -1.5941  2.7920
13453TIP3   OH261849   3.928   6.434  11.744 -0.3262  0.1237  0.7685
13453TIP3    H161850   3.841   6.393  11.744 -0.3110  0.0690 -0.6938
13453TIP3    H261851   3.953   6.437  11.652  1.5945 -0.6501  1.2331
13454TIP3   OH261852   5.347   4.365  13.548 -0.0689 -0.5739  0.2761
13454TIP3    H161853   5.325   4.458  13.556 -0.6982 -0.4868 -2.3434
13454TIP3    H261854   5.442   4.363  13.550 -0.0414  0.1739 -0.1674
13455TIP3   OH261855   5.685   1.029   1.348 -0.3413 -0.1222  0.2235
13455TIP3    H161856   5.658   0.980   1.426 -0.2627 -1.3202 -0.4987
13455TIP3    H261857   5.680   1.121   1.375 -0.6793 -0.5125  1.5253
13456TIP3   OH261858   6.545   3.948   5.628 -0.4128  0.5500 -0.3144
13456TIP3    H161859   6.462   3.952   5.581  0.4657 -0.0880 -1.9659
13456TIP3    H261860   6.563   4.038   5.654 -0.8467  0.9351 -1.3361
13457TIP3   OH261861   3.348   0.340   6.209 -0.4237  0.5546 -0.5464
13457TIP3    H161862   3.421   0.316   6.267 -0.8608 -1.7119 -0.8690
13457TIP3    H261863   3.280   0.372   6.268  0.4095  1.6407 -0.1473
13458TIP3   OH261864   2.083   0.667  11.473  0.4474 -0.1035  0.2733
13458TIP3    H161865   2.172   0.641  11.447 -0.4560 -2.2149 -0.8546
13458TIP3    H261866   2.039   0.584  11.489 -1.6075  0.9023 -0.1030
13459TIP3   OH261867   6.158   5.219   3.025  0.1710 -0.0062  0.1583
13459TIP3    H161868   6.243   5.217   2.982  0.7044  0.8006  1.1679
13459TIP3    H261869   6.134   5.126   3.034  0.6434 -0.2195 -0.6758
13460TIP3   OH261870   2.486   5.932  10.417 -0.5931  0.1726 -0.7637
13460TIP3    H161871   2.572   5.975  10.419  0.0399 -1.0660  0.1174
13460TIP3    H261872   2.423   6.004  10.413  0.3591  1.3306  2.7205
13461TIP3   OH261873   3.667   5.872  13.053  0.1609  0.0972  0.4536
13461TIP3    H161874   3.722   5.796  13.034 -0.2562 -0.4368  1.3237
13461TIP3    H261875   3.722   5.928  13.107 -0.0141 -0.2881  1.0522
13462TIP3   OH261876   5.515   5.941  10.977  0.2414  0.0555  0.6986
13462TIP3    H161877   5.477   5.932  10.890 -0.8882  2.1137  0.9595
13462TIP3    H261878   5.447   5.986  11.028  1.0918 -0.6602  2.5001
13463TIP3   OH261879   2.655   0.351  13.476  0.0077  0.7775 -0.3682
13463TIP3    H161880   2.653   0.437  13.519 -2.2780  0.6866 -0.2309
13463TIP3    H261881   2.737   0.311  13.506  0.0814  2.0591  1.2318
13464TIP3   OH261882   2.511   0.435   6.076 -1.0491  0.1832 -0.2473
13464TIP3    H161883   2.450   0.498   6.115 -1.6497  1.1992 -2.6637
13464TIP3    H261884   2.545   0.384   6.149 -1.5077  2.5062  1.6305
13465TIP3   OH261885   5.929   0.037   0.491  0.5966 -0.4431 -0.6292
13465TIP3    H161886   5.897  -0.040   0.539  0.0744  0.3502  0.3128
13465TIP3    H261887   6.016   0.054   0.528  0.4288 -0.1699 -0.3618
13466TIP3   OH261888   3.209   2.395   5.401  0.0313  0.3147 -0.4545
13466TIP3    H161889   3.268   2.346   5.344  0.9377 -0.2445  0.9413
13466TIP3    H261890   3.122   2.384   5.362  0.2165 -2.4136 -0.1524
13467TIP3   OH261891   6.060   0.355   4.680  0.4581  0.7729 -0.6074
13467TIP3    H161892   6.053   0.309   4.763  1.0376  0.7795 -0.5533
13467TIP3    H261893   5.972   0.351   4.643  0.1743  0.8431  0.0439
13468TIP3   OH261894   3.235   6.158   2.599  0.2508  0.4567  0.4782
13468TIP3    H161895   3.329   6.178   2.597  0.0998  1.1492 -0.1385
13468TIP3    H261896   3.204   6.194   2.682  0.6343 -0.2847  0.9496
13469TIP3   OH261897   3.628   1.922  12.071 -0.2405 -0.4605 -0.1133
13469TIP3    H161898   3.633   1.833  12.036 -0.0968 -0.1848 -0.8104
13469TIP3    H261899   3.606   1.910  12.163 -0.8861 -1.1932 -0.3571
13470TIP3   OH261900   2.281   0.491  12.492  0.1678 -0.5958 -0.0397
13470TIP3    H161901   2.306   0.583  12.492  2.4919 -1.2085 -0.5526
13470TIP3    H261902   2.273   0.468  12.584 -3.9756  1.0118  0.0967
13471TIP3   OH261903   4.580   4.153  14.145 -0.1422 -0.1745  0.0300
13471TIP3    H161904   4.619   4.160  14.232 -0.7376  0.7585  0.2310
13471TIP3    H261905   4.576   4.244  14.114  1.8371 -0.6556 -1.7532
13472TIP3   OH261906   1.138   4.825  10.284  0.2081  0.2796 -0.0832
13472TIP3    H161907   1.062   4.793  10.237  0.6347  0.4778 -0.9114
13472TIP3    H261908   1.138   4.920  10.268  0.5209  0.3080  0.0711
13473TIP3   OH261909   4.791   5.198  15.143 -0.5181 -0.3365  0.3356
13473TIP3    H161910   4.813   5.167  15.230  0.4520  1.0913  0.6216
13473TIP3    H261911   4.720   5.261  15.157 -0.3367 -0.0788  0.1058
13474TIP3   OH261912   3.976   0.856   5.266  0.9083  0.0324  0.0675
13474TIP3    H161913   4.048   0.845   5.328 -0.5415 -1.8654  1.4694
13474TIP3    H261914   3.944   0.945   5.282  2.5409  0.6761 -0.1596
13475TIP3   OH261915   3.199   5.700   3.862 -0.6455 -0.9761  0.1340
13475TIP3    H161916   3.227   5.665   3.778  0.8917 -1.0969  0.6637
13475TIP3    H261917   3.200   5.624   3.921 -1.5933 -0.8747  0.2755
13476TIP3   OH261918   2.348   3.480   3.887  0.6048 -0.3147  0.1141
13476TIP3    H161919   2.275   3.530   3.849 -0.8119 -2.0198  0.4818
13476TIP3    H261920   2.383   3.537   3.956 -1.3515 -0.0490  0.9257
13477TIP3   OH261921   1.081   3.990  13.278 -0.4679 -0.0820 -0.3617
13477TIP3    H161922   1.040   4.066  13.235  0.1029 -0.4012 -1.4947
13477TIP3    H261923   1.020   3.967  13.348 -1.9447 -0.1637 -1.6348
13478TIP3   OH261924   6.269   2.433  15.210  0.2623  0.0745  0.0810
13478TIP3    H161925   6.188   2.429  15.261  1.1253  1.6680  1.6248
13478TIP3    H261926   6.258   2.508  15.153 -0.4813 -1.3932 -1.7613
13479TIP3   OH261927   6.040   4.520   2.710  0.1107  0.0251 -0.5833
13479TIP3    H161928   6.014   4.546   2.798 -1.8489  1.2997 -1.4943
13479TIP3    H261929   6.106   4.452   2.723  0.2322  0.5715  1.8498
13480TIP3   OH261930   5.489   3.689  14.544 -0.2923  0.6679  0.4401
13480TIP3    H161931   5.456   3.773  14.578 -1.3227  1.0016 -1.3455
13480TIP3    H261932   5.413   3.632  14.543 -0.3808  0.7950 -1.6769
13481TIP3   OH261933   6.715   3.411   2.166 -0.8182  0.9233 -0.9392
13481TIP3    H161934   6.646   3.442   2.225  1.5170  0.6131  2.0982
13481TIP3    H261935   6.789   3.469   2.182  0.3056  0.0212 -2.6379
13482TIP3   OH261936   5.346   1.041  16.641 -0.1483 -0.0178  0.3994
13482TIP3    H161937   5.376   0.956  16.674  0.7186  0.5776  1.1778
13482TIP3    H261938   5.295   1.077  16.713  0.5589  0.6677  0.5694
13483TIP3   OH261939   2.156   3.766   5.300  0.1424  0.0474  0.4078
13483TIP3    H161940   2.236   3.722   5.271  0.5372  0.1461  1.3083
13483TIP3    H261941   2.110   3.700   5.352 -0.5422 -0.1237 -0.4097
13484TIP3   OH261942   4.050   1.623   2.375  0.5171 -0.1477  0.1729
13484TIP3    H161943   4.144   1.644   2.368  0.3149  0.7882  0.1572
13484TIP3    H261944   4.029   1.581   2.292  1.1674 -1.3738  0.6112
13485TIP3   OH261945   5.341   2.097   5.608 -0.4681 -0.4655 -0.1439
13485TIP3    H161946   5.380   2.184   5.601 -0.5275 -0.3841  0.5388
13485TIP3    H261947   5.416   2.038   5.622 -0.4489 -0.5007 -0.3898
13486TIP3   OH261948   5.827   3.114   4.406  0.7755 -0.1351 -0.6580
13486TIP3    H161949   5.890   3.186   4.401  1.7032 -0.9714 -0.9669
13486TIP3    H261950   5.872   3.046   4.456 -0.2001 -0.4160 -0.1455
13487TIP3   OH261951   1.028   3.275  15.118  0.3036 -0.3464 -0.0040
13487TIP3    H161952   1.075   3.316  15.190 -1.1393  1.0349  0.1800
13487TIP3    H261953   1.013   3.184  15.147 -0.3249  0.2137  1.4800
13488TIP3   OH261954   0.835   3.026   2.954 -0.3431 -0.1901 -0.1927
13488TIP3    H161955   0.816   3.059   3.041 -2.3900 -2.0516  0.0991
13488TIP3    H261956   0.910   3.079   2.924  0.0351  0.8270  2.4340
13489TIP3   OH261957   4.519   0.093   0.887  0.0196  0.1751 -0.3918
13489TIP3    H161958   4.537   0.077   0.980  0.9088 -0.1469 -0.6155
13489TIP3    H261959   4.439   0.044   0.870  0.0975 -0.1300  0.1030
13490TIP3   OH261960   3.545   4.933  15.711  0.2153 -0.4716 -0.0002
13490TIP3    H161961   3.501   4.857  15.671 -1.9344  1.1019 -0.7158
13490TIP3    H261962   3.535   4.919  15.806 -1.7293 -0.2502 -0.1430
13491TIP3   OH261963   0.634   0.823  12.984 -0.1090  0.0381 -0.0570
13491TIP3    H161964   0.623   0.838  13.078  2.1672  0.6409  0.1414
13491TIP3    H261965   0.602   0.734  12.969 -1.7299  0.4168  1.0399
13492TIP3   OH261966   2.823   0.631   2.642  0.4595  0.3202 -0.7982
13492TIP3    H161967   2.796   0.636   2.550 -1.8938 -0.6172 -0.1724
13492TIP3    H261968   2.802   0.542   2.669  3.2364 -0.1383  0.0535
13493TIP3   OH261969   1.315   0.964   4.678 -0.4896 -0.6826  0.0070
13493TIP3    H161970   1.279   0.965   4.589  1.6558  0.2643 -0.8864
13493TIP3    H261971   1.359   1.048   4.687  1.6205 -1.8468  0.9791
13494TIP3   OH261972   0.411   3.995  14.923  0.6769  0.0364 -0.2983
13494TIP3    H161973   0.363   4.076  14.938 -0.1012 -0.3077 -0.8892
13494TIP3    H261974   0.478   4.018  14.859 -0.9784 -0.2907 -2.1969
13495TIP3   OH261975   3.348   5.452  15.419 -0.0852 -0.3243 -0.3899
13495TIP3    H161976   3.308   5.518  15.363 -1.4864 -0.5883  0.2658
13495TIP3    H261977   3.428   5.426  15.374 -0.6632  0.2314 -1.7394
13496TIP3   OH261978   2.601   3.667  13.992 -0.4281  0.1163 -0.2264
13496TIP3    H161979   2.672   3.670  13.928 -1.1838  1.5008 -1.0242
13496TIP3    H261980   2.522   3.679  13.940 -1.0945  0.7238  0.9149
13497TIP3   OH261981   1.202   5.344   5.251 -0.6370  0.1683  0.3299
13497TIP3    H161982   1.254   5.378   5.324  0.9336 -3.0150  0.7421
13497TIP3    H261983   1.266   5.327   5.182 -1.6853  0.0493 -0.6161
13498TIP3   OH261984   6.242   5.157   4.049  0.4184 -0.1221  0.1340
13498TIP3    H161985   6.299   5.210   4.105  0.2734  0.6137 -0.4070
13498TIP3    H261986   6.156   5.162   4.091 -0.3495  2.8177 -1.7028
13499TIP3   OH261987   6.320   3.931   0.493  0.2862  0.3353  0.4321
13499TIP3    H161988   6.319   3.924   0.589 -0.5137 -0.3017  0.3766
13499TIP3    H261989   6.382   3.864   0.464 -0.1608 -0.0843  0.4498
13500TIP3   OH261990   2.547   5.495  17.242  0.0541 -0.5388  0.5154
13500TIP3    H161991   2.537   5.507  17.147  0.1160 -0.7826  0.4780
13500TIP3    H261992   2.623   5.439  17.251  0.3032 -0.1678  0.7308
13501TIP3   OH261993   5.188   4.293  15.012 -0.5311  0.3641  0.4449
13501TIP3    H161994   5.116   4.282  15.073 -0.3432  1.0203  0.7962
13501TIP3    H261995   5.166   4.372  14.962 -0.6017 -0.0702 -0.2132
13502TIP3   OH261996   1.017   3.011  15.174  0.5488 -0.5011  0.1297
13502TIP3    H161997   1.066   3.004  15.256  0.7470 -2.9977 -0.1590
13502TIP3    H261998   1.052   2.940  15.119 -0.7255  0.0921 -1.4932
13503TIP3   OH261999   5.701   3.323  11.278  0.1126 -0.5478  0.1892
13503TIP3    H162000   5.618   3.300  11.318 -0.9393 -1.0463 -2.1624
13503TIP3    H262001   5.686   3.409  11.238  0.1295 -1.4132 -1.7604
13504TIP3   OH262002   0.111   5.589  16.592  0.4784  0.1150 -0.5605
13504TIP3    H162003   0.193   5.587  16.542  1.5395  1.3638  1.0424
13504TIP3    H262004   0.063   5.663  16.557  0.3997 -0.1241 -0.9588
13505TIP3   OH262005   5.817   2.706   4.646 -0.1979  0.1656 -0.3849
13505TIP3    H162006   5.883   2.662   4.591 -0.4377 -0.8688  0.1461
13505TIP3    H262007   5.747   2.729   4.585 -0.3073 -0.6690 -0.5772
13506TIP3   OH262008   0.839   5.866  13.600 -0.0758  0.0527 -0.1450
13506TIP3    H162009   0.755   5.899  13.629  0.5423  0.6894  0.9493
13506TIP3    H262010   0.859   5.918  13.521 -0.3859  0.3755 -0.0128
13507TIP3   OH262011   3.540   4.776  14.985  0.1549  0.8814 -0.0004
13507TIP3    H162012   3.474   4.721  14.943 -0.0144  1.1892 -0.1387
13507TIP3    H262013   3.535   4.860  14.939  0.0935  1.1593  0.5122
13508TIP3   OH262014   0.211   4.374   5.386  0.0397  0.3559  0.6270
13508TIP3    H162015   0.263   4.325   5.451  2.7852  1.6564 -0.5112
13508TIP3    H262016   0.274   4.397   5.318 -2.7470 -0.8548 -2.4998
13509TIP3   OH262017   1.317   4.055  12.350  0.2789  0.1354 -0.1070
13509TIP3    H162018   1.389   4.057  12.287  1.6912 -0.2948  1.4359
13509TIP3    H262019   1.355   4.093  12.430 -1.0679 -0.5388  0.8704
13510TIP3   OH262020   4.366   1.784   1.379  0.0272  0.3082 -0.1544
13510TIP3    H162021   4.382   1.768   1.472  0.5296 -0.1399 -0.3176
13510TIP3    H262022   4.341   1.698   1.345 -0.2673  0.4968 -0.4111
13511TIP3   OH262023   0.687   0.249  17.149  0.1216  0.3442  0.1090
13511TIP3    H162024   0.630   0.325  17.138  1.5268  1.5719  1.1959
13511TIP3    H262025   0.765   0.283  17.193  0.8677 -1.6802  0.4072
13512TIP3   OH262026   5.942   6.591  17.019 -0.9969  0.2267  1.4287
13512TIP3    H162027   5.888   6.517  16.991 -0.1939  0.0728  0.1975
13512TIP3    H262028   5.895   6.669  16.989 -0.1228  0.0587 -0.4499
13513TIP3   OH262029   0.716   2.110   1.595  0.1692 -0.0864  0.8684
13513TIP3    H162030   0.782   2.127   1.528  1.1033 -1.0768  1.5064
13513TIP3    H262031   0.698   2.016   1.587 -1.6089  0.2952  0.3071
13514TIP3   OH262032   6.427   5.346   3.760  0.1972 -0.1233  0.1462
13514TIP3    H162033   6.485   5.418   3.736 -0.3500  0.1386 -0.4147
13514TIP3    H262034   6.483   5.284   3.806  0.9413  0.0755 -0.4854
13515TIP3   OH262035   5.712   3.309  12.569 -0.1795 -0.4885 -0.4454
13515TIP3    H162036   5.716   3.292  12.663  2.4231  1.3288 -0.1868
13515TIP3    H262037   5.730   3.225  12.528 -0.2393 -1.0586  0.6933
13516TIP3   OH262038   4.154   6.522  13.691 -0.3146 -0.6431  0.1428
13516TIP3    H162039   4.179   6.442  13.646 -2.5571 -0.1527 -2.0793
13516TIP3    H262040   4.230   6.579  13.682  0.2742 -1.5402 -0.6693
13517TIP3   OH262041   1.316   2.471   6.395  0.3150 -0.4941  0.0359
13517TIP3    H162042   1.294   2.378   6.388 -0.0344 -0.4394  0.3805
13517TIP3    H262043   1.295   2.494   6.485 -2.8934  0.7410 -0.9523
13518TIP3   OH262044   1.656   1.694   1.925  0.3243 -0.0851 -0.3715
13518TIP3    H162045   1.726   1.754   1.951 -1.8523  2.0446  0.7381
13518TIP3    H262046   1.683   1.609   1.961  1.3478  1.1153  1.8084
13519TIP3   OH262047   0.431   0.323  11.060  0.5997 -0.2974  0.9640
13519TIP3    H162048   0.431   0.418  11.059  0.4980 -0.2977 -0.2050
13519TIP3    H262049   0.520   0.299  11.086  0.9012  0.1178  0.3132
13520TIP3   OH262050   6.201   5.515  15.355  0.1166 -0.4120  0.1915
13520TIP3    H162051   6.205   5.575  15.429  2.3126 -1.4129  0.9237
13520TIP3    H262052   6.122   5.463  15.370  0.3166 -0.3214  1.6281
13521TIP3   OH262053   3.666   1.034   2.147  0.3418  0.0856 -0.5966
13521TIP3    H162054   3.603   1.104   2.165 -0.5225 -0.1230 -2.6997
13521TIP3    H262055   3.645   1.004   2.058  4.0979  0.7965 -1.8400
13522TIP3   OH262056   1.502   5.778   5.731  0.4843  0.5079 -0.0197
13522TIP3    H162057   1.465   5.842   5.792  0.0891  0.0483  0.2262
13522TIP3    H262058   1.597   5.788   5.740  0.4405  1.8356 -0.7954
13523TIP3   OH262059   1.648   2.314   1.534 -0.0281  0.1402  0.7533
13523TIP3    H162060   1.714   2.346   1.473 -0.0592 -0.0636  0.6100
13523TIP3    H262061   1.578   2.281   1.478  0.9345 -2.1757  0.8302
13524TIP3   OH262062   1.909   0.416  13.539  1.0447  0.3805 -0.1557
13524TIP3    H162063   1.918   0.502  13.498  1.2411  1.0122  1.1933
13524TIP3    H262064   1.920   0.354  13.467  0.9742  1.4818 -1.1266
13525TIP3   OH262065   3.534   5.326  14.266 -0.4180  0.0017 -0.4164
13525TIP3    H162066   3.553   5.233  14.281  1.5745  0.4188 -0.2671
13525TIP3    H262067   3.556   5.368  14.349 -1.4134  0.6092 -0.4532
13526TIP3   OH262068   0.360   0.116  14.238 -0.2292  0.0548 -1.0432
13526TIP3    H162069   0.377   0.094  14.330  1.0513  1.1109 -1.0098
13526TIP3    H262070   0.447   0.123  14.198 -0.7493  0.5093 -2.1204
13527TIP3   OH262071   6.797   1.528   1.513  0.5080  0.4411  0.6016
13527TIP3    H162072   6.716   1.571   1.485 -0.2793 -2.0333 -1.0624
13527TIP3    H262073   6.791   1.525   1.608 -0.9877  0.9689  0.5409
13528TIP3   OH262074   4.563   0.476   0.964  0.0217 -1.1484 -0.1675
13528TIP3    H162075   4.529   0.559   0.930 -0.2832 -1.2549 -0.1240
13528TIP3    H262076   4.656   0.478   0.942  0.2165 -0.3806  0.6486
13529TIP3   OH262077   5.561   0.171  12.778  0.8297  0.3296  0.1972
13529TIP3    H162078   5.647   0.168  12.735  2.1816  1.6033  2.6963
13529TIP3    H262079   5.499   0.189  12.707  2.5690 -0.8746 -1.6993
13530TIP3   OH262080   4.815   3.587   3.494  0.1077 -0.1894  0.1743
13530TIP3    H162081   4.876   3.636   3.438  0.4245 -0.2440  0.4636
13530TIP3    H262082   4.862   3.579   3.577 -0.3082 -0.2181  0.4039
13531TIP3   OH262083   3.663   4.883   2.905 -1.0147  0.4205 -0.0602
13531TIP3    H162084   3.676   4.852   2.994  1.6075  0.5918 -0.3688
13531TIP3    H262085   3.714   4.824   2.850  0.0814  2.2886 -1.1175
13532TIP3   OH262086   4.429   6.791   3.126 -0.3856 -0.1458  0.1943
13532TIP3    H162087   4.462   6.701   3.116 -0.5863 -0.2556  0.5383
13532TIP3    H262088   4.373   6.788   3.203  0.5974  0.5626  0.9338
13533TIP3   OH262089   6.778   4.640  12.597 -1.1063  0.2077  0.0881
13533TIP3    H162090   6.779   4.607  12.507 -2.1088 -1.8308  0.7811
13533TIP3    H262091   6.808   4.566  12.650  0.3506  1.6821  1.3561
13534TIP3   OH262092   1.437   5.840  11.208  0.2461  0.4156  0.1608
13534TIP3    H162093   1.366   5.847  11.272  1.1605  1.1256  1.1230
13534TIP3    H262094   1.494   5.771  11.244  0.0562 -0.1423 -0.5994
13535TIP3   OH262095   2.806   3.878   2.467 -0.1966  0.1739  0.1838
13535TIP3    H162096   2.783   3.893   2.375 -0.6879  0.4663  0.3561
13535TIP3    H262097   2.789   3.785   2.480 -0.5681  0.2308  0.1080
13536TIP3   OH262098   6.576   4.854   2.165 -0.5376  0.6881 -0.2250
13536TIP3    H162099   6.593   4.818   2.253  1.7672  0.9661 -0.5118
13536TIP3    H262100   6.644   4.815   2.110 -2.8548 -0.6484 -2.2461
13537TIP3   OH262101   4.861   6.452  16.064 -0.1052 -0.2413 -0.6320
13537TIP3    H162102   4.930   6.426  16.003  1.6340  1.1760  0.6599
13537TIP3    H262103   4.784   6.466  16.009  0.7327 -1.4446 -2.1614
13538TIP3   OH262104   6.143   0.378   1.140 -0.1232  0.7220 -0.7430
13538TIP3    H162105   6.099   0.424   1.212  0.9555  0.7747 -0.1066
13538TIP3    H262106   6.111   0.421   1.061 -2.1710 -0.0633 -0.3648
13539TIP3   OH262107   3.146   3.778  17.244  0.3389 -0.5800  0.2203
13539TIP3    H162108   3.136   3.828  17.324 -0.3682 -0.0521 -0.1807
13539TIP3    H262109   3.056   3.765  17.213  0.6098 -0.5536 -0.6103
13540TIP3   OH262110   3.995   4.002  16.295  0.2274 -0.7034 -0.5391
13540TIP3    H162111   3.918   4.012  16.351  0.6114 -1.0779  0.0547
13540TIP3    H262112   3.984   3.915  16.255  0.2819 -0.7045 -0.5517
13541TIP3   OH262113   3.790   1.402  16.911  0.2347  0.0961 -0.0873
13541TIP3    H162114   3.826   1.475  16.962 -0.7094  1.0040 -0.6994
13541TIP3    H262115   3.793   1.327  16.970 -0.1420  0.9686  1.0506
13542TIP3   OH262116   3.998   6.528   1.830 -0.1964  0.2871  0.3284
13542TIP3    H162117   3.931   6.475   1.873  0.1890 -0.4032  0.0871
13542TIP3    H262118   3.949   6.587   1.772 -0.6889  0.9708  1.4361
13543TIP3   OH262119   2.548   1.743   5.410  0.1786 -0.4321  0.0652
13543TIP3    H162120   2.531   1.835   5.388 -1.6465 -0.8904 -0.5645
13543TIP3    H262121   2.576   1.703   5.327  0.1232 -0.6382  0.1454
13544TIP3   OH262122   2.533   1.165  16.931  0.9934 -0.0972 -0.6801
13544TIP3    H162123   2.445   1.128  16.929 -0.0067  2.2175 -1.1220
13544TIP3    H262124   2.533   1.232  16.863  2.8745  0.4007 -0.2302
13545TIP3   OH262125   1.047   4.805   1.005  0.1147 -0.4420 -0.0769
13545TIP3    H162126   1.034   4.753   1.084  0.9576 -1.2603 -0.4654
13545TIP3    H262127   0.961   4.843   0.987 -0.2853 -0.9419  0.7443
13546TIP3   OH262128   5.002   6.127  16.882 -0.4019  0.2328 -0.0665
13546TIP3    H162129   5.045   6.095  16.802 -1.2466 -0.0945 -0.3913
13546TIP3    H262130   5.038   6.215  16.894 -0.0606  0.1828 -0.6590
13547TIP3   OH262131   6.723   1.611   6.941 -0.1758  0.3788  0.0916
13547TIP3    H162132   6.702   1.683   7.001  0.6699 -0.6231  1.6259
13547TIP3    H262133   6.805   1.575   6.975 -0.6009 -1.3200 -0.6540
13548TIP3   OH262134   5.043   0.386   0.342  0.2967  0.8255 -0.4761
13548TIP3    H162135   5.038   0.397   0.247  0.0379  1.2860 -0.4089
13548TIP3    H262136   5.010   0.468   0.378  1.0367  0.9184  0.0077
13549TIP3   OH262137   2.988   0.093  13.816 -0.1971 -0.0797  0.3904
13549TIP3    H162138   2.979   0.002  13.787 -0.4919  0.4991 -1.3765
13549TIP3    H262139   3.053   0.090  13.886 -1.1410 -1.8332  1.2048
13550TIP3   OH262140   0.594   1.994   4.076 -0.3342  0.2203 -0.1859
13550TIP3    H162141   0.663   2.060   4.075  0.0188 -0.1523 -1.4828
13550TIP3    H262142   0.633   1.919   4.121 -0.7737  0.9297  1.3817
13551TIP3   OH262143   2.922   4.644   5.435 -0.1299 -0.5090 -0.5262
13551TIP3    H162144   3.009   4.616   5.462  0.5123  0.6789 -1.3000
13551TIP3    H262145   2.931   4.665   5.342 -1.1481 -0.0171 -0.5282
13552TIP3   OH262146   3.964   3.598  13.668 -0.4113 -0.4004  0.2753
13552TIP3    H162147   4.045   3.548  13.674 -0.3786 -0.5710 -1.2805
13552TIP3    H262148   3.897   3.541  13.705  0.2786  0.0205  2.2135
13553TIP3   OH262149   5.812   0.522  13.158 -0.1491  0.5610  0.5136
13553TIP3    H162150   5.805   0.615  13.136 -0.3614  0.5805  0.6621
13553TIP3    H262151   5.755   0.479  13.093  0.7263  0.4437 -0.1853
13554TIP3   OH262152   0.568   0.991  12.007  0.4748  0.0867  0.6287
13554TIP3    H162153   0.588   0.940  11.930  0.8964  1.9410 -0.5262
13554TIP3    H262154   0.572   0.929  12.080 -0.9169 -1.8769 -0.9306
13555TIP3   OH262155   6.601   0.880   5.303 -0.5111  0.1798 -0.2379
13555TIP3    H162156   6.609   0.881   5.399 -0.0189 -3.0331 -0.1894
13555TIP3    H262157   6.628   0.967   5.276  2.6004  0.1032  2.3448
13556TIP3   OH262158   2.359   6.642   6.461  0.1140 -0.2924  0.1829
13556TIP3    H162159   2.302   6.699   6.411  0.6065  0.9232  0.9796
13556TIP3    H262160   2.304   6.567   6.485 -0.6970  0.1322 -0.3552
13557TIP3   OH262161   2.722   2.289  14.404  0.6134 -0.2372 -0.2868
13557TIP3    H162162   2.703   2.381  14.386 -1.3194 -0.5687  0.0019
13557TIP3    H262163   2.702   2.279  14.497 -0.1792 -1.1910 -0.5554
13558TIP3   OH262164   0.417   2.186  11.898  0.1640  0.7000  0.0901
13558TIP3    H162165   0.449   2.145  11.978 -0.4887  2.1166  1.1118
13558TIP3    H262166   0.354   2.124  11.862  0.9266 -0.2232  0.3360
13559TIP3   OH262167   1.715   4.471   0.130 -0.0373  0.1743  0.5002
13559TIP3    H162168   1.719   4.545   0.068 -2.0652  0.4484  0.6659
13559TIP3    H262169   1.718   4.512   0.216 -1.0230  0.0697  0.5908
13560TIP3   OH262170   6.027   1.492   2.204  0.1647  0.6178 -0.0800
13560TIP3    H162171   6.087   1.545   2.152  2.6420 -0.3949  1.6511
13560TIP3    H262172   6.053   1.402   2.187 -0.1946  0.2026  1.4517
13561TIP3   OH262173   5.854   4.144  12.550  1.2807  0.3891  0.2636
13561TIP3    H162174   5.812   4.059  12.558  0.8184  0.5716 -0.1852
13561TIP3    H262175   5.913   4.135  12.475  1.2472  0.4616  0.2290
13562TIP3   OH262176   3.048   1.851  15.246 -0.0295 -0.4521 -0.1971
13562TIP3    H162177   3.105   1.776  15.228 -0.9155 -0.8971 -1.1819
13562TIP3    H262178   2.960   1.819  15.228 -0.6356  0.1827  1.4913
13563TIP3   OH262179   6.730   1.940  12.631  0.7927  0.2736 -0.1626
13563TIP3    H162180   6.764   1.855  12.603  1.3572  0.5197 -0.2317
13563TIP3    H262181   6.793   2.003  12.597  0.2633  0.7362 -0.2921
13564TIP3   OH262182   5.281   5.264   6.129 -0.3824 -0.2594  0.5368
13564TIP3    H162183   5.242   5.273   6.216  0.9018 -0.8750  1.1950
13564TIP3    H262184   5.265   5.174   6.104 -0.5729 -0.1395  0.2228
13565TIP3   OH262185   6.237   5.038  11.300  0.3387  0.1426 -0.0356
13565TIP3    H162186   6.218   4.945  11.286  0.4746  0.3539 -1.7266
13565TIP3    H262187   6.255   5.045  11.394  2.7787 -1.9641 -0.2945
13566TIP3   OH262188   2.112   3.737   3.249 -0.1167  0.1227  0.0574
13566TIP3    H162189   2.038   3.797   3.256  0.0377  0.1548  1.4853
13566TIP3    H262190   2.109   3.706   3.158  0.1687  2.7343 -0.8693
13567TIP3   OH262191   4.291   6.076  13.182  0.0236  0.3070 -0.1222
13567TIP3    H162192   4.351   6.002  13.189  0.0014  0.4238  1.3764
13567TIP3    H262193   4.204   6.036  13.182  0.0107  0.3424  0.7303
13568TIP3   OH262194   5.952   5.674  12.233  0.1352  0.3880  0.3410
13568TIP3    H162195   6.038   5.653  12.198  0.2564  1.5402 -0.0424
13568TIP3    H262196   5.967   5.744  12.296 -0.5124  0.5773  0.2930
13569TIP3   OH262197   5.160   4.164  15.513  0.7166  0.2913 -0.0640
13569TIP3    H162198   5.072   4.130  15.500 -0.4858  3.7068 -1.3709
13569TIP3    H262199   5.212   4.127  15.442  0.1803 -1.1308  0.2797
13570TIP3   OH262200   3.287   2.958  13.610  0.3266  0.0933  0.1843
13570TIP3    H162201   3.224   2.886  13.607  0.8953 -0.4221  0.3882
13570TIP3    H262202   3.246   3.024  13.664  0.9476 -1.2136  2.3284
13571TIP3   OH262203   4.503   2.657  11.734  0.1744  0.2005 -0.0059
13571TIP3    H162204   4.486   2.743  11.771 -0.1201  0.2481 -0.2429
13571TIP3    H262205   4.514   2.599  11.810 -0.4867  0.2839  0.1580
13572TIP3   OH262206   2.287   6.566  15.156 -0.0886  0.9467 -0.1639
13572TIP3    H162207   2.321   6.620  15.227 -0.0880  0.4141  0.2533
13572TIP3    H262208   2.271   6.627  15.084  1.1980  1.2861 -0.1759
13573TIP3   OH262209   2.700   1.023  13.103  0.2775 -0.1833  0.0578
13573TIP3    H162210   2.673   1.087  13.038 -0.2492 -0.1565  0.3035
13573TIP3    H262211   2.788   1.051  13.129 -0.4831  1.2621  1.1739
13574TIP3   OH262212   5.518   2.171  15.209  0.0521  0.0397  0.2511
13574TIP3    H162213   5.510   2.241  15.144 -1.2117  2.1091  2.5213
13574TIP3    H262214   5.464   2.100  15.175  2.0366 -0.2017 -2.5188
13575TIP3   OH262215   6.507   3.153  12.028 -0.2328 -0.1236 -0.1024
13575TIP3    H162216   6.555   3.166  11.946 -2.0422  0.7326 -1.0869
13575TIP3    H262217   6.566   3.182  12.097  0.4341  1.4552 -1.3210
13576TIP3   OH262218   3.800   5.103   3.715 -0.5489  0.1980  0.8643
13576TIP3    H162219   3.814   5.047   3.639 -1.5762 -1.0606  1.5771
13576TIP3    H262220   3.736   5.169   3.685  1.6035  1.7891 -0.3420
13577TIP3   OH262221   5.642   1.498  15.086 -0.3774 -0.7474 -0.5890
13577TIP3    H162222   5.557   1.533  15.059 -0.7744 -0.9757  0.3468
13577TIP3    H262223   5.701   1.573  15.085 -1.7154  0.4736  3.5550
13578TIP3   OH262224   2.507   2.745  12.797  0.0876 -0.2931  0.1885
13578TIP3    H162225   2.579   2.683  12.784  1.3467  1.1752  0.0230
13578TIP3    H262226   2.521   2.779  12.886 -0.3662  0.0495  0.1286
13579TIP3   OH262227   2.715   5.519  11.845 -0.2719  0.9053  0.3752
13579TIP3    H162228   2.638   5.517  11.903  0.4111  3.2295  1.4195
13579TIP3    H262229   2.740   5.611  11.841  1.4851  0.3956 -1.2901
13580TIP3   OH262230   5.648   5.020   5.433  0.0418 -0.4540  0.5466
13580TIP3    H162231   5.600   4.939   5.419  2.6890 -2.2712  1.4363
13580TIP3    H262232   5.649   5.031   5.528  1.4315 -0.5233  0.5572
13581TIP3   OH262233   4.219   4.942  13.424 -0.4183  0.0647 -0.6873
13581TIP3    H162234   4.174   4.951  13.508 -1.0009 -1.0314 -0.8788
13581TIP3    H262235   4.215   4.849  13.404  0.7556  0.1519 -1.3708
13582TIP3   OH262236   3.285   1.925  12.048 -0.1484 -0.2647 -0.4517
13582TIP3    H162237   3.319   1.956  11.964 -0.0174 -1.2039 -0.7439
13582TIP3    H262238   3.334   1.845  12.066 -0.1484 -0.0528  0.5423
13583TIP3   OH262239   5.888   2.421  11.580 -0.1840 -0.5452 -0.3514
13583TIP3    H162240   5.905   2.450  11.670 -1.5997  0.7478 -0.4735
13583TIP3    H262241   5.929   2.487  11.525 -1.1458 -0.1758 -0.6393
13584TIP3   OH262242   0.622   5.900  14.475 -0.8997  0.0996 -0.1456
13584TIP3    H162243   0.621   5.994  14.495  0.8177  0.1834 -0.3605
13584TIP3    H262244   0.650   5.895  14.384 -1.8722 -0.5979 -0.4184
13585TIP3   OH262245   6.551   2.454  13.344  0.0198 -0.4181 -0.0130
13585TIP3    H162246   6.525   2.431  13.255  0.6803 -0.8993 -0.0826
13585TIP3    H262247   6.468   2.462  13.391 -0.3349 -0.2176 -0.6503
13586TIP3   OH262248   2.033   2.894  15.118 -0.3500  0.0643  0.4116
13586TIP3    H162249   2.088   2.833  15.167  0.6815  0.8565  0.2500
13586TIP3    H262250   2.094   2.954  15.076 -1.1786 -0.7314 -2.0839
13587TIP3   OH262251   5.757   6.036  15.853  0.0025 -0.0088 -0.3562
13587TIP3    H162252   5.751   6.122  15.811  0.5316  0.8228  1.2352
13587TIP3    H262253   5.790   5.978  15.784  0.2196  1.1923 -1.2768
13588TIP3   OH262254   4.387   1.878  15.561 -0.5581  0.4015  0.3698
13588TIP3    H162255   4.481   1.877  15.543 -0.3669  2.0223  1.1482
13588TIP3    H262256   4.377   1.824  15.640 -0.5812 -1.5296 -0.9223
13589TIP3   OH262257   6.070   5.669   5.581 -0.5640 -0.3406  0.3439
13589TIP3    H162258   6.000   5.697   5.522 -0.5169  0.3498  0.6052
13589TIP3    H262259   6.136   5.630   5.524  0.1080  1.5772 -0.2283
13590TIP3   OH262260   4.768   4.312  13.633  0.2619 -0.4465 -0.0362
13590TIP3    H162261   4.845   4.355  13.669  0.1345 -2.0977  2.2545
13590TIP3    H262262   4.794   4.288  13.544  1.4913  1.2880 -0.1669
13591TIP3   OH262263   4.588   0.866  14.275  0.2645  0.4614 -0.2856
13591TIP3    H162264   4.547   0.785  14.304  2.2984 -0.3338  0.5220
13591TIP3    H262265   4.542   0.936  14.321 -2.5379 -0.0670 -2.1770
13592TIP3   OH262266   5.991   1.144   3.880 -0.3331 -0.0246 -0.2500
13592TIP3    H162267   5.993   1.174   3.789 -0.9591 -1.9887 -0.9518
13592TIP3    H262268   6.066   1.085   3.888 -0.9202 -0.7231  0.1876
13593TIP3   OH262269   4.099   0.237   0.429  0.3336  0.0167 -0.7217
13593TIP3    H162270   4.117   0.330   0.444 -1.0872  0.1757  0.1052
13593TIP3    H262271   4.088   0.200   0.517 -0.5829 -0.6224 -1.0902
13594TIP3   OH262272   5.122   5.929   1.190 -0.2506  0.1306  0.1543
13594TIP3    H162273   5.131   5.851   1.244 -0.0646  0.6851  0.9376
13594TIP3    H262274   5.176   5.912   1.114  2.6188  0.9058  1.9435
13595TIP3   OH262275   1.458   3.702   0.463 -0.2389 -0.3547  0.0190
13595TIP3    H162276   1.372   3.669   0.439 -0.6305  0.5684  0.1182
13595TIP3    H262277   1.490   3.745   0.383 -0.4028  0.3816  0.3422
13596TIP3   OH262278   5.743   0.255   2.869 -0.2719 -0.3589  0.5974
13596TIP3    H162279   5.820   0.215   2.828  0.4901 -0.1615  1.8219
13596TIP3    H262280   5.670   0.200   2.840  0.3486 -0.6193 -0.4772
13597TIP3   OH262281   0.058   5.588  12.801 -0.3535 -0.4329 -0.3570
13597TIP3    H162282   0.090   5.609  12.713 -1.5872  0.1944 -0.6732
13597TIP3    H262283  -0.034   5.615  12.799 -1.2030 -3.1381  0.1743
13598TIP3   OH262284   3.800   4.136  14.294  0.0323 -0.2145 -0.5425
13598TIP3    H162285   3.807   4.214  14.239  0.5469 -0.1403 -0.3786
13598TIP3    H262286   3.848   4.068  14.247  0.4686 -0.1529 -0.1948
13599TIP3   OH262287   2.404   0.217  15.589 -0.4396 -0.1411  0.3341
13599TIP3    H162288   2.407   0.122  15.573 -0.3954 -0.1230  0.2296
13599TIP3    H262289   2.367   0.253  15.508 -0.3172 -0.0562  0.3154
13600TIP3   OH262290   5.031   3.995   3.096 -0.1052 -0.0421  0.1866
13600TIP3    H162291   4.936   3.993   3.085 -0.1300  3.2040 -0.7227
13600TIP3    H262292   5.064   3.925   3.039 -1.7824  0.9053 -2.0224
13601TIP3   OH262293   2.152   1.427   5.658 -0.1647  0.6497 -0.5188
13601TIP3    H162294   2.188   1.465   5.738 -1.1299  1.9428 -0.6812
13601TIP3    H262295   2.222   1.371   5.624  0.6557  0.9630  0.6343
13602TIP3   OH262296   5.970   2.489  17.024  0.2743  0.0079 -0.2860
13602TIP3    H162297   5.953   2.572  16.980 -0.4539 -1.6637 -3.3116
13602TIP3    H262298   6.065   2.477  17.018  0.1639 -0.2654 -1.5391
13603TIP3   OH262299   1.600   4.335   4.930 -0.3918  1.2226  0.1962
13603TIP3    H162300   1.572   4.255   4.975  0.5598  0.8334  0.1122
13603TIP3    H262301   1.576   4.406   4.989 -0.8315  0.8356  0.4817
13604TIP3   OH262302   5.275   1.241   2.982  0.0048  0.5686 -0.0631
13604TIP3    H162303   5.302   1.324   3.021  0.3524  0.4324 -0.0105
13604TIP3    H262304   5.346   1.219   2.922  0.1327  0.0796  0.2661
13605TIP3   OH262305   0.176   6.699  15.498 -0.4310 -0.4338  0.0546
13605TIP3    H162306   0.159   6.619  15.549 -1.0811 -0.6684 -0.5268
13605TIP3    H262307   0.125   6.688  15.418  0.3905  0.0440 -0.5471
13606TIP3   OH262308   1.163   4.698   4.478  0.1988  0.1597 -0.4470
13606TIP3    H162309   1.227   4.769   4.472 -0.0932  0.5910  1.1100
13606TIP3    H262310   1.199   4.640   4.545 -1.3392  0.7595  0.9348
13607TIP3   OH262311   5.385   0.865   1.911  0.2537  0.0977  0.1716
13607TIP3    H162312   5.479   0.865   1.931  0.5958  0.8132 -1.3538
13607TIP3    H262313   5.361   0.958   1.909 -0.3620 -0.0618 -0.0331
13608TIP3   OH262314   1.096   4.387  14.241  0.3302 -0.2379 -0.0076
13608TIP3    H162315   1.152   4.452  14.285  0.0605  1.6698 -2.3557
13608TIP3    H262316   1.152   4.350  14.173 -1.2839  2.0276 -2.6896
13609TIP3   OH262317   3.528   3.192  13.226 -0.6579 -0.0034 -0.2808
13609TIP3    H162318   3.616   3.154  13.235 -1.9860 -3.1795  0.1104
13609TIP3    H262319   3.524   3.221  13.135 -0.2620 -2.8089 -1.2583
13610TIP3   OH262320   6.072   5.855  12.409 -0.0713 -0.3163  0.1888
13610TIP3    H162321   6.038   5.927  12.463  1.0740 -0.2301  0.8059
13610TIP3    H262322   6.125   5.898  12.342  2.0323 -0.6640  1.5903
13611TIP3   OH262323   6.357   3.352   2.098  0.2060 -0.3621  0.2733
13611TIP3    H162324   6.343   3.272   2.149 -0.7246 -1.6118 -1.9003
13611TIP3    H262325   6.391   3.321   2.014  0.8011  1.6131 -0.2272
13612TIP3   OH262326   0.896   1.937  13.630 -0.8051 -0.2530  0.2323
13612TIP3    H162327   0.948   1.909  13.554 -2.1029  0.9068 -1.1080
13612TIP3    H262328   0.902   1.863  13.691  1.2562 -0.7131 -0.4700
13613TIP3   OH262329   5.177   1.495   1.808  0.4359  0.2485  0.1630
13613TIP3    H162330   5.163   1.406   1.842 -1.4451  0.6496  0.5195
13613TIP3    H262331   5.271   1.501   1.794  0.6827 -1.5323  0.9117
13614TIP3   OH262332   4.478   4.911  12.105 -0.6682  0.3560  0.0129
13614TIP3    H162333   4.393   4.953  12.113 -1.1709 -0.6469  0.1087
13614TIP3    H262334   4.514   4.913  12.194 -1.0476 -0.1292  0.1832
13615TIP3   OH262335   1.602   3.391  14.932 -0.4316  0.2609 -1.0239
13615TIP3    H162336   1.570   3.365  15.019 -0.2084  0.6535 -0.8207
13615TIP3    H262337   1.542   3.460  14.905  1.4261  2.4494  0.2463
13616TIP3   OH262338   1.300   4.661   0.051  0.3464 -0.1878  0.6829
13616TIP3    H162339   1.352   4.621   0.120  1.3339  0.2459  0.1954
13616TIP3    H262340   1.221   4.692   0.096  0.8701 -0.1199  1.5670
13617TIP3   OH262341   1.720   0.270  17.031 -0.0056 -0.0724 -0.3723
13617TIP3    H162342   1.796   0.243  17.084 -1.1560  0.8341  1.8345
13617TIP3    H262343   1.734   0.364  17.018 -0.5215  0.0121 -0.3152
13618TIP3   OH262344   1.388   5.969  15.144 -0.8394  0.5888 -0.4660
13618TIP3    H162345   1.315   5.930  15.096 -1.9913  0.9175  0.9783
13618TIP3    H262346   1.371   5.947  15.235  1.2285  0.1196 -0.1728
13619TIP3   OH262347   2.958   1.163  13.931  0.0873 -0.7911  0.0928
13619TIP3    H162348   3.041   1.176  13.885 -0.8865  2.2739 -0.8693
13619TIP3    H262349   2.900   1.229  13.895 -2.8604 -2.9678  0.6732
13620TIP3   OH262350   0.745   1.542  12.543 -0.6215 -0.1773  0.3613
13620TIP3    H162351   0.754   1.453  12.509 -0.5789  0.2541 -0.7590
13620TIP3    H262352   0.689   1.587  12.479  1.4084  1.3113 -0.4229
13621TIP3   OH262353   0.729   2.890   2.143  0.0134 -0.0751  0.3873
13621TIP3    H162354   0.690   2.977   2.133  0.0885  0.0053  0.7783
13621TIP3    H262355   0.742   2.881   2.238  2.4387  0.5437  0.1473
13622TIP3   OH262356   4.585   0.358  17.194 -0.4938 -0.1137  0.0166
13622TIP3    H162357   4.505   0.310  17.213  0.4291 -0.9634  1.9077
13622TIP3    H262358   4.614   0.325  17.109 -0.1865 -2.4708  1.0094
13623TIP3   OH262359   6.256   0.247  16.080  0.1940  0.6072  0.6055
13623TIP3    H162360   6.273   0.180  16.145 -0.7256 -0.8953 -0.6866
13623TIP3    H262361   6.268   0.203  15.996  3.0792  2.9171 -0.2985
13624TIP3   OH262362   5.463   5.017  13.075  0.0693 -0.8710  0.1599
13624TIP3    H162363   5.428   5.106  13.077 -0.0360 -0.8990 -0.5637
13624TIP3    H262364   5.390   4.961  13.103  0.8402 -0.5142  3.0612
13625TIP3   OH262365   5.632   3.796  12.481  0.0599 -0.0374 -0.0510
13625TIP3    H162366   5.628   3.738  12.405  0.1099 -1.2289  0.8472
13625TIP3    H262367   5.725   3.814  12.494  0.0730 -0.0841 -0.0813
13626TIP3   OH262368   4.070   1.624   4.913 -0.0820 -0.2493  0.5706
13626TIP3    H162369   4.008   1.696   4.926 -0.7461 -0.5255 -1.0036
13626TIP3    H262370   4.024   1.547   4.945 -0.6433 -0.4840 -0.7679
13627TIP3   OH262371   1.985   6.790  15.724  0.4128  0.3245  0.0641
13627TIP3    H162372   1.972   6.766  15.633 -1.1601 -0.6530  0.5298
13627TIP3    H262373   1.936   6.872  15.735  0.5724  0.4229  0.0461
13628TIP3   OH262374   0.196   2.420  10.441  0.1054 -0.0571 -0.3191
13628TIP3    H162375   0.204   2.325  10.434 -0.2414 -0.0309 -1.1285
13628TIP3    H262376   0.172   2.449  10.353  1.2871  0.8965 -0.3557
13629TIP3   OH262377   2.100   6.020  11.220  0.3278 -0.0662  0.3134
13629TIP3    H162378   2.159   5.950  11.191  1.2298  0.4589  0.8676
13629TIP3    H262379   2.057   5.984  11.298 -0.7923 -0.8031 -0.6221
13630TIP3   OH262380   5.928   3.849   5.686  0.2438  0.2991  0.0554
13630TIP3    H162381   6.001   3.848   5.748 -0.3398  1.1438  0.7666
13630TIP3    H262382   5.894   3.760   5.687  1.0723 -0.0199 -0.0504
13631TIP3   OH262383   5.862   3.978  16.206 -0.0025  0.3906 -0.5617
13631TIP3    H162384   5.798   3.932  16.259  0.3715  0.6024  0.0739
13631TIP3    H262385   5.831   3.966  16.116 -0.9112  0.4740 -0.2600
13632TIP3   OH262386   6.496   3.352   2.517  0.2701  0.0891  0.2661
13632TIP3    H162387   6.557   3.425   2.527 -0.1742  0.3015  1.5013
13632TIP3    H262388   6.451   3.347   2.601 -0.3079 -1.0650 -0.1059
13633TIP3   OH262389   1.031   4.122   0.583 -0.1998  0.0696 -0.1360
13633TIP3    H162390   0.983   4.086   0.658 -0.6461  0.9079 -0.0142
13633TIP3    H262391   1.122   4.122   0.611 -0.2032 -0.8890 -0.1084
13634TIP3   OH262392   5.571   2.436   2.820  0.2624  0.3731  0.0996
13634TIP3    H162393   5.610   2.518   2.790  1.8882 -1.3861 -2.7170
13634TIP3    H262394   5.485   2.434   2.778  0.0377  0.8358  0.5315
13635TIP3   OH262395   5.878   1.489  11.699 -0.5500  0.1201  0.6386
13635TIP3    H162396   5.790   1.492  11.662  0.0545 -0.3096 -0.8549
13635TIP3    H262397   5.910   1.579  11.689 -0.9771  0.3912  1.6114
13636TIP3   OH262398   5.684   2.093  12.691 -0.2130 -0.7064  0.4003
13636TIP3    H162399   5.654   2.141  12.614 -0.6437 -1.7943 -0.1219
13636TIP3    H262400   5.779   2.086  12.679 -0.4162 -1.8788 -0.6307
13637TIP3   OH262401   1.596   2.898  12.677 -0.5440  0.1604 -0.1884
13637TIP3    H162402   1.514   2.864  12.643 -0.5309 -2.0741  1.8524
13637TIP3    H262403   1.570   2.951  12.752 -0.0954 -1.5999  1.2537
13638TIP3   OH262404   3.713   6.271  13.421  0.0249  0.0541  0.1071
13638TIP3    H162405   3.618   6.277  13.436  0.5313  1.2618  3.3483
13638TIP3    H262406   3.727   6.313  13.337 -2.4950 -1.6543 -1.2129
13639TIP3   OH262407   5.793   2.078  10.690  0.0721  0.3963  0.0202
13639TIP3    H162408   5.753   2.043  10.610  0.1855 -2.7507  1.2866
13639TIP3    H262409   5.887   2.064  10.678  0.0501 -0.5777  0.9067
13640TIP3   OH262410   0.471   4.743  15.972 -0.2886  0.2045 -0.2122
13640TIP3    H162411   0.511   4.821  16.011  1.3389 -0.6804 -0.0872
13640TIP3    H262412   0.527   4.671  16.000 -2.1817 -1.1158  0.2596
13641TIP3   OH262413   2.413   1.390   5.218  0.2322  0.3086 -0.0106
13641TIP3    H162414   2.400   1.367   5.126  1.5929 -0.4023 -0.0502
13641TIP3    H262415   2.378   1.478   5.227  2.1198  1.2699 -1.7431
13642TIP3   OH262416   0.891   1.075   1.940  0.5677 -0.3292  0.7880
13642TIP3    H162417   0.861   0.998   1.892  1.4777  0.4627 -1.1031
13642TIP3    H262418   0.869   1.149   1.884  3.6372  0.4566  0.5467
13643TIP3   OH262419   2.473   5.609   3.001  0.4618  0.4543 -0.1537
13643TIP3    H162420   2.445   5.669   2.932  0.1801  1.6209  0.9683
13643TIP3    H262421   2.434   5.525   2.977  0.9374  0.6866 -1.7840
13644TIP3   OH262422   4.115   5.855  12.235 -0.5695  0.5039  0.1355
13644TIP3    H162423   4.165   5.802  12.173  2.4604  1.0743  1.9369
13644TIP3    H262424   4.061   5.792  12.282 -0.8083 -0.2943 -1.1981
13645TIP3   OH262425   3.780   3.639  15.486 -0.2183  0.2989 -0.2208
13645TIP3    H162426   3.801   3.691  15.409 -0.1641  1.7155  0.7130
13645TIP3    H262427   3.777   3.703  15.557 -4.8032 -0.1793  0.2038
13646TIP3   OH262428   2.273   3.853   4.214 -0.4337  1.0628  0.1234
13646TIP3    H162429   2.245   3.883   4.127 -1.9599  2.0169  0.9136
13646TIP3    H262430   2.212   3.782   4.235  2.1101 -1.5518 -1.0169
13647TIP3   OH262431   3.647   5.692   3.360 -0.3957 -0.3968 -0.0807
13647TIP3    H162432   3.630   5.679   3.267 -0.7475  1.6320 -0.3310
13647TIP3    H262433   3.658   5.787   3.369 -1.1210 -0.4919  2.0689
13648TIP3   OH262434   6.317   0.048   5.943 -0.3332 -0.2078  0.2738
13648TIP3    H162435   6.256   0.120   5.960 -1.0980 -0.9571  0.7869
13648TIP3    H262436   6.402   0.081   5.972 -0.0322  1.6895 -2.6008
13649TIP3   OH262437   2.119   1.665   1.973  0.0758  0.0973  0.2018
13649TIP3    H162438   2.054   1.723   1.934 -2.5844 -2.8139  0.0554
13649TIP3    H262439   2.134   1.701   2.060 -0.7069  1.5894 -0.2513
13650TIP3   OH262440   1.778   0.546   3.815  0.3817  0.2775 -0.0983
13650TIP3    H162441   1.865   0.587   3.814 -0.1419  1.5671 -3.8945
13650TIP3    H262442   1.726   0.600   3.755 -3.0179 -0.5990  1.9162
13651TIP3   OH262443   2.693   0.656  12.463  0.6692  0.0270  0.0803
13651TIP3    H162444   2.743   0.585  12.502 -0.2061 -1.0049 -0.6271
13651TIP3    H262445   2.687   0.633  12.370 -1.1977  0.0538  0.1755
13652TIP3   OH262446   3.612   2.729   4.113  0.1399 -0.1982 -0.3755
13652TIP3    H162447   3.641   2.641   4.136 -0.2746  0.0634  1.1675
13652TIP3    H262448   3.546   2.716   4.045  1.6944 -0.9566 -1.7688
13653TIP3   OH262449   3.318   6.628  13.725  0.0534  0.0295 -0.1851
13653TIP3    H162450   3.380   6.556  13.736 -0.4011 -0.2717  0.4072
13653TIP3    H262451   3.314   6.642  13.630  0.9688  0.0033 -0.2347
13654TIP3   OH262452   3.908   1.080  14.979  0.3444 -0.4009 -0.0288
13654TIP3    H162453   3.927   1.047  14.891  1.6736 -0.9862  0.4570
13654TIP3    H262454   3.958   1.161  14.986  0.3204 -0.4089  0.2308
13655TIP3   OH262455   6.735   4.231  11.029 -0.6954  0.3206  0.0584
13655TIP3    H162456   6.813   4.286  11.036 -0.6164  0.3941 -1.3696
13655TIP3    H262457   6.689   4.263  10.951 -0.6268 -1.6488 -0.8210
13656TIP3   OH262458   2.412   3.990   0.112  0.3448  0.3825  0.0139
13656TIP3    H162459   2.392   4.074   0.071 -1.0259  1.0925  2.0487
13656TIP3    H262460   2.496   4.004   0.156 -0.3138  0.9988  1.1053
13657TIP3   OH262461   0.527   3.925  12.058  0.0786  0.0106  0.0001
13657TIP3    H162462   0.432   3.920  12.070  0.1474 -0.5459  0.3287
13657TIP3    H262463   0.561   3.847  12.102  0.5906 -0.4609 -1.1896
13658TIP3   OH262464   4.608   2.783   4.671  0.0887 -0.3456  0.2496
13658TIP3    H162465   4.656   2.738   4.741  1.2495 -0.5034 -0.6392
13658TIP3    H262466   4.519   2.749   4.677  0.6987 -1.9482  0.2819
13659TIP3   OH262467   5.146   0.030   0.993 -0.6800  0.0218 -0.4459
13659TIP3    H162468   5.185   0.079   1.065 -0.7602  0.8623 -0.9704
13659TIP3    H262469   5.147  -0.061   1.022  1.3437  0.0778 -0.3008
13660TIP3   OH262470   5.663   5.607  12.356 -0.3048 -0.2505 -0.2146
13660TIP3    H162471   5.756   5.615  12.375 -0.3211 -0.9076  0.1637
13660TIP3    H262472   5.660   5.560  12.273 -0.2834  0.5865 -0.6960
13661TIP3   OH262473   6.470   5.520  12.036 -0.0766  0.1269  0.5444
13661TIP3    H162474   6.499   5.502  12.125  0.2852  2.1876  0.8685
13661TIP3    H262475   6.545   5.495  11.981 -0.5875 -1.8847  0.7228
13662TIP3   OH262476   6.510   3.454  11.260  0.4028  0.0577 -0.1518
13662TIP3    H162477   6.576   3.497  11.205 -0.7430  1.6440 -0.3382
13662TIP3    H262478   6.560   3.411  11.329  2.0648 -3.7203 -3.4877
13663TIP3   OH262479   4.336   3.524  12.483  0.1597  0.6442 -0.3737
13663TIP3    H162480   4.323   3.547  12.575  2.2836  0.8629 -0.1175
13663TIP3    H262481   4.320   3.430  12.479 -0.6975  0.7633  0.0628
13664TIP3   OH262482   4.565   6.090  12.605  0.0611  0.2850  0.4327
13664TIP3    H162483   4.642   6.138  12.577  1.5876 -2.2092  0.2298
13664TIP3    H262484   4.494   6.123  12.549  1.2021  1.7649 -0.1672
13665TIP3   OH262485   5.961   5.292  12.528 -0.2315 -0.1059  0.5497
13665TIP3    H162486   6.011   5.236  12.588 -1.0578 -1.4956 -0.0369
13665TIP3    H262487   6.004   5.280  12.444 -1.6086 -1.4360  0.0038
13666TIP3   OH262488   2.590   4.912   1.854 -0.7684 -0.6428  0.3983
13666TIP3    H162489   2.510   4.867   1.882 -1.5953  0.8369  0.4722
13666TIP3    H262490   2.584   4.912   1.758 -2.1853  1.7268  0.4367
13667TIP3   OH262491   2.460   1.337  13.282  0.2509 -0.9047 -0.9257
13667TIP3    H162492   2.445   1.393  13.206 -1.4334  2.3345  1.6641
13667TIP3    H262493   2.379   1.286  13.289 -1.0011  1.2026  0.5652
13668TIP3   OH262494   0.308   4.917  12.984  0.6351  0.2688 -0.2678
13668TIP3    H162495   0.319   4.833  12.938  1.4609  0.1176  0.2066
13668TIP3    H262496   0.216   4.917  13.010  1.3816 -2.0671  2.7461
13669TIP3   OH262497   3.840   1.807  10.892 -0.2490 -0.3993  0.0076
13669TIP3    H162498   3.901   1.878  10.874  0.6196 -1.0023  0.5473
13669TIP3    H262499   3.857   1.743  10.823 -0.7172 -0.2877 -0.2132
13670TIP3   OH262500   4.529   6.232   0.069  0.7520 -0.8108  0.1926
13670TIP3    H162501   4.571   6.211   0.152  2.6534 -0.5633 -0.6903
13670TIP3    H262502   4.595   6.211   0.002 -0.5113 -0.3952 -1.2196
13671TIP3   OH262503   4.123   5.079   3.320 -0.0185  0.2527  0.2541
13671TIP3    H162504   4.202   5.071   3.373 -1.0022 -0.1475  1.6704
13671TIP3    H262505   4.056   5.030   3.368 -0.6729 -1.0326 -1.8576
13672TIP3   OH262506   5.477   1.787   0.509 -0.1301  0.0465 -0.2948
13672TIP3    H162507   5.501   1.721   0.444 -0.8056  0.1651 -0.6709
13672TIP3    H262508   5.483   1.870   0.462 -0.8246  0.1152 -0.2623
13673TIP3   OH262509   0.308   0.488  14.439  0.1233  1.0717 -0.1268
13673TIP3    H162510   0.400   0.490  14.414  0.6365 -1.0568  1.3783
13673TIP3    H262511   0.309   0.501  14.534 -0.9377 -0.9203  0.1859
13674TIP3   OH262512   6.445   1.032   5.616 -0.0352 -0.3031 -0.4474
13674TIP3    H162513   6.381   1.099   5.640  0.0627 -0.2771 -0.2548
13674TIP3    H262514   6.530   1.076   5.622 -0.0905  0.0372 -2.0335
13675TIP3   OH262515   1.851   5.398   2.232  0.3003  0.3098 -0.1753
13675TIP3    H162516   1.884   5.441   2.154 -0.8126  0.3515 -0.6317
13675TIP3    H262517   1.814   5.469   2.285  0.9387  0.2663  0.3433
13676TIP3   OH262518   5.050   5.125   1.224 -0.2480 -0.0354 -0.3774
13676TIP3    H162519   4.955   5.118   1.235 -0.3797  2.3571  0.1110
13676TIP3    H262520   5.086   5.068   1.293 -1.3066 -1.4209 -0.9370
13677TIP3   OH262521   4.292   1.979   5.465  0.2520  0.1527  0.2364
13677TIP3    H162522   4.385   2.000   5.475  0.7166 -2.1571  1.2554
13677TIP3    H262523   4.247   2.062   5.475  2.1528  1.1123  1.0269
13678TIP3   OH262524   4.032   5.972   0.419  0.3948 -0.4081 -0.2514
13678TIP3    H162525   4.103   5.973   0.483 -0.1883 -1.2968  0.4189
13678TIP3    H262526   4.025   5.881   0.392  1.3055  0.1284 -2.3507
13679TIP3   OH262527   4.026   3.797  12.432 -0.1083 -0.1916 -0.0518
13679TIP3    H162528   4.020   3.702  12.443 -1.5226 -0.0204  0.7654
13679TIP3    H262529   3.939   3.829  12.454  0.3715  1.3035 -0.2918
13680TIP3   OH262530   3.134   1.555  11.531 -0.6461  0.2674  0.1103
13680TIP3    H162531   3.115   1.482  11.472  0.9592 -1.0067  1.1145
13680TIP3    H262532   3.052   1.603  11.537 -1.6871 -1.3596 -0.7240
13681TIP3   OH262533   0.453   5.074  16.986 -0.3402 -0.1066 -0.2590
13681TIP3    H162534   0.514   5.120  16.929 -0.6279 -0.0294 -0.5095
13681TIP3    H262535   0.445   5.130  17.064 -0.4117  0.0946 -0.4074
13682TIP3   OH262536   2.693   3.128   3.377  0.2993  0.5045  0.0327
13682TIP3    H162537   2.614   3.126   3.324  0.6532 -1.2486 -0.4614
13682TIP3    H262538   2.682   3.204   3.435 -1.7741  0.1959  0.0578
13683TIP3   OH262539   0.590   4.343  17.007  0.1746 -0.0441  0.6880
13683TIP3    H162540   0.545   4.286  17.069 -3.4330 -0.1545 -1.8918
13683TIP3    H262541   0.643   4.284  16.954 -2.0046 -0.8125 -0.6784
13684TIP3   OH262542   1.192   0.368   4.545 -0.7372 -0.1610 -1.1246
13684TIP3    H162543   1.121   0.322   4.501  0.1613 -1.9058 -0.8190
13684TIP3    H262544   1.198   0.326   4.631 -1.9633  2.6685  0.4245
13685TIP3   OH262545   2.336   2.716   5.420 -0.7124  0.5152  0.0673
13685TIP3    H162546   2.422   2.673   5.415 -0.0810  1.7632 -0.0293
13685TIP3    H262547   2.350   2.802   5.381 -1.7831  1.0851  0.9073
13686TIP3   OH262548   4.846   4.055   3.795 -0.1337 -0.8123  0.4455
13686TIP3    H162549   4.895   4.057   3.878  0.3780  0.2442  0.1337
13686TIP3    H262550   4.905   4.096   3.732 -0.9663 -0.6051 -0.2028
13687TIP3   OH262551   6.306   2.168  16.179  0.1169  0.6211 -0.3436
13687TIP3    H162552   6.316   2.160  16.274 -0.0357  0.9042 -0.3010
13687TIP3    H262553   6.242   2.100  16.156 -0.3633  0.9991 -0.1458
13688TIP3   OH262554   5.237   2.042  11.855 -0.0827  0.5443  0.2766
13688TIP3    H162555   5.328   2.072  11.855  0.0866  0.0329 -0.4081
13688TIP3    H262556   5.197   2.086  11.780 -0.1374 -0.0273 -0.0321
13689TIP3   OH262557   5.705   4.091   0.587 -0.1331 -0.4139  0.5564
13689TIP3    H162558   5.643   4.159   0.613 -0.2151 -0.4846  0.5484
13689TIP3    H262559   5.703   4.091   0.491  0.7533  0.3849  0.5243
13690TIP3   OH262560   6.426   6.131  16.432  0.0504  0.0132  0.4922
13690TIP3    H162561   6.511   6.155  16.469 -0.3845  1.5383  0.5132
13690TIP3    H262562   6.428   6.035  16.430  1.3463 -0.0029  1.4802
13691TIP3   OH262563   1.428   6.454   4.776  0.0011 -0.1981  0.3708
13691TIP3    H162564   1.372   6.376   4.768  0.3453 -0.2823 -1.3805
13691TIP3    H262565   1.371   6.520   4.815 -1.2640 -0.3551 -1.1625
13692TIP3   OH262566   3.127   2.422  12.135  0.2358  0.2582 -0.2454
13692TIP3    H162567   3.087   2.487  12.079 -0.9489 -0.3881 -0.1678
13692TIP3    H262568   3.096   2.444  12.223 -1.1117 -1.0860 -0.3654
13693TIP3   OH262569   6.441   3.219  11.103 -0.2879 -0.2718 -0.0568
13693TIP3    H162570   6.480   3.298  11.143  0.5946 -0.4080 -0.6264
13693TIP3    H262571   6.423   3.161  11.177  0.3786 -0.1014  0.2437
13694TIP3   OH262572   1.121   1.743   2.727 -0.2347 -0.0342 -0.4083
13694TIP3    H162573   1.055   1.795   2.774 -0.7686 -0.1057 -1.0778
13694TIP3    H262574   1.153   1.681   2.793  0.3631  1.0870  0.3806
13695TIP3   OH262575   0.196   2.581   4.549  0.7092  0.0826  0.1253
13695TIP3    H162576   0.267   2.517   4.541  0.4302 -0.1230 -0.7932
13695TIP3    H262577   0.237   2.665   4.530  0.4219 -0.1998 -1.8367
13696TIP3   OH262578   6.012   0.217   3.218  0.0239 -0.3248 -0.1727
13696TIP3    H162579   6.092   0.198   3.168  0.4396  1.8571 -0.3872
13696TIP3    H262580   5.968   0.286   3.168  0.0714  1.3798  2.0440
13697TIP3   OH262581   4.302   1.939  14.209 -0.1166 -0.3907  0.5845
13697TIP3    H162582   4.262   1.918  14.294  0.6338 -1.3299  0.7220
13697TIP3    H262583   4.286   1.861  14.156  0.0911 -0.1112  0.1147
13698TIP3   OH262584   1.208   5.781  14.986 -0.3250  0.7411 -0.4878
13698TIP3    H162585   1.157   5.862  14.976 -1.0807  0.2324 -0.7863
13698TIP3    H262586   1.221   5.750  14.896 -0.6481  0.1545 -0.3316
13699TIP3   OH262587   1.970   2.794   5.683 -0.1948 -0.3675 -0.3067
13699TIP3    H162588   1.972   2.712   5.633 -0.5550  0.6836 -2.0935
13699TIP3    H262589   2.026   2.853   5.633  0.4106  0.3601  1.2132
13700TIP3   OH262590   6.666   4.043  16.746 -0.1115  0.2096 -0.7050
13700TIP3    H162591   6.578   4.059  16.712 -0.4593 -0.8072 -0.3145
13700TIP3    H262592   6.673   3.947  16.748  1.7614  0.2693 -2.6803
13701TIP3   OH262593   2.729   0.558  12.194 -0.2481 -0.1667  0.4260
13701TIP3    H162594   2.765   0.634  12.147 -0.5840  1.2257  2.3854
13701TIP3    H262595   2.804   0.500  12.207  0.1437  0.1216 -0.4675
13702TIP3   OH262596   4.734   3.261  11.923  0.2518  0.3433  0.5162
13702TIP3    H162597   4.765   3.268  12.013  1.2452  1.3729  0.1044
13702TIP3    H262598   4.641   3.286  11.927  0.0997 -0.3382  1.3620
13703TIP3   OH262599   1.128   3.367   5.734 -0.0078 -0.3270 -0.0980
13703TIP3    H162600   1.111   3.274   5.722  1.0365 -0.8257  2.1183
13703TIP3    H262601   1.222   3.373   5.751 -0.1812  1.0773  0.4335
13704TIP3   OH262602   1.535   3.767   1.598  0.2448  0.0208  0.5248
13704TIP3    H162603   1.529   3.782   1.504  2.3024 -1.2099  0.1873
13704TIP3    H262604   1.479   3.691   1.614  0.4488 -0.2013  0.1824
13705TIP3   OH262605   5.245   0.618   2.932  0.0604 -0.1818  0.1421
13705TIP3    H162606   5.205   0.593   2.849 -1.7253  0.5844  0.7354
13705TIP3    H262607   5.301   0.544   2.956  0.0081 -0.7256 -1.3488
13706TIP3   OH262608   4.095   4.018  14.908 -0.0305  0.1368  0.1515
13706TIP3    H162609   4.079   4.087  14.973  0.5697  0.8224 -0.4164
13706TIP3    H262610   4.185   3.990  14.925  0.4499  0.9699 -0.9808
13707TIP3   OH262611   2.123   4.050   4.810 -0.1324 -0.4705  0.4124
13707TIP3    H162612   2.033   4.033   4.837  0.1503 -0.0572  1.6498
13707TIP3    H262613   2.175   4.031   4.888  0.8887 -1.0767 -0.4172
13708TIP3   OH262614   2.912   3.124   4.244  0.1762  0.0527  0.3065
13708TIP3    H162615   2.840   3.075   4.285 -0.4113 -0.0530 -0.8441
13708TIP3    H262616   2.930   3.076   4.163 -0.6724  1.9351 -1.0295
13709TIP3   OH262617   2.688   1.958   6.413 -0.6763  0.2943  0.4738
13709TIP3    H162618   2.780   1.970   6.388 -0.6545 -1.9381 -0.6717
13709TIP3    H262619   2.669   2.031   6.472  2.1194  0.2375  1.5085
13710TIP3   OH262620   0.655   6.430  15.853  0.1614 -0.8390 -0.2511
13710TIP3    H162621   0.665   6.336  15.840  1.3877 -0.4116 -2.7619
13710TIP3    H262622   0.739   6.459  15.887  0.2450 -0.4569 -0.7744
13711TIP3   OH262623   4.024   3.625   1.276 -0.6651 -0.0816  0.1804
13711TIP3    H162624   4.054   3.634   1.186 -0.6804  1.2311  0.2876
13711TIP3    H262625   4.021   3.531   1.292  1.1814 -0.2881 -0.5738
13712TIP3   OH262626   2.917   2.249  15.312 -0.1331 -0.7207 -0.8639
13712TIP3    H162627   2.975   2.265  15.238  0.7187 -0.1087 -0.0683
13712TIP3    H262628   2.964   2.188  15.368  1.3517  2.5588  1.5951
13713TIP3   OH262629   4.794   2.535  13.951  0.0046  0.2461 -0.0359
13713TIP3    H162630   4.857   2.606  13.964  0.9754  0.0293 -3.0225
13713TIP3    H262631   4.818   2.469  14.016  2.3982  0.5122 -0.5976
13714TIP3   OH262632   2.144   2.161  12.978 -0.1676  0.2075  0.3893
13714TIP3    H162633   2.140   2.213  13.058  0.1524  1.1632 -0.2012
13714TIP3    H262634   2.054   2.135  12.962 -0.3387  0.6187  0.6680
13715TIP3   OH262635   4.710   0.082  11.577 -0.4313 -0.1561 -0.0743
13715TIP3    H162636   4.731   0.012  11.639 -2.3595 -1.2037 -0.5434
13715TIP3    H262637   4.735   0.163  11.621  0.0267 -1.0117  1.2589
13716TIP3   OH262638   3.178   4.893  14.416  0.5567  0.3840  0.2296
13716TIP3    H162639   3.142   4.972  14.376  0.7334 -0.2719 -1.2491
13716TIP3    H262640   3.195   4.834  14.342  0.3341 -1.0778  1.3289
13717TIP3   OH262641   3.532   5.981  15.601  0.6415 -0.2963  0.6960
13717TIP3    H162642   3.478   5.958  15.677  1.4008  1.8154  1.9306
13717TIP3    H262643   3.526   6.077  15.596 -0.0418 -0.4538 -2.4319
13718TIP3   OH262644   0.035   4.543  11.207  0.2650  0.0528  0.0006
13718TIP3    H162645  -0.035   4.558  11.143 -0.1909  1.3469  0.7670
13718TIP3    H262646  -0.004   4.569  11.290  0.8028 -1.7662  0.8314
13719TIP3   OH262647   0.520   6.156  16.657 -0.5308  0.3894 -0.1028
13719TIP3    H162648   0.579   6.204  16.716 -0.5636  0.4934 -0.1549
13719TIP3    H262649   0.543   6.064  16.670  0.8777  0.5408 -1.4369
13720TIP3   OH262650   5.052   2.514  11.706 -0.3604  0.0163 -0.0742
13720TIP3    H162651   4.998   2.541  11.633 -0.2981  2.1322  0.6418
13720TIP3    H262652   4.990   2.497  11.777 -0.5438 -3.3378 -0.9360
13721TIP3   OH262653   2.853   2.346   2.293  0.5754 -0.2522  0.6444
13721TIP3    H162654   2.887   2.336   2.382  0.4515 -0.7090  0.6418
13721TIP3    H262655   2.879   2.265   2.248  0.5958 -0.0425  0.2808
13722TIP3   OH262656   5.418   4.622  14.261 -0.1559  0.6097 -0.8731
13722TIP3    H162657   5.360   4.586  14.194  0.3350  2.8864 -2.6070
13722TIP3    H262658   5.506   4.598  14.232 -0.1251 -1.9473  1.2000
13723TIP3   OH262659   2.682   6.489  11.859 -0.0771 -0.3505 -0.0013
13723TIP3    H162660   2.602   6.485  11.912  0.0013  0.5234  0.1880
13723TIP3    H262661   2.685   6.405  11.813  0.2848 -1.4775  2.0182
13724TIP3   OH262662   4.446   1.841   5.188  0.6702  0.2925  0.0584
13724TIP3    H162663   4.497   1.776   5.236 -1.9940 -1.1062  1.1230
13724TIP3    H262664   4.415   1.901   5.256 -0.8025 -0.0873 -0.2631
13725TIP3   OH262665   0.548   2.359   1.832 -0.1213 -0.0615  0.0283
13725TIP3    H162666   0.520   2.451   1.839 -0.4320 -0.1785  0.3204
13725TIP3    H262667   0.596   2.355   1.749  2.5208  1.0454  1.4344
13726TIP3   OH262668   1.650   2.671   4.660 -0.0844  0.0418 -0.1733
13726TIP3    H162669   1.721   2.643   4.718 -0.5723 -0.2979  0.2762
13726TIP3    H262670   1.601   2.735   4.712 -0.3909 -0.0932 -0.2987
13727TIP3   OH262671   5.110   6.565   2.639  0.0703  0.3448 -0.5901
13727TIP3    H162672   5.041   6.588   2.701  0.2214 -0.4865 -0.1126
13727TIP3    H262673   5.070   6.578   2.553 -0.4624  0.5144 -0.3196
13728TIP3   OH262674   2.795   5.260  15.482  0.1265  0.2398 -0.4411
13728TIP3    H162675   2.795   5.199  15.408 -1.1838 -0.0002 -0.2625
13728TIP3    H262676   2.885   5.290  15.489  0.7976 -1.7016 -0.5056
13729TIP3   OH262677   0.697   5.758  15.269 -0.1001  0.2820  0.2290
13729TIP3    H162678   0.602   5.755  15.280 -0.0917 -0.2683  0.2070
13729TIP3    H262679   0.728   5.807  15.345 -0.3567 -0.0634  0.5621
13730TIP3   OH262680   4.520   4.691   5.131 -0.1473 -0.1561  0.2707
13730TIP3    H162681   4.516   4.600   5.160  2.4071 -0.0965  0.9531
13730TIP3    H262682   4.608   4.720   5.156 -0.1232  1.8222 -1.9498
13731TIP3   OH262683   6.655   5.108  13.757  0.4523  0.2978 -0.1074
13731TIP3    H162684   6.657   5.202  13.741  1.0425  0.3391  0.1950
13731TIP3    H262685   6.644   5.100  13.852 -0.2956  0.0588 -0.2075
13732TIP3   OH262686   4.672   1.873  12.772 -0.9085 -0.0575  0.2687
13732TIP3    H162687   4.701   1.809  12.706  4.2292 -0.2175  2.4570
13732TIP3    H262688   4.662   1.955  12.724  3.5194  0.0145 -0.7780
13733TIP3   OH262689   4.558   3.961  11.706 -0.2849 -0.1984 -0.0845
13733TIP3    H162690   4.570   3.893  11.639 -0.2170  0.6747 -0.9669
13733TIP3    H262691   4.639   4.011  11.704  0.2992 -1.0341  1.6595
13734TIP3   OH262692   2.078   4.534   5.135  0.5660  0.4159  0.3344
13734TIP3    H162693   2.001   4.481   5.154 -0.1826  1.4194  0.1314
13734TIP3    H262694   2.078   4.544   5.040  1.2471 -0.0154  0.2808
13735TIP3   OH262695   2.886   5.760  14.736  0.3429  0.3010 -0.3308
13735TIP3    H162696   2.879   5.756  14.831  0.4339 -0.5693 -0.3584
13735TIP3    H262697   2.801   5.730  14.704  0.8950 -1.0874 -0.5366
13736TIP3   OH262698   6.189   5.660  12.550  0.1762  0.6956 -0.0778
13736TIP3    H162699   6.143   5.737  12.516  0.1242  0.9259  0.5218
13736TIP3    H262700   6.120   5.597  12.571  0.1028  1.1683  1.1422
13737TIP3   OH262701   2.820   3.239  12.644  0.5169  0.0904 -0.1542
13737TIP3    H162702   2.781   3.249  12.558  1.8234 -0.2316 -0.7959
13737TIP3    H262703   2.826   3.329  12.678  0.7091  0.2931 -0.7160
13738TIP3   OH262704   2.811   2.458  12.876  0.4368  0.4047 -0.1416
13738TIP3    H162705   2.839   2.376  12.916 -0.1528 -0.1542 -0.8579
13738TIP3    H262706   2.746   2.432  12.810 -0.9647  1.5801  0.7392
13739TIP3   OH262707   6.092   4.739   1.008  0.0504 -0.0849 -0.3169
13739TIP3    H162708   6.127   4.824   0.983 -0.3211 -0.6218 -2.8156
13739TIP3    H262709   6.076   4.746   1.102  2.4669  1.7106 -0.0106
13740TIP3   OH262710   3.771   3.753  14.110  0.0840  0.0229 -0.0568
13740TIP3    H162711   3.798   3.668  14.075  1.7869  0.3309  0.4654
13740TIP3    H262712   3.736   3.733  14.197 -0.2376 -0.2403 -0.2468
13741TIP3   OH262713   1.630   2.167  16.221 -0.3940 -0.4332 -0.1612
13741TIP3    H162714   1.617   2.252  16.180  1.9021 -0.4486 -0.9765
13741TIP3    H262715   1.594   2.177  16.309 -1.4951  0.9097 -0.7529
13742TIP3   OH262716   4.615   5.861  11.894 -0.4250  0.1404 -0.4669
13742TIP3    H162717   4.563   5.885  11.971 -0.0255 -0.4111 -0.0207
13742TIP3    H262718   4.566   5.898  11.820 -0.4669  1.2528  0.1009
13743TIP3   OH262719   0.987   0.261  13.343 -0.0611 -0.4814  0.2011
13743TIP3    H162720   1.082   0.270  13.346 -0.0625 -0.5451  0.4193
13743TIP3    H262721   0.957   0.287  13.430 -0.1802 -1.2287  0.3863
13744TIP3   OH262722   3.489   0.470   5.994  0.6664 -0.2374 -0.3647
13744TIP3    H162723   3.462   0.560   5.981  1.9454  0.2434  0.1550
13744TIP3    H262724   3.448   0.444   6.077  2.1439  0.6463  0.6749
13745TIP3   OH262725   5.535   3.006   5.566 -0.2409  0.5695 -0.1300
13745TIP3    H162726   5.515   3.085   5.517 -0.3156 -0.8621 -2.4866
13745TIP3    H262727   5.571   2.946   5.501 -1.9337 -1.9947  1.2045
13746TIP3   OH262728   4.031   1.525   0.258 -0.7457 -0.2303  0.5244
13746TIP3    H162729   4.063   1.437   0.279 -0.0687 -0.3959 -1.1114
13746TIP3    H262730   4.106   1.568   0.218 -0.9003  1.3074  1.8233
13747TIP3   OH262731   6.476   3.978  16.084  0.1567 -0.2349  0.0400
13747TIP3    H162732   6.440   4.065  16.069  1.2165 -0.0638 -1.5101
13747TIP3    H262733   6.430   3.922  16.022  2.0837 -0.1279 -1.5158
13748TIP3   OH262734   4.434   4.229  15.807 -0.2042  0.0616 -0.2625
13748TIP3    H162735   4.362   4.255  15.750 -1.5429 -0.3651  1.2098
13748TIP3    H262736   4.486   4.309  15.818 -2.1200  1.1491  1.0820
13749TIP3   OH262737   0.457   6.412  11.286  0.2139 -1.0287  0.0035
13749TIP3    H162738   0.542   6.449  11.308 -1.0087  2.7905 -1.3064
13749TIP3    H262739   0.406   6.418  11.367  0.2111 -0.3771 -0.0449
13750TIP3   OH262740   4.947   5.617  16.773  0.1648 -0.0528  0.3705
13750TIP3    H162741   4.992   5.534  16.787  2.1445  0.6033 -1.9145
13750TIP3    H262742   4.917   5.643  16.860  0.2366 -2.7331  1.2380
13751TIP3   OH262743   2.807   2.958   2.125 -0.0749 -0.3647 -0.1757
13751TIP3    H162744   2.834   3.008   2.202  0.6509  0.0179 -0.6769
13751TIP3    H262745   2.882   2.901   2.107 -0.3353 -0.6124 -0.4658
13752TIP3   OH262746   6.440   0.048   2.504  0.6575  0.4747  0.4035
13752TIP3    H162747   6.414   0.119   2.446 -0.4692 -1.2594 -1.3090
13752TIP3    H262748   6.360   0.024   2.550  0.6873 -0.5582 -0.0472
13753TIP3   OH262749   1.800   0.363   1.143  0.0199  0.1162  0.5715
13753TIP3    H162750   1.870   0.417   1.179 -1.2491  1.0474  1.7108
13753TIP3    H262751   1.767   0.414   1.068 -0.0762  0.1353  0.6268
13754TIP3   OH262752   0.540   5.166   2.144 -0.1611 -0.0325  0.2107
13754TIP3    H162753   0.477   5.232   2.115 -0.3997 -0.5268 -0.4109
13754TIP3    H262754   0.488   5.107   2.198  0.1753  0.6027  1.2346
13755TIP3   OH262755   4.329   4.920   4.646 -0.2035 -0.3305 -0.0611
13755TIP3    H162756   4.295   4.857   4.582 -1.3220 -0.0459  0.2334
13755TIP3    H262757   4.363   4.865   4.717 -0.5271 -0.6252 -0.1281
13756TIP3   OH262758   4.430   4.407   5.976 -0.4034 -0.1143  0.3282
13756TIP3    H162759   4.342   4.392   6.010 -0.1291 -1.6651  0.4373
13756TIP3    H262760   4.459   4.320   5.949  1.3513  0.2672  0.9358
13757TIP3   OH262761   6.514   5.778   3.535  0.3703 -0.1540 -0.1172
13757TIP3    H162762   6.588   5.832   3.566 -0.8896  0.1673  2.5457
13757TIP3    H262763   6.443   5.841   3.522 -0.0540 -0.7161 -0.5288
13758TIP3   OH262764   0.112   4.988   1.133  0.5728  0.5780  0.0196
13758TIP3    H162765   0.132   4.894   1.138 -1.2391  0.0908 -1.4437
13758TIP3    H262766   0.189   5.027   1.091  1.0060 -0.3525 -0.0573
13759TIP3   OH262767   4.982   0.520  11.566 -0.0463  0.5010 -0.0110
13759TIP3    H162768   5.054   0.460  11.547  1.1272  2.1058 -0.7756
13759TIP3    H262769   4.995   0.544  11.658 -0.8561 -0.8243  0.4669
13760TIP3   OH262770   3.670   1.343   3.689 -0.7657 -0.1256  0.3881
13760TIP3    H162771   3.737   1.402   3.655 -0.6654 -0.0049  0.7980
13760TIP3    H262772   3.646   1.288   3.614  1.0484 -1.3575  0.6714
13761TIP3   OH262773   1.218   2.230   3.020  0.2676 -0.3030  0.0666
13761TIP3    H162774   1.134   2.240   2.976  0.9969  0.0588 -1.2688
13761TIP3    H262775   1.240   2.137   3.008  0.9091 -0.0102 -1.2023
13762TIP3   OH262776   5.041   4.431  16.997  0.0141 -0.5299  0.1140
13762TIP3    H162777   5.067   4.445  17.088 -0.2343 -0.6003  0.1960
13762TIP3    H262778   5.021   4.518  16.964 -2.0281 -0.7306  0.7722
13763TIP3   OH262779   6.352   3.328   6.337 -0.0345  0.4102 -0.2807
13763TIP3    H162780   6.366   3.410   6.291  0.3578  0.3549 -0.2624
13763TIP3    H262781   6.263   3.301   6.312 -0.2081  0.8973 -0.1910
13764TIP3   OH262782   5.261   4.505  11.536  0.6406 -0.5159  0.2760
13764TIP3    H162783   5.258   4.543  11.447  0.4465  0.5015  0.7042
13764TIP3    H262784   5.286   4.414  11.522 -0.6865 -0.7221 -0.9415
13765TIP3   OH262785   4.540   5.853   5.731 -0.3458  0.0195 -0.8293
13765TIP3    H162786   4.606   5.921   5.738 -1.0479  0.6507 -0.2103
13765TIP3    H262787   4.490   5.876   5.653 -0.6479  0.2811 -0.5621
13766TIP3   OH262788   5.964   4.136   2.676 -0.1413 -0.0580  0.0405
13766TIP3    H162789   5.960   4.175   2.763 -0.8138  1.5048 -0.6594
13766TIP3    H262790   5.967   4.042   2.691 -3.0559  0.0514  1.7058
13767TIP3   OH262791   6.313   2.460   3.989  0.5345 -0.3956  0.3430
13767TIP3    H162792   6.268   2.460   3.905  1.0829 -0.2432  0.0421
13767TIP3    H262793   6.304   2.371   4.022  0.8629 -0.6285 -0.1820
13768TIP3   OH262794   5.547   4.797   3.809  0.3187  0.2520 -0.0539
13768TIP3    H162795   5.635   4.825   3.783  0.2132  0.1460 -0.5318
13768TIP3    H262796   5.550   4.702   3.804  0.6410  0.1720  1.4482
13769TIP3   OH262797   6.612   6.444   2.394 -0.0471  0.1508 -0.5162
13769TIP3    H162798   6.616   6.378   2.463 -3.1211  0.1832 -0.2128
13769TIP3    H262799   6.576   6.398   2.318  2.9909  0.1956 -2.0464
13770TIP3   OH262800   4.286   2.170  11.346  1.0673  0.1949  0.3344
13770TIP3    H162801   4.259   2.106  11.279 -1.7582  0.9409  0.6884
13770TIP3    H262802   4.353   2.124  11.397 -0.7865 -2.4978  0.4923
13771TIP3   OH262803   5.283   0.600  12.589 -0.5568  0.0245  0.9936
13771TIP3    H162804   5.370   0.587  12.551 -1.6645 -0.9961 -1.2392
13771TIP3    H262805   5.296   0.586  12.683  1.2582 -2.3092  0.4319
13772TIP3   OH262806   0.054   1.011  11.298 -0.0846 -0.2408  0.0538
13772TIP3    H162807   0.117   0.949  11.263 -0.3318  0.2479 -1.2761
13772TIP3    H262808   0.081   1.096  11.263 -2.6239 -0.2784 -2.2286
13773TIP3   OH262809   2.846   4.064  17.062 -0.1113 -0.4512  0.4136
13773TIP3    H162810   2.849   3.979  17.017 -0.6919 -1.1457  1.6504
13773TIP3    H262811   2.787   4.050  17.136  0.1930  0.8952  0.9331
13774TIP3   OH262812   6.548   5.525  16.435  0.4064  0.1872  0.4775
13774TIP3    H162813   6.603   5.575  16.376  1.0747 -0.2592  0.7210
13774TIP3    H262814   6.558   5.567  16.520  0.9274 -0.3194  0.6711
13775TIP3   OH262815   3.031   3.122   2.844 -0.1558 -0.3402 -0.0040
13775TIP3    H162816   3.099   3.067   2.805  1.4398  2.1847 -0.8992
13775TIP3    H262817   3.061   3.136   2.934 -2.0151 -3.1940  1.1393
13776TIP3   OH262818   0.148   1.451   5.491 -0.1236  0.1866 -0.5608
13776TIP3    H162819   0.231   1.448   5.443  0.3416 -0.9647  0.2748
13776TIP3    H262820   0.162   1.393   5.566 -1.9576 -0.6741 -0.8543
13777TIP3   OH262821   1.139   4.552  16.267 -0.9838  0.0500  0.6647
13777TIP3    H162822   1.086   4.514  16.338  0.4692 -2.4312  0.4887
13777TIP3    H262823   1.145   4.483  16.202 -1.8763  2.1466 -1.7010
13778TIP3   OH262824   0.367   2.923   5.008  0.2199 -0.7234 -0.2793
13778TIP3    H162825   0.335   2.970   5.085 -1.3576  1.0201 -1.9454
13778TIP3    H262826   0.381   2.833   5.039  0.1168  0.0677  2.1529
13779TIP3   OH262827   6.282   0.010   4.161  0.6967 -0.2897  0.0526
13779TIP3    H162828   6.341   0.082   4.182  1.4237 -0.7371 -0.4283
13779TIP3    H262829   6.234  -0.007   4.243 -0.8128  1.9334 -0.3230
13780TIP3   OH262830   1.701   2.100   1.693 -0.0337 -0.5482  0.0242
13780TIP3    H162831   1.708   2.170   1.628 -0.5393  0.1159  0.6895
13780TIP3    H262832   1.711   2.143   1.777 -1.9148 -1.0362  0.5197
13781TIP3   OH262833   5.799   5.849   2.291  0.1002  0.2666  0.2094
13781TIP3    H162834   5.740   5.889   2.226  1.2319 -0.5490 -1.3507
13781TIP3    H262835   5.831   5.770   2.248  1.8792  0.3880  1.2862
13782TIP3   OH262836   3.308   2.037   4.321 -0.1027 -0.2837 -0.3508
13782TIP3    H162837   3.355   2.027   4.404  0.2745 -3.2011 -0.8513
13782TIP3    H262838   3.229   2.086   4.343  1.8756  2.4674  0.9691
13783TIP3   OH262839   2.072   1.474  14.796 -0.1728  0.3461  0.0456
13783TIP3    H162840   1.993   1.421  14.807 -0.3409  0.5105 -0.3515
13783TIP3    H262841   2.079   1.524  14.877 -0.8956  0.8925 -0.2222
13784TIP3   OH262842   4.253   6.587  14.531 -0.1486  0.0694 -0.0205
13784TIP3    H162843   4.328   6.646  14.535  0.2920 -0.4473 -0.6196
13784TIP3    H262844   4.184   6.639  14.489 -0.0537  0.4689  0.3198
13785TIP3   OH262845   0.847   3.100  14.928  0.4731  0.3282 -0.1797
13785TIP3    H162846   0.909   3.090  15.000 -0.5241  0.3752  0.6989
13785TIP3    H262847   0.769   3.052  14.956  0.6295 -1.0032 -1.9255
13786TIP3   OH262848   0.468   3.391  11.170  0.0958 -0.6781  0.2665
13786TIP3    H162849   0.509   3.397  11.084 -0.8934 -0.4201 -0.1991
13786TIP3    H262850   0.412   3.313  11.164 -1.9518  0.7800 -0.2106
13787TIP3   OH262851   4.663   3.033   5.304 -0.3043 -0.4591 -0.1557
13787TIP3    H162852   4.748   3.008   5.267 -0.1964 -2.2977  1.2834
13787TIP3    H262853   4.605   2.960   5.284 -1.6170  0.8151 -1.1920
13788TIP3   OH262854   5.196   2.962  12.427 -0.0237  0.2263 -0.4314
13788TIP3    H162855   5.265   3.028  12.422  2.3370 -2.0152  0.8695
13788TIP3    H262856   5.136   2.994  12.494  1.5878  0.6598  0.8609
13789TIP3   OH262857   5.186   1.741   4.117  0.2743  0.3035  0.1246
13789TIP3    H162858   5.129   1.737   4.041 -2.7837  2.6257  2.2020
13789TIP3    H262859   5.191   1.650   4.148 -0.4240 -0.2740 -1.4163
13790TIP3   OH262860   0.686   6.244  16.848  0.4548 -0.1494  0.1533
13790TIP3    H162861   0.672   6.190  16.926  0.7764  0.1642  0.4264
13790TIP3    H262862   0.703   6.332  16.882 -0.6756  0.2630 -0.3083
13791TIP3   OH262863   2.430   1.329  12.797  0.3789  0.3460 -0.2489
13791TIP3    H162864   2.396   1.338  12.708  1.1617  2.1445 -0.3918
13791TIP3    H262865   2.379   1.392  12.848  1.0133  0.4492  0.2583
13792TIP3   OH262866   1.004   6.514   3.892  0.4580  0.6100 -0.6165
13792TIP3    H162867   1.098   6.516   3.878  0.5411  2.0175  0.0512
13792TIP3    H262868   0.968   6.483   3.808  1.3366  2.7727 -1.8509
13793TIP3   OH262869   6.315   5.336  15.181  0.3110  0.3546  0.3325
13793TIP3    H162870   6.263   5.403  15.224 -0.1655  0.9042 -1.0757
13793TIP3    H262871   6.323   5.266  15.246 -0.8908  0.9157  1.0926
13794TIP3   OH262872   6.557   1.921  17.194 -0.2031  0.1764 -0.2543
13794TIP3    H162873   6.633   1.975  17.215 -0.4599  0.0129  1.2013
13794TIP3    H262874   6.591   1.851  17.138  1.3540 -1.5930  2.7652
13795TIP3   OH262875   4.387   0.517   0.538 -0.4491 -0.0126  0.2597
13795TIP3    H162876   4.472   0.530   0.580 -1.6613  0.0519  2.7859
13795TIP3    H262877   4.388   0.425   0.510 -0.2962 -0.6079  2.1309
13796TIP3   OH262878   0.091   6.819   1.019 -0.1638  0.3434 -0.3346
13796TIP3    H162879   0.014   6.777   1.059  0.7934 -1.5359 -0.3884
13796TIP3    H262880   0.111   6.764   0.943  2.7627 -0.7422  1.1323
13797TIP3   OH262881   6.817   4.291   2.123 -0.0349 -0.0470  0.0421
13797TIP3    H162882   6.755   4.364   2.119  0.9534  0.9196  1.6092
13797TIP3    H262883   6.769   4.221   2.168 -0.6315 -0.0134 -0.5273
13798TIP3   OH262884   2.828   1.711   5.833  0.3134  0.1623  0.5315
13798TIP3    H162885   2.855   1.662   5.911  2.8272 -0.8539 -0.8916
13798TIP3    H262886   2.867   1.663   5.760 -1.8995  1.1523 -1.3679
13799TIP3   OH262887   5.220   4.891  17.262  0.3849  0.0953  0.2346
13799TIP3    H162888   5.165   4.902  17.340  1.6810  0.5954  1.0928
13799TIP3    H262889   5.173   4.827  17.208  0.5936 -2.0619  2.4869
13800TIP3   OH262890   4.629   4.413   3.335 -0.1157  0.1972  0.0415
13800TIP3    H162891   4.635   4.501   3.297  0.8324  0.2924  0.4186
13800TIP3    H262892   4.537   4.405   3.361 -0.2359  1.0227 -0.1104
13801TIP3   OH262893   6.096   5.722  14.751  0.0328 -0.1073 -0.0412
13801TIP3    H162894   6.074   5.632  14.777 -0.1634 -0.2941 -0.8263
13801TIP3    H262895   6.179   5.713  14.704  0.7999  0.3348  1.2076
13802TIP3   OH262896   2.205   1.115   1.962  0.0882  0.0582 -0.2234
13802TIP3    H162897   2.175   1.192   1.914 -1.1985 -2.1315 -3.0635
13802TIP3    H262898   2.125   1.073   1.993  0.4434 -2.3769 -2.3906
13803TIP3   OH262899   6.458   1.514   3.335  0.0605 -0.0583 -0.0003
13803TIP3    H162900   6.459   1.477   3.246  0.0468  0.9369 -0.4270
13803TIP3    H262901   6.379   1.567   3.337  0.3331  0.3302  0.4388
13804TIP3   OH262902   5.621   4.450  15.574 -0.0846  0.0537  0.4154
13804TIP3    H162903   5.606   4.416  15.662 -1.0550  0.1943  0.3137
13804TIP3    H262904   5.546   4.508  15.558 -0.5188 -0.8510 -0.9354
13805TIP3   OH262905   0.006   3.091   0.791 -0.5130 -0.0128 -0.8653
13805TIP3    H162906  -0.059   3.028   0.822  0.2362 -0.3972 -0.0691
13805TIP3    H262907   0.080   3.038   0.762 -0.0927  0.4773 -0.6975
13806TIP3   OH262908   4.815   3.866   0.317 -0.0357  0.5340 -0.1812
13806TIP3    H162909   4.792   3.855   0.409  1.2525  1.6953  0.2964
13806TIP3    H262910   4.841   3.957   0.309  2.4316 -0.1906 -1.1049
13807TIP3   OH262911   6.638   5.088  16.490  0.0579  0.2263 -0.0443
13807TIP3    H162912   6.563   5.147  16.504  1.1519  1.7403 -0.4383
13807TIP3    H262913   6.668   5.066  16.578  0.6357  1.5648  0.1027
13808TIP3   OH262914   3.775   2.469  14.208  0.6502  0.2572 -0.4384
13808TIP3    H162915   3.693   2.420  14.198  1.2538 -1.0186  0.7057
13808TIP3    H262916   3.749   2.561  14.200 -1.0089 -0.0999  0.6240
13809TIP3   OH262917   6.645   3.911   1.145 -0.1479  0.2085 -0.0204
13809TIP3    H162918   6.658   3.853   1.220 -2.2013 -0.0759  0.1390
13809TIP3    H262919   6.559   3.950   1.160 -0.1276  0.9249 -1.7189
13810TIP3   OH262920   6.802   3.728   4.567 -0.0165 -0.3844 -0.5916
13810TIP3    H162921   6.818   3.687   4.652 -1.1989  0.2436 -0.0543
13810TIP3    H262922   6.715   3.697   4.542 -0.7373  1.4558 -0.3859
13811TIP3   OH262923   2.258   4.877   3.524 -1.1043 -0.0584 -0.4987
13811TIP3    H162924   2.255   4.782   3.512 -1.1674 -0.0087 -0.8658
13811TIP3    H262925   2.349   4.900   3.503 -0.9885 -0.0881 -0.0367
13812TIP3   OH262926   5.528   0.291   0.151 -0.0229 -0.0250 -0.7218
13812TIP3    H162927   5.616   0.286   0.189  0.0080  2.1594 -0.4285
13812TIP3    H262928   5.541   0.277   0.058  0.9672  2.5070 -1.0073
13813TIP3   OH262929   6.773   3.601  13.362 -0.1974 -0.6208  0.2205
13813TIP3    H162930   6.751   3.688  13.330  0.0104 -0.9105 -0.7571
13813TIP3    H262931   6.700   3.546  13.332  0.1041 -0.9401  0.0701
13814TIP3   OH262932   3.386   4.841   1.787  0.8817 -0.4270  0.5579
13814TIP3    H162933   3.327   4.819   1.715  2.0782 -0.5971 -0.3845
13814TIP3    H262934   3.337   4.904   1.839 -0.1005 -0.4895 -0.2645
13815TIP3   OH262935   1.695   6.253  15.712 -0.7060 -0.1059 -0.0860
13815TIP3    H162936   1.625   6.316  15.692 -0.0536 -0.2413 -3.0585
13815TIP3    H262937   1.776   6.301  15.693 -0.1936 -1.7057 -2.1638
13816TIP3   OH262938   2.192   0.485   4.058  0.1807  0.1954 -0.4571
13816TIP3    H162939   2.182   0.501   3.964 -1.7376  0.7958 -0.1804
13816TIP3    H262940   2.154   0.399   4.072  0.3778  0.1478 -0.2249
13817TIP3   OH262941   3.235   3.018   4.022  0.3598  0.4320  0.4736
13817TIP3    H162942   3.144   2.992   4.040  0.0479  1.9796  1.2320
13817TIP3    H262943   3.227   3.094   3.964  1.2637 -1.2735 -1.9617
13818TIP3   OH262944   1.863   2.854   1.761 -0.1723 -0.1870  0.8860
13818TIP3    H162945   1.830   2.792   1.695  0.1678 -0.3829  0.8977
13818TIP3    H262946   1.957   2.837   1.764  0.1131  1.1649  0.0022
13819TIP3   OH262947   0.375   6.284  12.722  0.2414  0.1245  0.1294
13819TIP3    H162948   0.315   6.359  12.730  1.3173  0.8968  1.1721
13819TIP3    H262949   0.447   6.304  12.782  0.5620 -1.7441  0.4177
13820TIP3   OH262950   4.588   1.994   5.382 -0.1626 -0.5247  0.0446
13820TIP3    H162951   4.678   1.985   5.350  0.7791  0.9010  2.1643
13820TIP3    H262952   4.568   2.087   5.370 -0.6130 -0.4339  1.4124
13821TIP3   OH262953   4.186   5.931   3.284  1.0000  0.7033  0.1156
13821TIP3    H162954   4.259   5.969   3.235  0.0624  0.4883 -1.4720
13821TIP3    H262955   4.183   5.981   3.365  3.9973 -0.3930  0.9768
13822TIP3   OH262956   0.281   1.550   1.834 -0.5865  0.1415 -0.1464
13822TIP3    H162957   0.278   1.644   1.819 -1.7786  0.1823  0.3494
13822TIP3    H262958   0.266   1.511   1.748 -1.8118  0.3922 -0.0447
13823TIP3   OH262959   5.583   0.869  14.593  0.0811  0.1907  0.3869
13823TIP3    H162960   5.581   0.834  14.504 -0.3858  1.7342 -0.2277
13823TIP3    H262961   5.607   0.794  14.648  0.2685 -0.7996 -1.0185
13824TIP3   OH262962   1.903   2.165  13.738 -0.4677  0.5488 -0.0502
13824TIP3    H162963   1.949   2.086  13.709  0.6251  0.9435  0.5507
13824TIP3    H262964   1.817   2.134  13.765  0.2705 -0.5976  1.0618
13825TIP3   OH262965   2.826   3.336   0.893  0.0610  0.0103  0.3577
13825TIP3    H162966   2.889   3.326   0.964  1.6817  1.9298 -0.7451
13825TIP3    H262967   2.741   3.329   0.936  0.9935  1.9803  2.6483
13826TIP3   OH262968   3.425   2.225   2.234 -0.7587  0.3142 -0.5102
13826TIP3    H162969   3.501   2.186   2.278 -1.0072  0.5526  0.1324
13826TIP3    H262970   3.354   2.216   2.297 -1.3733 -0.2853 -1.2725
13827TIP3   OH262971   5.657   6.568   0.395 -0.3170  0.2187 -0.0410
13827TIP3    H162972   5.705   6.636   0.347  1.5518 -0.1255  1.2777
13827TIP3    H262973   5.701   6.564   0.480 -2.8272  0.0184  1.2823
13828TIP3   OH262974   6.533   1.793  16.581 -0.2860  0.3533 -0.2571
13828TIP3    H162975   6.487   1.712  16.558  2.9002 -1.8324  0.6822
13828TIP3    H262976   6.524   1.799  16.676 -1.6603  1.8610 -0.4748
13829TIP3   OH262977   3.235   3.526  11.032  0.5576  0.2407  0.8417
13829TIP3    H162978   3.146   3.493  11.045  0.0682  1.6625  1.1511
13829TIP3    H262979   3.223   3.610  10.986  1.6967  0.8175  1.5891
13830TIP3   OH262980   4.742   0.375  16.090 -0.0772  0.0795 -0.5022
13830TIP3    H162981   4.798   0.389  16.166  1.2580  1.2593 -1.6632
13830TIP3    H262982   4.771   0.291  16.053  1.4123  1.0037 -1.4798
13831TIP3   OH262983   5.593   0.276  11.814  0.6523  0.0099  0.0886
13831TIP3    H162984   5.613   0.214  11.885 -0.0811  0.8678  1.0612
13831TIP3    H262985   5.579   0.220  11.737 -1.1090 -1.1263  1.1940
13832TIP3   OH262986   4.396   2.652  11.473 -0.1880 -0.4207 -0.4334
13832TIP3    H162987   4.453   2.621  11.543 -2.2874  1.1160  2.0599
13832TIP3    H262988   4.325   2.587  11.469 -0.8396  0.2668 -0.1227
13833TIP3   OH262989   2.220   4.504  17.273 -0.1104 -0.6813  0.1498
13833TIP3    H162990   2.136   4.474  17.239 -0.3002  0.3767 -0.3472
13833TIP3    H262991   2.203   4.523  17.365  0.1669 -2.6477  0.6263
13834TIP3   OH262992   1.910   2.562  13.131 -0.1285  0.5218 -0.2860
13834TIP3    H162993   1.892   2.646  13.173 -0.8573 -0.8882  2.3200
13834TIP3    H262994   1.967   2.584  13.057  1.6821  3.0058  1.7733
13835TIP3   OH262995   2.239   3.009   4.543  0.2404  0.1305 -0.3552
13835TIP3    H162996   2.148   3.001   4.571  0.1986 -2.5234 -1.1225
13835TIP3    H262997   2.288   3.025   4.624 -0.7960  0.7251  0.1589
13836TIP3   OH262998   1.389   3.576   2.143 -0.0357  0.2622 -0.7273
13836TIP3    H162999   1.378   3.556   2.236 -1.3286  2.2967 -0.4056
13836TIP3    H263000   1.321   3.525   2.099  0.3081 -0.3787 -0.5215
13837TIP3   OH263001   4.389   1.048  11.039 -0.2337  0.0537  0.0218
13837TIP3    H163002   4.339   1.129  11.030 -0.6033 -0.2590 -0.8051
13837TIP3    H263003   4.417   1.047  11.131 -0.2249  1.1131  0.0440
13838TIP3   OH263004   1.100   2.106  11.501  0.1960  0.8242 -0.1941
13838TIP3    H163005   1.054   2.060  11.571 -0.1440  1.1163 -0.2241
13838TIP3    H263006   1.041   2.101  11.426  0.8056  0.0213 -0.6247
13839TIP3   OH263007   6.003   6.226  16.106  0.4692 -0.0591 -0.2152
13839TIP3    H163008   5.931   6.181  16.150 -0.5847  1.0361 -0.7960
13839TIP3    H263009   5.966   6.258  16.024  2.0928 -1.0022 -1.3468
13840TIP3   OH263010   1.422   0.657  14.958 -0.0113  0.3615  0.0769
13840TIP3    H163011   1.348   0.627  14.904  0.6622 -2.2946  0.5587
13840TIP3    H263012   1.499   0.637  14.906  0.5639 -0.7413  1.3260
13841TIP3   OH263013   5.135   6.369  17.057  0.6177  0.1093 -0.1538
13841TIP3    H163014   5.120   6.380  16.963 -0.3687  2.0490  0.1961
13841TIP3    H263015   5.226   6.395  17.069  0.8313 -0.4151 -0.6154
13842TIP3   OH263016   3.289   3.823   4.475  0.1163  0.4048 -0.1691
13842TIP3    H163017   3.242   3.835   4.392 -0.3752 -1.5172 -0.1945
13842TIP3    H263018   3.286   3.909   4.517 -1.0248  0.9993 -1.4225
13843TIP3   OH263019   2.403   2.344   4.615 -0.6335 -0.5994 -0.0508
13843TIP3    H163020   2.481   2.391   4.644 -0.6015  0.2574 -1.4925
13843TIP3    H263021   2.429   2.300   4.534 -1.7266 -0.0426 -0.7250
13844TIP3   OH263022   4.135   5.331  16.830  0.5965 -0.1068 -0.2925
13844TIP3    H163023   4.142   5.244  16.869  0.5543  0.5465  1.1910
13844TIP3    H263024   4.204   5.333  16.763  2.2001 -0.4333  1.3055
13845TIP3   OH263025   0.325   1.170  11.608 -0.3109  0.5979  0.8366
13845TIP3    H163026   0.360   1.172  11.519  0.9398  2.1038  1.3475
13845TIP3    H263027   0.402   1.178  11.664 -1.2374  1.3148  2.0248
13846TIP3   OH263028   3.388   4.097  14.550  0.0973  0.1713  0.3831
13846TIP3    H163029   3.322   4.164  14.567 -1.5994 -1.0260 -1.2950
13846TIP3    H263030   3.384   4.039  14.626  0.2332  0.9025  0.9495
13847TIP3   OH263031   4.179   5.598   3.495 -0.1975  0.0551  0.2041
13847TIP3    H163032   4.137   5.512   3.498  0.3845 -0.2544 -0.3480
13847TIP3    H263033   4.107   5.660   3.504 -1.0282 -0.4385 -2.6234
13848TIP3   OH263034   0.404   4.599   1.247 -0.3443  0.0351 -0.0969
13848TIP3    H163035   0.416   4.524   1.189  1.5378  0.6723 -0.5564
13848TIP3    H263036   0.334   4.650   1.206 -0.1789 -0.3736 -0.8948
13849TIP3   OH263037   5.377   3.712   0.767  0.2408 -0.2120  0.0962
13849TIP3    H163038   5.305   3.756   0.723 -0.4926 -0.3663  1.1389
13849TIP3    H263039   5.456   3.747   0.724 -0.4574 -0.8810 -1.8218
13850TIP3   OH263040   5.318   1.609   3.680 -0.2396 -0.1502 -0.3595
13850TIP3    H163041   5.397   1.651   3.715  0.3159  0.3106 -2.1048
13850TIP3    H263042   5.259   1.683   3.662 -0.1755 -0.3048 -1.2131
13851TIP3   OH263043   2.372   2.401   3.186 -0.1004  0.2191 -0.4427
13851TIP3    H163044   2.367   2.316   3.142  1.8939 -0.3950  0.4709
13851TIP3    H263045   2.357   2.380   3.279 -1.7317  1.1707 -0.4676
13852TIP3   OH263046   2.265   2.732   2.946 -0.2298 -0.4839 -0.1456
13852TIP3    H163047   2.175   2.737   2.914 -0.2554  0.8954  0.1334
13852TIP3    H263048   2.255   2.721   3.041 -0.0922  0.7830  0.0159
13853TIP3   OH263049   0.406   4.508  15.795  0.1729  0.2912  0.6574
13853TIP3    H163050   0.496   4.496  15.827  0.1793  0.0165  0.5345
13853TIP3    H263051   0.360   4.550  15.869 -0.5994 -3.1226  2.2297
13854TIP3   OH263052   1.755   1.296  10.360  0.8429  0.5114 -0.0394
13854TIP3    H163053   1.776   1.221  10.305  3.3839 -0.1069  1.7224
13854TIP3    H263054   1.839   1.340  10.374 -0.2207  2.2356  1.0556
13855TIP3   OH263055   3.265   0.562  13.719  0.4789 -0.1426 -0.1188
13855TIP3    H163056   3.286   0.470  13.708  1.1820  0.0121 -0.0647
13855TIP3    H263057   3.343   0.601  13.758 -0.1795  0.2886  0.7720
13856TIP3   OH263058   6.601   1.398  12.535  0.6281 -0.6191  0.3773
13856TIP3    H163059   6.690   1.424  12.512  0.0639  1.4312  0.4184
13856TIP3    H263060   6.607   1.366  12.625  1.6643 -2.3884 -0.3052
13857TIP3   OH263061   1.651   3.291  12.123  0.1924  0.2557  0.4321
13857TIP3    H163062   1.589   3.224  12.096  0.2621  0.1204  0.6071
13857TIP3    H263063   1.601   3.348  12.182 -0.4172  1.4870 -1.2357
13858TIP3   OH263064   2.300   3.517   4.245  0.0964  0.3584 -0.0062
13858TIP3    H163065   2.352   3.458   4.300 -0.5729  0.1925  0.4596
13858TIP3    H263066   2.363   3.579   4.209  0.5093  0.6308  1.1673
13859TIP3   OH263067   2.903   1.414   0.627  0.1825  0.0104  0.0242
13859TIP3    H163068   2.967   1.474   0.665 -0.2124  2.0283 -2.3895
13859TIP3    H263069   2.900   1.340   0.688  2.4090  1.3622  1.8331
13860TIP3   OH263070   0.897   0.372  16.258  0.0349 -0.0564 -0.6474
13860TIP3    H163071   0.896   0.319  16.178  1.7753 -2.8409  1.0978
13860TIP3    H263072   0.986   0.366  16.290 -0.7700  0.5556  1.8187
13861TIP3   OH263073   0.325   6.542  13.456  0.1920  0.3679  0.0812
13861TIP3    H163074   0.267   6.609  13.493 -1.0189 -0.8154  0.3683
13861TIP3    H263075   0.413   6.572  13.478 -0.2783  2.4058 -0.7140
13862TIP3   OH263076   5.001   2.062  16.208  0.4415 -0.5857 -0.0627
13862TIP3    H163077   4.917   2.020  16.230 -0.6302  1.8552  0.7493
13862TIP3    H263078   4.978   2.133  16.148  1.8939  0.2677  0.3533
13863TIP3   OH263079   6.685   0.871   4.161  0.5050  0.4096 -0.0907
13863TIP3    H163080   6.666   0.853   4.253 -0.1978  0.4815 -0.2216
13863TIP3    H263081   6.658   0.791   4.115 -1.3296  1.2452 -0.5102
13864TIP3   OH263082   5.568   2.460   3.987  0.1298  0.2540  0.0506
13864TIP3    H163083   5.501   2.488   3.925  0.6651  1.5963  0.0554
13864TIP3    H263084   5.610   2.385   3.945  0.6308  1.2737 -1.3432
13865TIP3   OH263085   2.947   4.294  12.084 -0.2215 -0.2695 -0.0192
13865TIP3    H163086   3.032   4.333  12.102  0.5917 -0.4158 -3.3363
13865TIP3    H263087   2.884   4.356  12.121  1.2466  0.3006  1.6073
13866TIP3   OH263088   5.252   2.579   1.437 -0.7010  0.0144 -0.6457
13866TIP3    H163089   5.184   2.547   1.496  0.8972 -3.9176 -0.8348
13866TIP3    H263090   5.222   2.554   1.349  0.1224 -0.1275 -0.8935
13867TIP3   OH263091   4.278   1.723  13.507  0.4358 -0.0583 -0.7375
13867TIP3    H163092   4.199   1.775  13.516  0.3812  0.0804 -2.0407
13867TIP3    H263093   4.254   1.637  13.541  0.6373  0.8345  1.7810
13868TIP3   OH263094   3.304   3.056  15.503 -0.1016  0.3177 -0.0126
13868TIP3    H163095   3.223   3.031  15.458  0.4297  0.5021 -1.1014
13868TIP3    H263096   3.293   3.024  15.592 -0.4393 -1.6672 -0.7459
13869TIP3   OH263097   3.687   4.452  14.274 -0.3742 -0.3491 -0.8403
13869TIP3    H163098   3.745   4.446  14.198 -1.6748  0.6194 -1.9102
13869TIP3    H263099   3.600   4.463  14.237 -1.2412 -1.5982  0.7723
13870TIP3   OH263100   5.377   4.328  12.011 -0.3540 -0.1243  0.4752
13870TIP3    H163101   5.366   4.273  12.088  0.0970 -1.2593 -0.2494
13870TIP3    H263102   5.362   4.269  11.937 -0.5682  0.8933 -0.3098
13871TIP3   OH263103   4.198   0.877   5.475 -0.1811  0.3601 -0.4600
13871TIP3    H163104   4.280   0.910   5.438  0.3215  1.8638  1.8669
13871TIP3    H263105   4.213   0.784   5.488  1.9818  0.9852  1.9338
13872TIP3   OH263106   0.752   3.865   5.635  0.2024 -0.4644  0.2808
13872TIP3    H163107   0.754   3.771   5.620  0.3812 -0.5643  0.9025
13872TIP3    H263108   0.670   3.881   5.681  0.9086 -0.5465  1.6050
13873TIP3   OH263109   3.654   1.079  15.030 -0.8143  0.1191 -0.4815
13873TIP3    H163110   3.743   1.079  14.994 -1.2122 -0.4333 -1.4979
13873TIP3    H263111   3.644   1.166  15.068  0.6839 -0.3163  0.9912
13874TIP3   OH263112   3.847   2.189  13.375 -0.2305 -0.1874 -0.3546
13874TIP3    H163113   3.924   2.237  13.403  0.9190 -2.5802  0.7977
13874TIP3    H263114   3.833   2.215  13.284  1.0036  1.4123 -0.1054
13875TIP3   OH263115   3.773   5.332  16.271  0.3070  0.3360  0.1767
13875TIP3    H163116   3.710   5.393  16.310 -1.4441  0.3808 -2.5932
13875TIP3    H263117   3.833   5.387  16.221 -0.9674 -0.1298 -1.9109
13876TIP3   OH263118   6.767   0.591   0.873 -0.0298  0.2395  0.2756
13876TIP3    H163119   6.764   0.516   0.814  0.6334  0.3331  0.1145
13876TIP3    H263120   6.676   0.607   0.897 -0.3834  0.6671 -1.2997
13877TIP3   OH263121   1.506   4.958   3.603  0.1486 -0.0071  0.4746
13877TIP3    H163122   1.441   4.923   3.663 -0.9082 -2.8014 -2.1683
13877TIP3    H263123   1.457   5.019   3.547 -0.1384 -1.7606 -1.2153
13878TIP3   OH263124   6.219   0.668  10.917  0.7540 -0.2625  0.1089
13878TIP3    H163125   6.268   0.605  10.969  0.8337  0.8520  1.4253
13878TIP3    H263126   6.283   0.706  10.857  1.0807 -0.2151  0.4879
13879TIP3   OH263127   5.776   0.691  15.008 -0.3172  0.1936  0.3303
13879TIP3    H163128   5.834   0.714  15.080 -0.1320 -1.4822  0.7316
13879TIP3    H263129   5.731   0.611  15.037  0.7850 -1.3242 -1.9418
13880TIP3   OH263130   4.409   1.018  14.396  0.4172  0.0233  0.0590
13880TIP3    H163131   4.469   1.091  14.412 -1.3825  1.6601 -0.5448
13880TIP3    H263132   4.322   1.054  14.410 -0.6161 -1.5128 -2.0625
13881TIP3   OH263133   4.602   5.490   5.029 -0.3493  0.2918  0.0593
13881TIP3    H163134   4.673   5.450   5.080  0.0428 -0.9679 -1.4337
13881TIP3    H263135   4.645   5.522   4.949 -1.1619  1.1235 -0.0520
13882TIP3   OH263136   4.934   2.257  12.526  0.6345 -0.0474 -0.4701
13882TIP3    H163137   4.897   2.247  12.439 -1.3718 -1.3146  0.4819
13882TIP3    H263138   4.903   2.342  12.556 -0.1233 -0.3598 -0.3452
13883TIP3   OH263139   2.451   0.513   2.734 -0.4624 -0.1509  0.2189
13883TIP3    H163140   2.543   0.489   2.726 -0.2747  0.6040  0.1589
13883TIP3    H263141   2.408   0.431   2.761  0.4207 -0.1780  1.6255
13884TIP3   OH263142   2.612   3.071  14.693  0.1048 -0.0510  0.3830
13884TIP3    H163143   2.591   3.109  14.608  0.9088 -0.4701 -0.0139
13884TIP3    H263144   2.702   3.039  14.683 -0.2576 -1.2861  0.9711
13885TIP3   OH263145   0.081   0.611   2.725  0.4979 -0.1962  0.1749
13885TIP3    H163146   0.056   0.519   2.730 -1.7941  0.4082  0.2710
13885TIP3    H263147   0.097   0.627   2.632  0.9104 -0.7006  0.1612
13886TIP3   OH263148   5.965   0.968  16.206  0.0623 -0.1575  0.1442
13886TIP3    H163149   6.059   0.981  16.194  0.1751  1.8937  2.6917
13886TIP3    H263150   5.941   0.903  16.141  3.1916 -0.4893 -0.7566
13887TIP3   OH263151   6.548   4.697  12.736 -0.1514  0.4892  0.1137
13887TIP3    H163152   6.623   4.665  12.684  0.3495 -2.3141  2.4519
13887TIP3    H263153   6.546   4.639  12.812 -2.5953  2.7692  1.8277
13888TIP3   OH263154   1.817   5.200  15.538 -0.6173  0.8882 -0.3050
13888TIP3    H163155   1.867   5.282  15.538  1.0331 -0.0560  1.4886
13888TIP3    H263156   1.826   5.167  15.628 -2.8547 -0.3174 -0.4832
13889TIP3   OH263157   2.117   5.565   4.977 -0.2642 -0.4412  0.3199
13889TIP3    H163158   2.097   5.523   4.893 -0.2416 -1.3657  0.7754
13889TIP3    H263159   2.105   5.496   5.042 -0.8023  0.4044  1.1373
13890TIP3   OH263160   4.246   2.493  14.962  0.1328  0.2329  0.4142
13890TIP3    H163161   4.255   2.467  14.871 -2.7926  0.3390  0.0271
13890TIP3    H263162   4.289   2.577  14.969 -1.6539  1.3365 -1.4621
13891TIP3   OH263163   1.138   4.843  16.383 -0.4945  0.2614  0.6809
13891TIP3    H163164   1.193   4.765  16.386 -0.6785  0.1378  0.8703
13891TIP3    H263165   1.054   4.812  16.350 -1.0060  0.1177  2.0944
13892TIP3   OH263166   2.707   5.644  14.319 -0.0161  0.1841 -0.1433
13892TIP3    H163167   2.619   5.646  14.281  0.9647  1.2654 -2.4051
13892TIP3    H263168   2.766   5.646  14.244  1.9664 -2.0100  1.2978
13893TIP3   OH263169   2.346   1.265  11.642  0.2743  0.4780 -0.2862
13893TIP3    H163170   2.410   1.261  11.714 -0.9174 -0.8594  0.7315
13893TIP3    H263171   2.348   1.177  11.604 -1.0745  0.3773 -0.1441
13894TIP3   OH263172   2.454   1.872   4.377 -0.1423 -0.2865 -0.4276
13894TIP3    H163173   2.519   1.809   4.345  0.7547 -0.2012  1.1949
13894TIP3    H263174   2.474   1.882   4.470 -0.7910  1.8062 -0.5040
13895TIP3   OH263175   4.690   2.442   3.986  0.9925 -0.4220 -0.1310
13895TIP3    H163176   4.785   2.438   3.992  1.0374 -2.0792 -1.5341
13895TIP3    H263177   4.663   2.350   3.982 -0.7336  0.0010  1.1738
13896TIP3   OH263178   3.558   3.157   2.679 -0.5066 -0.0321  0.0219
13896TIP3    H163179   3.539   3.244   2.643  1.2611  0.0484 -0.7457
13896TIP3    H263180   3.555   3.170   2.774 -1.4568  0.5780 -0.0751
13897TIP3   OH263181   2.401   0.922   5.835 -0.2972 -0.3300  0.2744
13897TIP3    H163182   2.467   0.861   5.869  0.0189  0.5669  1.2982
13897TIP3    H263183   2.327   0.913   5.894 -0.6859 -0.5519 -0.2456
13898TIP3   OH263184   4.168   5.167   1.100 -0.5026  0.0751  0.0091
13898TIP3    H163185   4.215   5.202   1.176  3.5546 -2.4161 -1.2221
13898TIP3    H263186   4.125   5.088   1.132  0.4395 -0.4724 -0.0852
13899TIP3   OH263187   3.562   2.850  11.465  0.4228 -0.7839  0.0965
13899TIP3    H163188   3.541   2.812  11.550 -1.9028  0.7270  0.2479
13899TIP3    H263189   3.537   2.942  11.473  0.2189 -0.6137 -2.1994
13900TIP3   OH263190   2.413   4.698  14.501 -0.0946  0.1956 -0.0557
13900TIP3    H163191   2.329   4.702  14.546 -0.9807 -1.4062 -1.5116
13900TIP3    H263192   2.456   4.781  14.522 -2.6822  1.6895 -0.5907
13901TIP3   OH263193   1.980   4.439   5.783  0.5601 -0.0995  0.2056
13901TIP3    H163194   2.041   4.416   5.853  0.1122 -0.7916  0.3670
13901TIP3    H263195   2.005   4.529   5.759 -0.2283  0.7245  2.2786
13902TIP3   OH263196   0.940   6.188   5.841  0.2675  0.2971 -0.0798
13902TIP3    H163197   0.916   6.230   5.758  2.3321 -1.4677 -1.6477
13902TIP3    H263198   0.910   6.097   5.832  0.4447  0.1104  1.1153
13903TIP3   OH263199   2.468   6.239  14.793 -0.7689 -0.0597 -0.3910
13903TIP3    H163200   2.446   6.227  14.885 -0.1727 -2.0762 -0.4882
13903TIP3    H263201   2.525   6.165  14.772  0.7542  1.4588 -1.8591
13904TIP3   OH263202   6.560   4.229   1.119 -0.1754  0.3015  0.9142
13904TIP3    H163203   6.639   4.178   1.138 -1.3405 -1.3541  1.3835
13904TIP3    H263204   6.502   4.213   1.193 -2.0794 -0.7759 -0.7474
13905TIP3   OH263205   0.555   5.758   4.042  0.0556  0.6045  0.3550
13905TIP3    H163206   0.551   5.823   3.972  1.6721  0.4748  0.1236
13905TIP3    H263207   0.484   5.697   4.023  0.7245  0.3460 -1.4069
13906TIP3   OH263208   6.449   3.966   5.194 -0.1700 -0.0968 -0.2632
13906TIP3    H163209   6.386   3.901   5.224  2.2779 -1.4397  2.2081
13906TIP3    H263210   6.416   4.049   5.228 -1.6640 -0.4707 -0.7630
13907TIP3   OH263211   2.133   3.145  14.260  0.3185 -0.0010 -0.2313
13907TIP3    H163212   2.212   3.096  14.282  1.0080  1.6137  0.9121
13907TIP3    H263213   2.076   3.134  14.336  0.0002  0.0399 -0.4594
13908TIP3   OH263214   5.738   0.268   5.294  0.3460 -0.1385  0.1204
13908TIP3    H163215   5.690   0.277   5.211 -0.1885  0.1494  0.4611
13908TIP3    H263216   5.811   0.210   5.273  0.4846  0.3128 -0.6747
13909TIP3   OH263217   4.986   5.186  10.736 -0.3697 -0.5164  0.4110
13909TIP3    H163218   4.954   5.119  10.797  0.9640 -0.5935  1.0340
13909TIP3    H263219   5.014   5.137  10.659 -0.1703 -0.6028  0.5379
13910TIP3   OH263220   0.477   0.796   4.059  0.1687  0.0138 -0.3176
13910TIP3    H163221   0.385   0.812   4.083  0.2722  1.7226 -1.0067
13910TIP3    H263222   0.527   0.827   4.134  0.1669 -1.4806  0.3130
13911TIP3   OH263223   4.348   3.161   0.788  0.1656 -0.0644  0.2271
13911TIP3    H163224   4.381   3.175   0.877 -0.1799 -1.7794  0.6273
13911TIP3    H263225   4.253   3.158   0.798  0.2255 -2.9643  0.2168
13912TIP3   OH263226   3.899   0.692   6.122  0.1763  0.0512  0.5937
13912TIP3    H163227   3.971   0.743   6.086 -0.6897  1.7153  1.2017
13912TIP3    H263228   3.842   0.675   6.047 -1.0390  2.5344  0.8995
13913TIP3   OH263229   2.719   5.026  11.969 -0.0149 -0.0166 -0.5238
13913TIP3    H163230   2.711   5.075  11.887  2.2941 -0.6815 -1.2006
13913TIP3    H263231   2.808   5.047  12.000 -0.4602 -0.6516  1.2331
13914TIP3   OH263232   4.732   2.469   6.701 -0.6098  0.2120  0.0342
13914TIP3    H163233   4.789   2.397   6.727  0.7481  1.1876 -0.2165
13914TIP3    H263234   4.655   2.460   6.758  1.1203  0.7144  2.5372
13915TIP3   OH263235   1.107   1.658  10.897 -0.1623 -0.0874  0.5174
13915TIP3    H163236   1.118   1.596  10.969  0.2665  0.6279  1.0706
13915TIP3    H263237   1.179   1.720  10.908 -1.3496  1.2567  0.7268
13916TIP3   OH263238   4.571   1.781   6.054 -0.3668  0.0563  0.6070
13916TIP3    H163239   4.646   1.726   6.076  0.9090  1.4085 -0.2922
13916TIP3    H263240   4.513   1.773   6.130  1.7692  0.8689  2.3646
13917TIP3   OH263241   1.467   6.458  14.811 -0.3952 -0.4621  0.2151
13917TIP3    H163242   1.453   6.364  14.801  0.7539 -0.4564 -1.4778
13917TIP3    H263243   1.516   6.484  14.733 -0.2724  1.4531  0.9092
13918TIP3   OH263244   5.211   1.786   4.868  0.1028  0.1772  0.0114
13918TIP3    H163245   5.132   1.824   4.909 -0.4941 -1.2827  0.2524
13918TIP3    H263246   5.178   1.743   4.789  0.8707  0.7367 -0.6128
13919TIP3   OH263247   1.898   6.737   0.274 -0.6184 -0.2349  0.3439
13919TIP3    H163248   1.827   6.675   0.288 -0.6776 -0.5400 -1.2076
13919TIP3    H263249   1.889   6.764   0.183 -0.6382  2.1148  1.0073
13920TIP3   OH263250   2.045   6.245   5.213 -0.8557  0.5036  0.0709
13920TIP3    H163251   2.092   6.247   5.129 -3.2204  0.5279 -1.2966
13920TIP3    H263252   1.984   6.172   5.204 -0.5429 -0.0407  2.1363
13921TIP3   OH263253   0.142   0.289   0.705  0.3670 -0.5704  0.2649
13921TIP3    H163254   0.223   0.243   0.728  1.9293  2.2642  0.6763
13921TIP3    H263255   0.157   0.320   0.615  0.2197  0.9495  0.7563
13922TIP3   OH263256   5.821   0.942  16.685 -0.4348 -0.3183  0.5153
13922TIP3    H163257   5.881   0.990  16.742  0.3136  1.4242 -1.6616
13922TIP3    H263258   5.844   0.850  16.696  0.9056  0.1516  1.6460
13923TIP3   OH263259   0.154   2.385   3.191  0.1995  0.9058  0.2121
13923TIP3    H163260   0.190   2.473   3.204  0.9673  0.5938  0.2078
13923TIP3    H263261   0.193   2.332   3.260  2.6134 -0.2689 -1.9740
13924TIP3   OH263262   3.068   2.773   0.250 -0.6566  0.2839 -0.2604
13924TIP3    H163263   3.120   2.842   0.208  0.1481  1.1335  2.0212
13924TIP3    H263264   3.133   2.719   0.294 -1.5971  0.5771  1.5162
13925TIP3   OH263265   5.703   5.161  15.398  0.0330  0.1945  0.1776
13925TIP3    H163266   5.619   5.191  15.366 -0.9626 -2.3729  0.2474
13925TIP3    H263267   5.739   5.109  15.327  0.7806 -0.1319  0.7806
13926TIP3   OH263268   3.551   5.954  14.954 -0.3675  0.0973 -0.2101
13926TIP3    H163269   3.546   6.012  14.878 -2.1318  1.2160  0.7312
13926TIP3    H263270   3.536   6.011  15.029  1.1663 -1.0299  0.9900
13927TIP3   OH263271   0.357   5.224   2.527  0.3568 -0.5383 -0.1546
13927TIP3    H163272   0.413   5.249   2.601  0.8348  0.4617 -0.8460
13927TIP3    H263273   0.371   5.293   2.462 -1.5557 -0.3731 -0.4012
13928TIP3   OH263274   2.102   6.406  12.185  0.8551  0.7971  0.4394
13928TIP3    H163275   2.190   6.438  12.204  0.8777  1.1705 -0.2897
13928TIP3    H263276   2.047   6.484  12.185  0.4106  0.5017  1.4795
13929TIP3   OH263277   4.705   4.266  14.934 -0.3239  0.8835 -0.5466
13929TIP3    H163278   4.758   4.342  14.956 -1.0861  1.1083  0.6103
13929TIP3    H263279   4.763   4.191  14.947 -0.6272  1.0418  1.9624
13930TIP3   OH263280   2.001   4.208  14.938 -0.1058 -0.0740 -0.2680
13930TIP3    H163281   1.944   4.152  14.991 -0.3500 -1.0742 -1.5680
13930TIP3    H263282   2.089   4.170  14.950  0.0693  0.5853  0.5727
13931TIP3   OH263283   0.323   4.870  17.222 -0.6025  0.7618 -0.3448
13931TIP3    H163284   0.394   4.926  17.255  1.2631 -1.1151 -1.0313
13931TIP3    H263285   0.345   4.782  17.253 -1.6051 -0.1753 -2.1656
13932TIP3   OH263286   1.678   6.570   2.568 -0.3295 -0.2042 -0.2793
13932TIP3    H163287   1.690   6.556   2.474 -0.1686 -1.4389 -0.0840
13932TIP3    H263288   1.600   6.520   2.590 -0.3863  0.1132  0.2409
13933TIP3   OH263289   4.241   5.508   4.546 -1.0432  0.1021  0.4302
13933TIP3    H163290   4.311   5.506   4.612 -1.9163 -2.5803  1.3298
13933TIP3    H263291   4.284   5.538   4.466  0.3237  2.0905  1.8740
13934TIP3   OH263292   2.288   2.772  13.893  0.3762  0.1210  0.0563
13934TIP3    H163293   2.301   2.692  13.841  1.3281  0.6365 -0.5268
13934TIP3    H263294   2.193   2.779  13.903 -0.0067  1.2171 -3.5928
13935TIP3   OH263295   0.281   1.013   3.770 -0.3211  0.5106  0.4524
13935TIP3    H163296   0.256   1.058   3.690 -0.1749 -1.5602 -0.7913
13935TIP3    H263297   0.199   0.975   3.803  0.1919 -1.6374 -0.6628
13936TIP3   OH263298   3.113   4.066  15.909  0.1945  0.5373  0.1949
13936TIP3    H163299   3.156   4.145  15.942  1.4888 -0.5256  1.0631
13936TIP3    H263300   3.027   4.097  15.878  0.2527  2.0955  1.5332
13937TIP3   OH263301   1.821   3.225  14.206  0.1632 -0.0856 -0.0230
13937TIP3    H163302   1.823   3.131  14.185  0.0231 -0.2139  0.5266
13937TIP3    H263303   1.913   3.252  14.200  0.2709 -0.3691  0.2868
13938TIP3   OH263304   2.038   6.220  15.289  0.0356 -0.2476  0.4770
13938TIP3    H163305   2.101   6.238  15.358  1.1259  1.1222 -0.8184
13938TIP3    H263306   1.973   6.291  15.297 -0.6368 -0.9276  1.0193
13939TIP3   OH263307   2.256   3.918   2.953  0.5633 -0.1927 -0.2880
13939TIP3    H163308   2.212   3.844   2.995  0.0886 -1.8085 -3.4865
13939TIP3    H263309   2.185   3.978   2.930  0.6769  0.0025 -0.1343
13940TIP3   OH263310   2.092   6.192   3.568  0.2642  0.2551 -0.0734
13940TIP3    H163311   2.018   6.228   3.618 -0.2151 -0.3988 -0.2951
13940TIP3    H263312   2.153   6.265   3.559 -0.4184  0.8470  0.0019
13941TIP3   OH263313   6.535   2.387   0.455 -0.1838  0.5154  0.3906
13941TIP3    H163314   6.579   2.325   0.512  0.9283  0.2013 -0.7812
13941TIP3    H263315   6.451   2.405   0.498  0.6202  0.2591  2.0779
13942TIP3   OH263316   1.997   1.741  15.399 -0.3162  0.2711  0.3973
13942TIP3    H163317   1.971   1.683  15.327 -0.0880  1.1009 -0.3715
13942TIP3    H263318   1.917   1.753  15.451 -0.7594  0.5188 -0.3288
13943TIP3   OH263319   4.448   4.350   3.550  0.3766  0.1499  0.1011
13943TIP3    H163320   4.472   4.257   3.550 -2.2132 -0.5559  1.6267
13943TIP3    H263321   4.400   4.363   3.631  0.2445  2.7287 -0.3430
13944TIP3   OH263322   5.498   4.354  13.860 -0.1863  0.5457 -0.0059
13944TIP3    H163323   5.498   4.408  13.781 -0.3751  1.6592  0.7365
13944TIP3    H263324   5.587   4.361  13.894  0.4350 -1.5299 -1.1768
13945TIP3   OH263325   3.236   3.360  11.540 -0.4578  0.5449  0.3666
13945TIP3    H163326   3.318   3.375  11.588 -0.2751 -1.4774  0.7364
13945TIP3    H263327   3.169   3.404  11.593 -0.1436 -0.9606  2.0707
13946TIP3   OH263328   0.754   6.691  13.235  0.0196 -0.5599 -0.2239
13946TIP3    H163329   0.760   6.737  13.151 -1.7005  0.3383  0.1143
13946TIP3    H263330   0.840   6.702  13.275  1.2671 -2.0893 -2.4065
13947TIP3   OH263331   0.147   1.384  13.683 -0.1495  0.1276  0.2706
13947TIP3    H163332   0.224   1.360  13.631  0.2957  1.1991  0.4142
13947TIP3    H263333   0.169   1.358  13.772 -0.3006 -0.3372  0.1739
13948TIP3   OH263334   1.674   0.989   3.698  0.0879 -0.5499  0.8032
13948TIP3    H163335   1.623   0.925   3.648 -0.9102  0.3380  0.6608
13948TIP3    H263336   1.716   0.937   3.767  1.2362 -1.7335 -0.7628
13949TIP3   OH263337   1.110   6.696   4.176  0.1071 -0.9607  0.1462
13949TIP3    H163338   1.201   6.688   4.207  0.0064  2.3051  1.5587
13949TIP3    H263339   1.119   6.713   4.082  1.0397  0.2959  0.4424
13950TIP3   OH263340   4.896   0.906   1.568  0.5033 -0.1486  0.4758
13950TIP3    H163341   4.818   0.852   1.556  0.4703 -0.1253  0.5863
13950TIP3    H263342   4.968   0.850   1.538  0.6026 -0.7128  1.7650
13951TIP3   OH263343   4.438   0.877  12.344 -0.0861  0.3281 -0.5949
13951TIP3    H163344   4.507   0.859  12.408  1.2922 -1.6086 -2.5369
13951TIP3    H263345   4.484   0.875  12.260 -2.4036 -0.3231 -1.8701
13952TIP3   OH263346   0.900   1.124  11.592 -0.0414 -0.1366  0.3557
13952TIP3    H163347   0.948   1.060  11.645 -1.8982 -0.9619  1.0871
13952TIP3    H263348   0.822   1.077  11.563  1.4070 -0.0963 -4.0853
13953TIP3   OH263349   2.510   1.781   6.317 -0.6817 -0.1330  0.0766
13953TIP3    H163350   2.562   1.838   6.373 -0.8346 -1.3860  1.5430
13953TIP3    H263351   2.444   1.838   6.279  1.5031  1.3816 -1.4866
13954TIP3   OH263352   3.906   6.677   2.809 -0.0626  0.3889  0.3173
13954TIP3    H163353   3.885   6.769   2.795  0.1810  0.5190  0.7809
13954TIP3    H263354   3.872   6.658   2.897  1.9828  0.6765  1.1985
13955TIP3   OH263355   5.233   2.737  15.791 -0.0056 -0.5119  0.1272
13955TIP3    H163356   5.323   2.740  15.823 -0.1038  1.7419  0.2791
13955TIP3    H263357   5.230   2.803  15.721 -1.8999  0.5865  1.1886
13956TIP3   OH263358   3.141   5.447  12.880 -0.0740 -0.4093  0.1138
13956TIP3    H163359   3.174   5.483  12.963 -2.3246 -1.4436  1.5036
13956TIP3    H263360   3.204   5.379  12.856  1.3920  0.9024  0.1734
13957TIP3   OH263361   6.356   1.621  14.499  0.5359 -0.0996 -0.0833
13957TIP3    H163362   6.384   1.558  14.433  2.1753  0.0044  0.4872
13957TIP3    H263363   6.320   1.694  14.448 -1.8357 -1.6724 -0.7241
13958TIP3   OH263364   3.515   2.812   4.577  0.0486 -0.3958 -0.4201
13958TIP3    H163365   3.420   2.802   4.581 -0.0893  0.9390 -0.2008
13958TIP3    H263366   3.530   2.862   4.497  0.4746  0.5090  0.2248
13959TIP3   OH263367   4.636   6.117   2.515 -0.2912  0.6599  0.1368
13959TIP3    H163368   4.670   6.129   2.427  1.8041  0.7219  0.9242
13959TIP3    H263369   4.590   6.033   2.512  0.6478  0.1696 -0.7646
13960TIP3   OH263370   5.965   2.965   5.153 -0.0094  0.4865  0.6738
13960TIP3    H163371   6.009   2.964   5.068  0.5402 -0.3241  0.9659
13960TIP3    H263372   5.971   2.875   5.184 -2.1819  0.2816  0.5704
13961TIP3   OH263373   4.236   2.894   2.005  0.0996  0.1993 -0.2428
13961TIP3    H163374   4.230   2.880   1.910  0.1580 -0.1258 -0.2002
13961TIP3    H263375   4.323   2.861   2.028 -0.3863 -0.8375  0.1143
13962TIP3   OH263376   0.794   0.188   4.906  0.0890 -0.0077 -0.4198
13962TIP3    H163377   0.719   0.152   4.954 -0.0305  1.5172  0.5839
13962TIP3    H263378   0.767   0.186   4.814 -1.0772  0.2931 -0.0904
13963TIP3   OH263379   5.888   1.575  15.713  0.3970  0.7038 -0.2118
13963TIP3    H163380   5.936   1.534  15.785 -0.1996  0.0412 -0.1936
13963TIP3    H263381   5.883   1.668  15.738  0.6814  0.5748  0.3286
13964TIP3   OH263382   4.118   6.574   1.066  0.6810  0.1768 -0.1226
13964TIP3    H163383   4.025   6.575   1.087  0.4319 -0.9807 -1.1264
13964TIP3    H263384   4.123   6.533   0.980  2.2770 -1.4716  0.7279
13965TIP3   OH263385   2.916   5.921   0.801  0.5266  0.1872  0.2674
13965TIP3    H163386   2.878   6.004   0.774  0.0430 -0.0124  0.3409
13965TIP3    H263387   2.853   5.855   0.772 -0.5767  0.0246  2.9260
13966TIP3   OH263388   4.075   0.156   2.351  0.1698  0.9029  0.9092
13966TIP3    H163389   4.137   0.148   2.424 -1.1703 -1.9481  1.7826
13966TIP3    H263390   3.991   0.177   2.392 -0.9078 -2.1185  0.3610
13967TIP3   OH263391   3.365   0.919  16.953  0.5548 -0.3835  0.7648
13967TIP3    H163392   3.353   0.837  16.905 -0.3280 -0.3551  0.9492
13967TIP3    H263393   3.304   0.915  17.025  0.3755  0.5232  0.6702
13968TIP3   OH263394   3.335   5.634   3.622 -0.0382 -0.2480  0.2155
13968TIP3    H163395   3.284   5.649   3.542 -0.8838  1.3477  1.0179
13968TIP3    H263396   3.419   5.599   3.592 -1.2045 -1.9044 -1.1981
13969TIP3   OH263397   0.846   0.902   1.713 -0.1565  0.5316 -0.1498
13969TIP3    H163398   0.866   0.933   1.624 -2.2655 -1.0688 -1.2350
13969TIP3    H263399   0.881   0.813   1.715 -2.5770 -0.4699 -0.3919
13970TIP3   OH263400   5.591   4.505  12.757 -0.5639 -0.0737 -0.3138
13970TIP3    H163401   5.677   4.514  12.798 -0.7347 -0.9161  0.2419
13970TIP3    H263402   5.603   4.435  12.693 -0.8760 -0.2866 -0.1359
13971TIP3   OH263403   1.727   1.260  15.531  0.3617 -0.1604  0.4196
13971TIP3    H163404   1.778   1.338  15.510 -0.0286  0.0555  0.2560
13971TIP3    H263405   1.762   1.229  15.614  1.8061 -0.9085 -0.4329
13972TIP3   OH263406   6.417   3.562  13.601 -0.0726  0.0833  0.2757
13972TIP3    H163407   6.404   3.468  13.613 -1.8658  0.5525  2.3289
13972TIP3    H263408   6.496   3.582  13.651  0.5045 -0.3795 -0.4481
13973TIP3   OH263409   5.920   3.343   2.993  0.3590  0.3742  0.1797
13973TIP3    H163410   5.942   3.416   2.935 -0.8482  0.4157 -0.2312
13973TIP3    H263411   5.919   3.266   2.936  0.2708  0.2407  0.3587
13974TIP3   OH263412   2.547   2.900  13.850  0.2817 -0.0005 -0.1018
13974TIP3    H163413   2.459   2.886  13.883  0.2579 -2.3547 -1.0761
13974TIP3    H263414   2.603   2.895  13.928 -0.2843 -0.0016  0.3075
13975TIP3   OH263415   2.433   1.971   0.221  0.8554  0.0407  0.2732
13975TIP3    H163416   2.453   2.046   0.277  3.0330 -0.5428  0.3270
13975TIP3    H263417   2.412   1.900   0.282  0.7610  0.0674  0.2725
13976TIP3   OH263418   0.416   5.574  16.604 -0.6184 -0.1799 -0.6061
13976TIP3    H163419   0.489   5.564  16.665 -0.0540  1.8152 -0.8995
13976TIP3    H263420   0.407   5.488  16.563 -0.5167 -1.3418  1.7194
13977TIP3   OH263421   2.949   5.477  12.672 -0.0416 -0.2501  0.6811
13977TIP3    H163422   2.882   5.424  12.715 -0.7395  1.6416  1.9821
13977TIP3    H263423   3.025   5.472  12.730 -0.0694  0.0797  0.7465
13978TIP3   OH263424   4.384   2.086   3.691  0.5995  0.0801  0.2428
13978TIP3    H163425   4.423   2.029   3.624  2.1070 -0.4730  1.5631
13978TIP3    H263426   4.414   2.174   3.668 -1.3740  0.2995 -1.5500
13979TIP3   OH263427   5.627   3.363  14.059  0.6365  0.3536 -0.9830
13979TIP3    H163428   5.680   3.440  14.036  1.0034  0.1926 -0.6767
13979TIP3    H263429   5.555   3.399  14.111  1.3145  0.3841 -0.0523
13980TIP3   OH263430   3.465   6.385  13.033 -0.2029 -0.7527  0.4054
13980TIP3    H163431   3.523   6.310  13.025 -0.5992 -1.0088 -0.0309
13980TIP3    H263432   3.440   6.386  13.126  2.2440  0.6546  1.1108
13981TIP3   OH263433   1.872   2.512   5.670 -0.5706 -0.2874  0.0997
13981TIP3    H163434   1.907   2.425   5.651  0.7724  0.2782 -0.0451
13981TIP3    H263435   1.846   2.508   5.762 -0.8925 -0.9658 -0.0185
13982TIP3   OH263436   2.543   5.421  15.249 -0.6024  0.0793  0.2620
13982TIP3    H163437   2.483   5.361  15.293  0.4322 -0.3390  1.1362
13982TIP3    H263438   2.591   5.366  15.186  1.2293 -0.3118  1.9381
13983TIP3   OH263439   4.697   3.269  17.067 -0.2526  0.1648 -0.6182
13983TIP3    H163440   4.644   3.298  17.142  0.0616  2.3709 -1.2431
13983TIP3    H263441   4.766   3.334  17.059 -0.3736  0.0409 -2.9538
13984TIP3   OH263442   3.062   3.190  15.904 -0.6027  0.4115 -0.1134
13984TIP3    H163443   3.136   3.187  15.843 -1.5427 -1.3926 -1.2357
13984TIP3    H263444   3.006   3.117  15.876 -0.9045 -0.6895  3.1423
13985TIP3   OH263445   4.533   1.226  14.187 -0.5078 -0.1620  0.2018
13985TIP3    H163446   4.440   1.214  14.207 -0.4360 -0.1791  0.5430
13985TIP3    H263447   4.566   1.276  14.262 -0.4242  0.5876 -0.3249
13986TIP3   OH263448   4.951   6.464   5.010 -0.0910 -0.2496 -0.5872
13986TIP3    H163449   4.936   6.370   5.002  1.2452 -0.3327 -2.4370
13986TIP3    H263450   4.887   6.503   4.950  0.2630 -0.0668 -0.8489
13987TIP3   OH263451   1.467   3.650  15.030 -0.2531 -0.0234  0.1898
13987TIP3    H163452   1.435   3.570  15.073 -1.1714  0.6071  0.7032
13987TIP3    H263453   1.423   3.721  15.077  0.2607  0.7675 -0.5202
13988TIP3   OH263454   5.944   5.663   1.146  0.2133 -0.5803  0.1082
13988TIP3    H163455   5.883   5.719   1.193 -0.4501  1.1046 -2.6545
13988TIP3    H263456   5.898   5.579   1.139 -0.6668 -0.1299  0.3693
13989TIP3   OH263457   2.069   0.552  16.911  0.3171 -0.2708 -0.7874
13989TIP3    H163458   2.149   0.500  16.916  0.3416 -0.6009 -3.4943
13989TIP3    H263459   2.020   0.513  16.838 -1.9214  0.4542  0.2708
13990TIP3   OH263460   2.063   5.305   0.216  0.3033  0.3418 -0.6951
13990TIP3    H163461   2.140   5.265   0.256  0.3650  0.2594 -0.8957
13990TIP3    H263462   2.004   5.322   0.289  0.2063 -0.2779 -0.6253
13991TIP3   OH263463   0.118   3.911   2.166 -0.8140 -0.5215 -0.2453
13991TIP3    H163464   0.107   3.904   2.071 -1.4510 -1.7672 -0.0903
13991TIP3    H263465   0.117   3.821   2.197 -0.9286 -0.1056  0.9864
13992TIP3   OH263466   0.154   2.083   0.084 -0.0067 -0.5123  0.0188
13992TIP3    H163467   0.168   2.164   0.131 -1.3945 -0.1707 -0.1232
13992TIP3    H263468   0.146   2.016   0.152  0.0624 -0.3552  0.1810
13993TIP3   OH263469   4.232   6.772   6.489  0.3719  0.1918  0.0915
13993TIP3    H163470   4.293   6.844   6.502 -0.1600  0.7476 -0.4982
13993TIP3    H263471   4.152   6.813   6.456 -0.2384 -0.5564  0.5961
13994TIP3   OH263472   2.126   5.043   6.442  0.2020 -0.0579  0.0793
13994TIP3    H163473   2.126   5.122   6.387  1.7847  0.3518  0.6455
13994TIP3    H263474   2.113   4.972   6.380 -1.1089  0.6268 -0.4570
13995TIP3   OH263475   5.607   1.131   4.725  0.4998  0.4785 -1.0401
13995TIP3    H163476   5.525   1.089   4.751  0.6503  0.0517 -1.2581
13995TIP3    H263477   5.582   1.222   4.706  0.5560  1.1301  1.6888
13996TIP3   OH263478   5.219   1.365   6.558 -0.1938  0.4534 -0.0360
13996TIP3    H163479   5.240   1.446   6.512  0.5874 -1.0282 -2.4043
13996TIP3    H263480   5.298   1.311   6.550 -1.1479 -1.0459  0.3264
13997TIP3   OH263481   2.142   0.022  14.324  0.1098  0.6541 -0.6985
13997TIP3    H163482   2.215  -0.007  14.378  0.8874  0.0165 -2.0665
13997TIP3    H263483   2.064  -0.012  14.368  0.7899 -0.5348 -0.4128
13998TIP3   OH263484   1.788   2.892  15.989  0.6746 -0.0295 -0.1936
13998TIP3    H163485   1.860   2.952  16.009  0.3054  1.1854 -2.3499
13998TIP3    H263486   1.793   2.879  15.895 -1.0069 -1.1339 -0.1531
13999TIP3   OH263487   5.812   3.823  14.966 -0.1217 -0.1058 -0.0511
13999TIP3    H163488   5.882   3.773  15.007 -1.2998 -2.0620 -0.3952
13999TIP3    H263489   5.740   3.822  15.030  0.5006  2.8494  0.7918
14000TIP3   OH263490   5.564   0.131   3.260 -0.7735  0.2679  0.3810
14000TIP3    H163491   5.520   0.082   3.329  0.1143 -0.9171  0.1053
14000TIP3    H263492   5.533   0.221   3.273 -0.3679  0.1369  2.5263
14001TIP3   OH263493   0.753   4.811   1.008  0.5614  0.4348  0.3195
14001TIP3    H163494   0.717   4.862   0.936  0.7926 -0.2736 -0.3054
14001TIP3    H263495   0.691   4.823   1.080  0.7576  1.8191  0.2720
14002TIP3   OH263496   2.248   1.544   5.931  0.1263  0.1816 -0.0818
14002TIP3    H163497   2.163   1.545   5.975  1.2499  2.3038  2.1880
14002TIP3    H263498   2.255   1.630   5.890  0.9992 -0.1371 -0.6184
14003TIP3   OH263499   3.727   2.241   4.481  0.4882  0.2177 -0.3460
14003TIP3    H163500   3.739   2.326   4.522  2.5730  0.4439 -1.3434
14003TIP3    H263501   3.646   2.250   4.430  0.0200  1.1829  0.5495
14004TIP3   OH263502   0.901   3.513  12.868  0.0151 -0.0460 -0.1227
14004TIP3    H163503   0.906   3.419  12.848 -0.2403  0.0877 -0.8447
14004TIP3    H263504   0.991   3.539  12.882  0.1763 -0.2328 -0.7588
14005TIP3   OH263505   6.363   1.869   0.636  0.0804 -0.1841  0.6785
14005TIP3    H163506   6.343   1.782   0.671  0.0709 -0.0197  1.0904
14005TIP3    H263507   6.277   1.906   0.615  0.1550 -0.7436 -0.6532
14006TIP3   OH263508   2.925   3.036  12.107  0.2170 -0.2137  0.4104
14006TIP3    H163509   2.953   3.047  12.016 -0.1752  0.1894  0.3381
14006TIP3    H263510   2.870   2.958  12.106 -0.2959  0.1424  0.1810
14007TIP3   OH263511   3.778   6.012  13.274  0.0380  0.4515  0.0895
14007TIP3    H163512   3.782   5.944  13.341  0.7593  0.0676 -0.3346
14007TIP3    H263513   3.820   6.088  13.314 -0.2401  0.4657  0.3546
14008TIP3   OH263514   0.394   1.408   5.391 -0.4496  0.2943 -0.0303
14008TIP3    H163515   0.472   1.385   5.441 -0.5305 -3.9215 -1.6049
14008TIP3    H263516   0.426   1.417   5.301 -0.7444  5.1451  0.2505
14009TIP3   OH263517   4.600   5.184   6.567 -0.9489  0.6725  0.0080
14009TIP3    H163518   4.549   5.136   6.502  1.0962  0.3785 -1.4253
14009TIP3    H263519   4.611   5.271   6.528 -0.8158  0.9046  0.5618
14010TIP3   OH263520   6.794   1.282   5.076 -0.2146 -0.2658 -0.0923
14010TIP3    H163521   6.782   1.371   5.110  2.2258  0.3720 -0.7984
14010TIP3    H263522   6.714   1.236   5.099 -1.6200  2.2032  0.0481
14011TIP3   OH263523   6.089   2.198  13.028  0.4072 -0.6980 -0.4652
14011TIP3    H163524   6.069   2.289  13.049 -0.8347 -0.9739 -0.3983
14011TIP3    H263525   6.056   2.148  13.103 -0.4089 -1.3333 -1.2338
14012TIP3   OH263526   1.448   1.188   4.510 -0.4572 -0.2679  0.1618
14012TIP3    H163527   1.440   1.217   4.601  0.7709 -0.1730  0.2486
14012TIP3    H263528   1.358   1.176   4.481 -0.8906  0.6587  1.0823
14013TIP3   OH263529   4.997   1.644  12.434  0.2369  0.5334 -0.2549
14013TIP3    H163530   4.913   1.598  12.426  1.0142 -0.4973 -3.1251
14013TIP3    H263531   5.059   1.589  12.387  2.6151  1.1754  2.0377
14014TIP3   OH263532   3.432   3.110   5.065  0.3839 -0.1061  0.5992
14014TIP3    H163533   3.491   3.104   4.991  2.3141  1.1624  1.9914
14014TIP3    H263534   3.378   3.187   5.048  0.8899  0.2382  0.5433
14015TIP3   OH263535   5.495   1.148  17.061  0.2737  0.1990  0.0204
14015TIP3    H163536   5.410   1.113  17.031  0.4672 -0.2498 -0.0128
14015TIP3    H263537   5.552   1.139  16.985  0.8579 -1.2508  0.6102
14016TIP3   OH263538   3.215   6.360  14.316 -0.2585  0.3716 -0.0396
14016TIP3    H163539   3.156   6.308  14.262  0.0798  0.8352 -0.8718
14016TIP3    H263540   3.221   6.312  14.399 -0.8846 -0.2793 -0.3673
14017TIP3   OH263541   2.156   5.413  16.301  0.1663 -0.5675 -0.3288
14017TIP3    H163542   2.133   5.458  16.382  1.4302 -0.7941  0.1533
14017TIP3    H263543   2.238   5.368  16.320  2.0067  1.6739 -2.5576
14018TIP3   OH263544   3.897   1.547  13.238  0.6875 -0.5022 -0.3635
14018TIP3    H163545   3.867   1.540  13.329  1.6442  0.4659  0.0488
14018TIP3    H263546   3.972   1.607  13.243  0.1937  0.2732 -1.9211
14019TIP3   OH263547   6.408   0.147   3.396  0.6036 -0.4211 -0.3033
14019TIP3    H163548   6.462   0.156   3.474 -0.7447  1.1699  0.4723
14019TIP3    H263549   6.326   0.110   3.428 -0.4042  1.3536 -0.7466
14020TIP3   OH263550   4.189   4.445  16.748 -0.1524 -0.5358 -0.8200
14020TIP3    H163551   4.134   4.520  16.770 -0.9764 -1.2700 -0.3464
14020TIP3    H263552   4.160   4.418  16.661 -1.8850 -2.1041  0.2116
14021TIP3   OH263553   3.472   0.586   1.478  0.0603 -0.4210  0.0112
14021TIP3    H163554   3.394   0.536   1.501 -0.9510  0.8587 -0.5662
14021TIP3    H263555   3.544   0.524   1.485 -0.7638 -1.1523  2.3468
14022TIP3   OH263556   6.799   0.057  15.075  0.0251 -0.0108 -0.0128
14022TIP3    H163557   6.787   0.145  15.112 -0.8320  1.0489 -2.7107
14022TIP3    H263558   6.714   0.035  15.037  0.3112 -1.9323  0.3769
14023TIP3   OH263559   4.831   4.135   4.340  0.7177 -0.0640  0.4806
14023TIP3    H163560   4.754   4.144   4.398  0.5801 -0.4026  0.3534
14023TIP3    H263561   4.797   4.153   4.253  0.5332 -1.3484  0.2781
14024TIP3   OH263562   1.229   2.299  16.246 -0.0366 -0.4314  0.1793
14024TIP3    H163563   1.166   2.284  16.175 -1.2418 -1.8360  1.4966
14024TIP3    H263564   1.258   2.211  16.271 -0.5231 -0.0456  2.1979
14025TIP3   OH263565   3.920   3.977   3.331  0.0048  0.3291  0.0689
14025TIP3    H163566   3.916   3.983   3.235  3.1204  1.3488 -0.0810
14025TIP3    H263567   3.886   4.061   3.361  0.9444  0.8507 -0.2696
14026TIP3   OH263568   4.415   6.180  15.536  0.3319  0.0269  0.0186
14026TIP3    H163569   4.394   6.188  15.629  2.9044  1.9926  0.4680
14026TIP3    H263570   4.352   6.238  15.493  1.3632  1.8633  0.8871
14027TIP3   OH263571   6.251   2.370  14.397  0.4503  0.0806  0.4283
14027TIP3    H163572   6.183   2.372  14.465  1.0351  2.3830  1.0037
14027TIP3    H263573   6.260   2.278  14.375 -1.6269 -0.4499  1.5990
14028TIP3   OH263574   0.310   2.396  13.114  0.5155 -0.0557 -0.1276
14028TIP3    H163575   0.216   2.414  13.124  0.8236  0.5716  1.7629
14028TIP3    H263576   0.321   2.307  13.145  0.4761 -0.2995 -0.8040
14029TIP3   OH263577   1.706   0.853  11.747  0.3283 -0.6919 -0.0941
14029TIP3    H163578   1.698   0.777  11.690 -0.2029 -0.5784 -0.1769
14029TIP3    H263579   1.720   0.927  11.688  2.4268 -0.9274  0.0652
14030TIP3   OH263580   1.731   0.287   2.211  0.2760 -0.1562 -0.2841
14030TIP3    H163581   1.818   0.327   2.217 -0.1884  0.9317 -0.6740
14030TIP3    H263582   1.732   0.217   2.277  2.0500 -1.3312 -1.5232
14031TIP3   OH263583   0.600   0.622   5.592  0.1943 -0.2294 -0.2028
14031TIP3    H163584   0.673   0.568   5.562  0.5468  0.4926 -0.6370
14031TIP3    H263585   0.583   0.591   5.681  0.0852 -1.3805 -0.6128
14032TIP3   OH263586   3.465   1.208   5.293 -0.6392 -0.3923  0.6308
14032TIP3    H163587   3.415   1.272   5.242  1.5749  0.3789 -0.6489
14032TIP3    H263588   3.464   1.129   5.240  0.2507 -0.0953  0.1582
14033TIP3   OH263589   1.872   0.593   0.634  0.0026 -0.2576  0.3396
14033TIP3    H163590   1.779   0.574   0.643 -0.2095  0.5189 -0.1304
14033TIP3    H263591   1.878   0.639   0.550  0.1541  3.7656  2.4183
14034TIP3   OH263592   5.420   4.006  13.483 -0.1278 -0.4816 -0.2815
14034TIP3    H163593   5.471   4.023  13.404 -1.2807  0.7789 -0.7660
14034TIP3    H263594   5.338   4.052  13.469 -1.8326 -3.2745  0.0526
14035TIP3   OH263595   3.937   6.195   2.544  0.0883 -0.5227 -0.2604
14035TIP3    H163596   3.896   6.109   2.540  1.3710 -1.1337 -0.2775
14035TIP3    H263597   3.931   6.220   2.636 -2.8953  0.6653 -0.7182
14036TIP3   OH263598   0.309   0.104  13.378 -0.1151 -0.0034 -0.2370
14036TIP3    H163599   0.369   0.045  13.424  2.1324  2.6339  0.3801
14036TIP3    H263600   0.330   0.094  13.286 -0.9421 -1.3707 -0.2996
14037TIP3   OH263601   0.657   4.038  14.780 -0.1717  0.1858 -0.1721
14037TIP3    H163602   0.622   4.110  14.727 -0.1652  2.1102  2.3516
14037TIP3    H263603   0.751   4.039  14.762 -0.3589 -0.1878 -1.2582
14038TIP3   OH263604   4.234   5.688   1.908 -0.2038 -0.0921  0.1938
14038TIP3    H163605   4.216   5.594   1.910  1.4799 -0.4090  1.4196
14038TIP3    H263606   4.329   5.694   1.903 -0.3306  1.5628 -0.5248
14039TIP3   OH263607   2.480   1.668   6.048 -0.3149  0.1238 -0.2597
14039TIP3    H163608   2.387   1.650   6.034 -0.6354  1.9921 -0.6695
14039TIP3    H263609   2.487   1.688   6.141 -0.4982  0.9895 -0.4319
14040TIP3   OH263610   4.133   5.593   2.269 -0.1995 -0.0183  0.7883
14040TIP3    H163611   4.175   5.638   2.342 -1.7265  0.1954  1.5663
14040TIP3    H263612   4.070   5.656   2.235 -0.0333 -0.3931 -0.2315
14041TIP3   OH263613   2.628   5.978  14.986 -0.2368 -0.3384  0.5875
14041TIP3    H163614   2.558   6.030  15.026 -0.4701 -0.3719  0.2269
14041TIP3    H263615   2.708   6.011  15.026 -0.2375  1.3289 -0.6785
14042TIP3   OH263616   4.230   5.107   5.612 -0.3318 -0.1233 -0.1808
14042TIP3    H163617   4.154   5.051   5.630 -1.0004  0.7348 -0.3036
14042TIP3    H263618   4.238   5.162   5.689 -1.9587  2.1518 -1.5678
14043TIP3   OH263619   5.287   5.370  11.672  0.0013  0.0883  0.6339
14043TIP3    H163620   5.328   5.413  11.748  1.3019 -0.3103  0.1840
14043TIP3    H263621   5.306   5.428  11.599  0.2584 -0.3757  0.3265
14044TIP3   OH263622   1.852   1.557  11.258 -0.3973 -0.0995  0.6295
14044TIP3    H163623   1.877   1.557  11.166  1.5241 -0.5176  1.1198
14044TIP3    H263624   1.759   1.532  11.258 -0.4139 -0.0848 -1.1782
14045TIP3   OH263625   3.762   4.060  12.821 -0.4200 -0.1581 -0.1701
14045TIP3    H163626   3.759   3.980  12.873  2.1423  0.3218  0.7843
14045TIP3    H263627   3.838   4.049  12.764 -1.0518  0.8727 -1.2230
14046TIP3   OH263628   4.005   5.913  15.515  0.1554  0.4531  0.5513
14046TIP3    H163629   4.054   5.967  15.576  1.9041 -0.2272 -0.2282
14046TIP3    H263630   3.953   5.855  15.570  0.8215  0.6511  1.3939
14047TIP3   OH263631   5.421   1.053  11.394 -0.5477 -0.3392 -0.3948
14047TIP3    H163632   5.500   1.058  11.340  0.3146 -0.2896  0.8508
14047TIP3    H263633   5.406   0.960  11.408  0.7442 -0.2975  1.4363
14048TIP3   OH263634   0.078   0.660   0.545  0.7451  0.2324 -0.2243
14048TIP3    H163635  -0.006   0.620   0.526  0.8144  0.2026 -0.4711
14048TIP3    H263636   0.081   0.667   0.640  0.9134 -0.7466 -0.1462
14049TIP3   OH263637   6.583   3.830  13.812 -0.0893 -0.2696  0.3172
14049TIP3    H163638   6.614   3.739  13.806 -1.2162 -0.6547  0.3105
14049TIP3    H263639   6.488   3.823  13.806 -0.1759  0.9165  0.3434
14050TIP3   OH263640   6.008   4.975   2.173  0.6233 -0.2914  0.3214
14050TIP3    H163641   5.978   4.888   2.197  0.3807 -0.6429 -1.1586
14050TIP3    H263642   6.103   4.970   2.177  0.6015 -0.5430  0.5012
14051TIP3   OH263643   6.531   2.689   5.646  0.4157 -0.8245  0.2864
14051TIP3    H163644   6.611   2.720   5.603 -0.0673  0.1994  0.1154
14051TIP3    H263645   6.562   2.648   5.727  1.1342 -0.6602  0.1009
14052TIP3   OH263646   6.797   5.257   5.513 -0.0461  0.1195 -0.0446
14052TIP3    H163647   6.840   5.171   5.518  0.8275  0.5895  0.6693
14052TIP3    H263648   6.849   5.306   5.450  0.4257  0.6597  0.7546
14053TIP3   OH263649   3.552   0.473   4.146 -0.4323  0.0382 -0.2304
14053TIP3    H163650   3.577   0.565   4.147  1.4107 -0.3897 -2.1467
14053TIP3    H263651   3.551   0.446   4.238  0.2460  1.6383  0.2458
14054TIP3   OH263652   6.332   2.316   5.272  0.4089  0.3769 -0.0125
14054TIP3    H163653   6.250   2.283   5.308  0.3636 -0.0525 -0.5028
14054TIP3    H263654   6.348   2.398   5.319  1.3428 -1.1086  2.3826
14055TIP3   OH263655   0.233   6.393  14.775  0.2660 -0.6235 -0.1651
14055TIP3    H163656   0.214   6.354  14.860  0.1044  0.3030  0.2311
14055TIP3    H263657   0.308   6.450  14.791 -0.7153  0.7180 -0.3031
14056TIP3   OH263658   4.667   2.053  15.305 -0.3682 -0.1236  0.3965
14056TIP3    H163659   4.641   1.972  15.348  0.1035 -0.1110  0.7204
14056TIP3    H263660   4.761   2.042  15.288 -1.0048 -1.1264 -2.8492
14057TIP3   OH263661   5.399   6.031   5.216 -0.5484  0.5232 -0.1214
14057TIP3    H163662   5.412   5.995   5.129 -1.9250 -0.9059  0.2422
14057TIP3    H263663   5.316   5.994   5.246 -0.5570  1.7102  1.4395
14058TIP3   OH263664   4.725   5.014  14.243  0.4068  0.0331 -0.6729
14058TIP3    H163665   4.660   5.074  14.280  0.5922  1.1957 -2.1850
14058TIP3    H263666   4.773   4.981  14.319 -0.3809  1.0021  0.2589
14059TIP3   OH263667   2.364   3.393   2.088  0.4916 -0.5847  0.2164
14059TIP3    H163668   2.315   3.399   2.169  0.9129  0.4246  0.4076
14059TIP3    H263669   2.300   3.368   2.022  0.2034 -1.6774  0.9128
14060TIP3   OH263670   3.980   1.896  16.958 -0.6490 -0.6735 -0.1546
14060TIP3    H163671   3.895   1.925  16.990  0.4555  0.4169  1.8608
14060TIP3    H263672   4.039   1.968  16.978  1.1544 -2.2641  0.3568
14061TIP3   OH263673   0.928   1.895   2.874  0.1588 -0.1980  0.0737
14061TIP3    H163674   0.944   1.988   2.856  1.7546 -0.5421 -0.2770
14061TIP3    H263675   0.833   1.887   2.868 -0.0542  1.5360  0.6784
14062TIP3   OH263676   4.073   5.239  11.829 -0.3349 -0.0960 -0.3114
14062TIP3    H163677   4.131   5.197  11.765 -2.3935 -1.6327 -1.2264
14062TIP3    H263678   4.065   5.175  11.900  1.1771  1.2099  1.0774
14063TIP3   OH263679   1.751   3.847  14.590 -0.0634  0.7374  0.0123
14063TIP3    H163680   1.715   3.759  14.592  1.3783 -0.0395 -3.5506
14063TIP3    H263681   1.680   3.903  14.622 -1.1813 -1.6108  1.7892
14064TIP3   OH263682   3.865   0.745  14.446 -1.0261 -0.3229 -0.2630
14064TIP3    H163683   3.941   0.804  14.444 -0.4433 -1.0679 -0.4058
14064TIP3    H263684   3.885   0.683  14.516 -1.4187 -0.6349 -0.4268
14065TIP3   OH263685   4.187   2.245  12.423 -0.2599  0.2464  0.0272
14065TIP3    H163686   4.261   2.222  12.480 -0.7633  0.5464  0.8090
14065TIP3    H263687   4.190   2.181  12.352 -0.6522 -1.1800  1.2879
14066TIP3   OH263688   0.227   3.527   5.293 -0.2210  0.0918  0.0250
14066TIP3    H163689   0.224   3.516   5.388 -3.1714  3.1692  0.3782
14066TIP3    H263690   0.316   3.558   5.275  1.0629 -2.5768  1.4485
14067TIP3   OH263691   3.412   2.942   1.828  0.7533  0.5064  0.3283
14067TIP3    H163692   3.391   2.849   1.820 -0.1375  0.7845 -0.5853
14067TIP3    H263693   3.504   2.948   1.802  1.2072 -0.3111  1.7042
14068TIP3   OH263694   3.491   6.037  13.323 -0.4454  0.1867 -0.3100
14068TIP3    H163695   3.586   6.034  13.324 -0.5032 -1.7290 -0.2505
14068TIP3    H263696   3.471   6.125  13.289  1.3165  0.9032  0.4299
14069TIP3   OH263697   4.117   6.341  10.829 -0.3049  0.3480  0.0626
14069TIP3    H163698   4.091   6.327  10.920  1.3394 -0.2421  0.4493
14069TIP3    H263699   4.063   6.280  10.778 -1.8441  1.2915  0.5452
14070TIP3   OH263700   2.478   0.297  14.213  0.4402 -0.9375 -0.5679
14070TIP3    H163701   2.515   0.214  14.244  0.1775 -1.1963 -0.9505
14070TIP3    H263702   2.483   0.292  14.118 -2.5146 -1.8731 -0.7190
14071TIP3   OH263703   0.792   3.599  14.480  0.4807 -0.4009 -0.0914
14071TIP3    H163704   0.773   3.657  14.554  0.3084  0.8521 -1.0998
14071TIP3    H263705   0.874   3.632  14.443 -0.0437 -0.2834 -1.1712
14072TIP3   OH263706   5.542   5.700  14.442 -0.1666 -0.2647 -0.0163
14072TIP3    H163707   5.513   5.726  14.354 -2.0046 -1.4706  0.2091
14072TIP3    H263708   5.573   5.610  14.432  0.6116 -0.0420  0.3643
14073TIP3   OH263709   5.789   0.165  13.047 -0.1292  0.1798 -0.1123
14073TIP3    H163710   5.821   0.195  13.132  0.5705  1.5735 -0.8458
14073TIP3    H263711   5.721   0.229  13.025  0.2338  0.2720 -0.9529
14074TIP3   OH263712   4.757   0.434  12.949  0.4634  0.7342  0.6974
14074TIP3    H163713   4.728   0.476  12.868 -2.2530 -2.6910 -0.2351
14074TIP3    H263714   4.698   0.469  13.016  0.6091  1.1583  0.6066
14075TIP3   OH263715   1.399   3.094  15.782 -0.3276 -0.4523  0.3369
14075TIP3    H163716   1.487   3.120  15.810  0.1942 -1.0576 -0.7264
14075TIP3    H263717   1.343   3.117  15.856  0.7887 -0.4676  1.2013
14076TIP3   OH263718   0.298   2.694   1.492 -0.0329 -0.5528  0.1723
14076TIP3    H163719   0.234   2.714   1.424  0.8774  0.5517 -0.3494
14076TIP3    H263720   0.381   2.686   1.447  0.8140  1.5291  1.3158
14077TIP3   OH263721   4.291   2.156  13.551 -0.4836  0.4348  0.6730
14077TIP3    H163722   4.318   2.159  13.459 -2.0720  1.4012  0.2242
14077TIP3    H263723   4.373   2.162  13.600  0.6834 -3.2127 -0.6576
14078TIP3   OH263724   5.372   2.257   4.692  0.1529  0.1305 -0.5313
14078TIP3    H163725   5.435   2.211   4.636  0.5315 -1.6501  1.3068
14078TIP3    H263726   5.393   2.350   4.680  2.1413 -0.3589 -1.0795
14079TIP3   OH263727   4.190   0.089   3.831  0.2486  0.0369  0.3474
14079TIP3    H163728   4.282   0.068   3.817 -0.2095 -3.5344  2.1951
14079TIP3    H263729   4.184   0.108   3.924 -1.2925 -2.1531  0.7148
14080TIP3   OH263730   4.045   4.950   2.267 -0.9023 -0.2644  0.2114
14080TIP3    H163731   4.005   5.019   2.320  1.1894  2.2873 -1.4052
14080TIP3    H263732   4.117   4.918   2.321  0.8522  1.9127 -0.7769
14081TIP3   OH263733   3.108   2.968   5.589 -0.0005 -0.1511 -0.0863
14081TIP3    H163734   3.168   3.031   5.629 -0.3499  0.4615 -0.5106
14081TIP3    H263735   3.022   3.009   5.597 -0.1344 -0.2349 -1.0421
14082TIP3   OH263736   2.207   6.458  12.881  0.3635  0.0278 -0.5946
14082TIP3    H163737   2.155   6.537  12.877  1.4494  0.8662  1.1336
14082TIP3    H263738   2.148   6.388  12.854 -1.3697  1.0822  0.3996
14083TIP3   OH263739   1.937   5.353  13.924  0.6058  0.2526  0.0954
14083TIP3    H163740   1.876   5.416  13.886  0.2669 -0.0125  0.2003
14083TIP3    H263741   1.892   5.321  14.002  0.5962 -0.4344 -0.1884
14084TIP3   OH263742   1.159   5.990  16.126 -0.3182 -0.1761  0.0517
14084TIP3    H163743   1.157   5.949  16.039  1.0556  0.3868 -0.2535
14084TIP3    H263744   1.249   5.978  16.156 -1.0237 -1.1725  1.8027
14085TIP3   OH263745   2.141   1.411  14.418  0.1799 -0.0035 -0.4974
14085TIP3    H163746   2.047   1.404  14.405  0.0952  1.1382 -0.5052
14085TIP3    H263747   2.162   1.502  14.398  1.2165 -0.1383 -0.0700
14086TIP3   OH263748   2.159   2.801  13.117 -0.4161 -0.6260  0.3198
14086TIP3    H163749   2.234   2.753  13.153  0.0133 -0.8066 -0.8154
14086TIP3    H263750   2.186   2.893  13.120 -0.7023 -0.5612  1.2061
14087TIP3   OH263751   6.147   0.249   4.431 -0.2865 -0.2459  0.4550
14087TIP3    H163752   6.131   0.154   4.427  0.8569 -0.4784  1.2269
14087TIP3    H263753   6.107   0.276   4.514 -1.5634  0.1442 -0.2761
14088TIP3   OH263754   1.519   6.015  10.737 -0.1255 -0.0680 -0.1717
14088TIP3    H163755   1.514   5.922  10.712  0.5351  0.2307 -1.4858
14088TIP3    H263756   1.507   6.015  10.832 -1.5353 -1.3660 -0.3232
14089TIP3   OH263757   4.106   5.519  13.904  0.0172 -0.2868 -0.6059
14089TIP3    H163758   4.035   5.525  13.841 -0.2965 -2.4323 -0.4916
14089TIP3    H263759   4.064   5.532  13.989 -0.0816 -0.5632 -0.6117
14090TIP3   OH263760   4.059   1.152   1.722 -0.2375 -0.0105  0.3656
14090TIP3    H163761   4.024   1.067   1.696  0.0887 -0.2085  0.5720
14090TIP3    H263762   4.000   1.215   1.681 -1.7649 -0.3535  1.9699
14091TIP3   OH263763   6.713   3.750  12.511 -0.0524  0.2401  0.1856
14091TIP3    H163764   6.678   3.799  12.437 -2.0837 -0.2534  0.7861
14091TIP3    H263765   6.742   3.817  12.573  0.5337  0.6543 -0.5302
14092TIP3   OH263766   4.536   0.105  13.097  0.8676 -0.4882 -0.0370
14092TIP3    H163767   4.627   0.129  13.113  0.5536 -0.9167  2.7524
14092TIP3    H263768   4.511   0.054  13.175 -2.5962  2.0189  0.6137
14093TIP3   OH263769   4.722   0.619  16.869  0.2071  0.0709  0.1828
14093TIP3    H163770   4.770   0.611  16.787 -0.6326 -0.5279 -0.2488
14093TIP3    H263771   4.638   0.576  16.853 -1.0077  2.2402  0.5080
14094TIP3   OH263772   5.384   4.760   3.261  0.4916 -0.3848  0.4860
14094TIP3    H163773   5.438   4.832   3.294 -0.0021  0.2001  0.0289
14094TIP3    H263774   5.407   4.753   3.168  1.3421 -1.5455  0.7752
14095TIP3   OH263775   2.121   2.807   0.755  0.1838  0.3509 -0.1315
14095TIP3    H163776   2.037   2.849   0.775 -0.0642 -0.9137  1.6029
14095TIP3    H263777   2.187   2.866   0.792 -0.1348 -0.4551  1.7975
14096TIP3   OH263778   5.220   2.173   0.542  0.1349  0.2057  0.2187
14096TIP3    H163779   5.286   2.206   0.481  1.6084  0.4209  1.9020
14096TIP3    H263780   5.198   2.248   0.597 -1.0952 -0.0178  0.0462
14097TIP3   OH263781   5.093   0.784   3.122 -0.1295  0.1535  0.4167
14097TIP3    H163782   5.147   0.720   3.076 -1.7314 -0.0236 -1.2921
14097TIP3    H263783   5.132   0.869   3.099 -1.1892  0.0959 -1.7001
14098TIP3   OH263784   0.735   4.348   3.881  0.4306 -0.0045  0.1375
14098TIP3    H163785   0.790   4.269   3.886  1.2595  0.5853  0.3021
14098TIP3    H263786   0.670   4.326   3.814  0.5800 -0.8775  0.2613
14099TIP3   OH263787   3.963   1.444   5.277 -0.2241 -0.2254  0.3428
14099TIP3    H163788   3.998   1.432   5.189 -1.7943 -3.1283  0.0355
14099TIP3    H263789   3.879   1.398   5.275  0.0871 -1.0430  3.5905
14100TIP3   OH263790   6.789   0.034  14.257  0.5004 -0.3680 -0.3551
14100TIP3    H163791   6.819  -0.022  14.186  1.4519  1.6501 -1.5794
14100TIP3    H263792   6.868   0.080  14.286 -0.1755 -0.0092  0.9730
14101TIP3   OH263793   2.789   1.651  14.184 -0.2711  0.0175 -0.1382
14101TIP3    H163794   2.794   1.741  14.152 -1.2945 -0.4601 -1.6816
14101TIP3    H263795   2.760   1.659  14.275 -1.9746  1.1895 -0.7603
14102TIP3   OH263796   2.097   0.801   5.810 -0.3218 -0.1031  0.9322
14102TIP3    H163797   2.106   0.827   5.902 -1.0158 -0.5252  1.1252
14102TIP3    H263798   2.095   0.883   5.762 -1.8040  0.1921  1.4697
14103TIP3   OH263799   0.977   1.241   0.373  0.5435  0.7167  0.0322
14103TIP3    H163800   1.007   1.152   0.354  0.7127  1.2011 -2.2026
14103TIP3    H263801   0.958   1.242   0.467  1.6508 -1.3353  0.2861
14104TIP3   OH263802   0.915   0.345   1.027  0.1326 -0.0189  0.3673
14104TIP3    H163803   0.869   0.413   1.078 -0.3129 -0.3504  0.4109
14104TIP3    H263804   0.968   0.394   0.965 -0.2512  0.3767  0.3447
14105TIP3   OH263805   4.981   2.950  15.648  0.8117  0.2146  0.3176
14105TIP3    H163806   4.953   2.911  15.565 -0.5457  1.5489  0.1131
14105TIP3    H263807   5.070   2.981  15.631  0.2320  1.2566 -0.9365
14106TIP3   OH263808   4.267   6.763  13.184  0.2810  0.0295 -0.6637
14106TIP3    H163809   4.228   6.847  13.158  0.6142  0.0196 -1.2204
14106TIP3    H263810   4.196   6.716  13.228  0.6782  1.4515  1.5748
14107TIP3   OH263811   2.099   6.677  14.681  0.0164  0.0133  0.0522
14107TIP3    H163812   2.092   6.612  14.611  2.3314  0.9394 -1.0594
14107TIP3    H263813   2.137   6.754  14.640 -2.9815  2.2580  1.2809
14108TIP3   OH263814   5.076   0.138  16.647 -0.6185 -0.5014 -0.4989
14108TIP3    H163815   5.039   0.143  16.559 -3.3453  0.4649  0.6501
14108TIP3    H263816   5.045   0.055  16.683  1.4297 -1.4428 -0.8129
14109TIP3   OH263817   1.902   0.853   4.660 -0.1889 -0.3391 -0.2312
14109TIP3    H163818   1.832   0.917   4.655  0.9100  0.8896 -0.1423
14109TIP3    H263819   1.868   0.784   4.717 -1.6937 -0.2526 -1.0087
14110TIP3   OH263820   3.624   0.878  15.339  0.2188  0.0885  0.0038
14110TIP3    H163821   3.646   0.900  15.429 -0.5994  2.0331 -0.2565
14110TIP3    H263822   3.528   0.875  15.338  0.2703 -2.1882 -0.2880
14111TIP3   OH263823   2.368   4.538  16.590  0.2734  0.3997 -0.1950
14111TIP3    H163824   2.393   4.611  16.646 -1.5922  1.3678 -0.5634
14111TIP3    H263825   2.311   4.483  16.645  0.1099  0.2535 -0.5062
14112TIP3   OH263826   6.226   1.581  13.447 -0.0504  0.3211 -0.0878
14112TIP3    H163827   6.311   1.540  13.465 -0.2296  0.3192  0.7311
14112TIP3    H263828   6.242   1.635  13.369  0.8454  0.7896  0.4145
14113TIP3   OH263829   3.117   6.762   3.699 -0.5827  0.3791 -0.5457
14113TIP3    H163830   3.126   6.707   3.777 -2.3074  0.7455 -0.0650
14113TIP3    H263831   3.124   6.851   3.733 -2.8234  0.5890 -0.5593
14114TIP3   OH263832   1.215   6.802  11.497  0.1213 -0.0690  0.0328
14114TIP3    H163833   1.163   6.870  11.455 -1.6823 -1.4692 -0.0488
14114TIP3    H263834   1.280   6.850  11.549  0.6033  1.6862 -2.1207
14115TIP3   OH263835   6.421   4.364   3.437  0.9058  0.0309 -0.2400
14115TIP3    H163836   6.441   4.446   3.482 -0.3238  0.1177  0.1641
14115TIP3    H263837   6.332   4.342   3.465  0.6324 -0.6204 -1.5594
14116TIP3   OH263838   5.915   4.262  13.882 -0.7521 -0.1357  0.3003
14116TIP3    H163839   5.962   4.235  13.961 -0.1645 -0.3304 -0.1164
14116TIP3    H263840   5.846   4.320  13.914 -1.0463 -0.8864  1.0520
14117TIP3   OH263841   6.017   5.341   5.565 -0.0416  0.3563 -0.7204
14117TIP3    H163842   5.964   5.271   5.604 -1.1684  1.4158 -0.3094
14117TIP3    H263843   6.102   5.301   5.548 -0.0222 -0.5531  1.4001
14118TIP3   OH263844   3.717   4.025   4.253 -0.2358 -0.5983 -0.4230
14118TIP3    H163845   3.663   4.005   4.330  1.9537 -0.4971  1.1870
14118TIP3    H263846   3.801   3.984   4.272  0.8804  0.9142 -1.9860
14119TIP3   OH263847   6.385   3.819  10.687  0.0735  0.3132  0.3053
14119TIP3    H163848   6.369   3.908  10.653  1.6470  1.2093  1.8308
14119TIP3    H263849   6.480   3.807  10.677 -0.2612 -1.5620 -0.7094
14120TIP3   OH263850   1.577   6.353  12.186 -0.3657  0.4306  0.2025
14120TIP3    H163851   1.666   6.340  12.219 -0.5225 -0.1711  0.3864
14120TIP3    H263852   1.569   6.292  12.113 -0.2716  1.2407 -0.4945
14121TIP3   OH263853   2.460   2.665   1.719  0.1115  0.1031  0.6381
14121TIP3    H163854   2.555   2.671   1.724  0.2182 -1.2931  0.5783
14121TIP3    H263855   2.433   2.637   1.806 -0.2701  0.7250  0.7239
14122TIP3   OH263856   3.510   4.607   2.394 -0.1538 -0.2120 -0.1456
14122TIP3    H163857   3.468   4.530   2.355 -1.8807  1.8181 -2.3680
14122TIP3    H263858   3.574   4.635   2.329  0.1139  0.5836  0.4533
14123TIP3   OH263859   3.801   4.126   0.595 -0.4342  0.0749  0.0898
14123TIP3    H163860   3.841   4.071   0.663 -0.5641 -0.5204 -0.3047
14123TIP3    H263861   3.737   4.179   0.642  0.1311  0.3349  0.5758
14124TIP3   OH263862   2.370   5.496   3.276 -0.0474 -0.5365  0.2782
14124TIP3    H163863   2.294   5.555   3.272 -1.1866 -2.0417 -0.6863
14124TIP3    H263864   2.409   5.500   3.188  1.3103  0.6013  0.9033
14125TIP3   OH263865   2.558   4.631  11.128 -0.6815  1.0507  0.7909
14125TIP3    H163866   2.647   4.625  11.092 -0.1056  1.6733  2.0699
14125TIP3    H263867   2.503   4.589  11.062  0.6122  0.2982  0.1560
14126TIP3   OH263868   6.113   6.502   0.266  0.3835 -0.5171  0.3102
14126TIP3    H163869   6.192   6.554   0.281 -1.0826  1.8280  0.3106
14126TIP3    H263870   6.089   6.469   0.352 -0.4343  1.5511  0.9225
14127TIP3   OH263871   5.269   6.069  13.504  0.0363  0.3091  0.2794
14127TIP3    H163872   5.354   6.096  13.470  0.6251 -0.7783  0.8771
14127TIP3    H263873   5.210   6.076  13.429  0.4492  1.9374  0.0819
14128TIP3   OH263874   6.681   1.722   0.610 -0.1575  0.2228  0.1745
14128TIP3    H163875   6.731   1.700   0.532 -0.9381  1.0094 -0.5559
14128TIP3    H263876   6.658   1.815   0.599  0.7623  0.6762  1.9038
14129TIP3   OH263877   3.528   4.749  10.699  0.3915  0.0095 -0.2463
14129TIP3    H163878   3.544   4.825  10.643  0.9703 -2.0770 -3.0000
14129TIP3    H263879   3.614   4.725  10.732  0.2525  0.3136  0.3525
14130TIP3   OH263880   6.651   1.660   5.717 -0.1572  0.0850  0.4603
14130TIP3    H163881   6.716   1.726   5.740 -0.7305  1.8542 -2.6660
14130TIP3    H263882   6.593   1.656   5.793  3.0506 -0.9567  2.9655
14131TIP3   OH263883   3.836   3.998   3.654  0.5098 -0.4083 -0.3669
14131TIP3    H163884   3.901   3.929   3.643  0.8183 -0.4261  1.4545
14131TIP3    H263885   3.831   4.040   3.568  2.4441 -0.8290 -0.7060
14132TIP3   OH263886   0.309   1.304   2.163 -1.0367  0.3076  0.2099
14132TIP3    H163887   0.350   1.389   2.150 -0.4880 -0.1293 -1.0187
14132TIP3    H263888   0.322   1.285   2.256 -1.0166  1.4839  0.4525
14133TIP3   OH263889   0.864   1.770   1.699  0.1233  0.6327 -0.2101
14133TIP3    H163890   0.915   1.809   1.627  0.5110  1.6246  0.5793
14133TIP3    H263891   0.783   1.821   1.702 -0.4189 -0.1947 -0.7196
14134TIP3   OH263892   1.245   4.756  12.380  0.0173 -0.6029 -0.0301
14134TIP3    H163893   1.204   4.831  12.424  1.3025 -0.9006  1.7287
14134TIP3    H263894   1.326   4.792  12.343 -0.3443 -0.6938 -0.9364
14135TIP3   OH263895   2.233   3.431   2.314  0.0152  0.6694 -0.1277
14135TIP3    H163896   2.224   3.344   2.353  1.2218  1.0463  1.0367
14135TIP3    H263897   2.236   3.490   2.389  1.1152  1.5273 -0.8363
14136TIP3   OH263898   1.050   2.167  14.586  0.0578  0.4002  0.2505
14136TIP3    H163899   1.011   2.094  14.538 -0.2060  0.3808  0.4955
14136TIP3    H263900   0.991   2.241  14.568  0.8521  0.7971 -0.8019
14137TIP3   OH263901   0.461   5.387   1.039  0.3165  0.2832 -0.7456
14137TIP3    H163902   0.454   5.470   0.993 -0.4507  1.0104  0.6787
14137TIP3    H263903   0.427   5.404   1.127 -0.4559 -1.6875 -0.6375
14138TIP3   OH263904   1.805   0.695  14.014  0.4526  0.1298  0.5277
14138TIP3    H163905   1.875   0.633  14.036 -0.6395 -1.4300 -0.3165
14138TIP3    H263906   1.730   0.640  13.993 -0.4401  1.7351 -0.5926
14139TIP3   OH263907   0.219   4.231   0.060  0.1083  0.0527  0.4206
14139TIP3    H163908   0.297   4.282   0.078 -0.4459  1.1409 -0.1813
14139TIP3    H263909   0.165   4.288   0.004 -0.2846 -1.3833 -0.7163
14140TIP3   OH263910   4.987   1.440   0.458 -0.3634 -0.1215  0.3902
14140TIP3    H163911   5.069   1.471   0.496  0.7825  0.1403 -2.1801
14140TIP3    H263912   4.998   1.345   0.452  0.2635  0.0300 -1.0511
14141TIP3   OH263913   1.595   2.727  14.294 -0.1774 -0.2547 -0.2035
14141TIP3    H163914   1.602   2.733  14.390  0.2451 -0.1954 -0.2405
14141TIP3    H263915   1.647   2.650  14.271  0.1773  0.0586 -0.4439
14142TIP3   OH263916   3.495   5.192  13.339 -0.6342  0.2131  0.4010
14142TIP3    H163917   3.578   5.168  13.296 -2.3399 -2.0700 -1.8019
14142TIP3    H263918   3.470   5.114  13.388 -2.8890 -0.1935 -1.3170
14143TIP3   OH263919   0.731   1.035   3.689  0.5020 -0.1120  0.5216
14143TIP3    H163920   0.784   0.957   3.705 -2.2618 -2.7624 -2.4123
14143TIP3    H263921   0.646   1.015   3.727  0.2958  2.3063  1.4146
14144TIP3   OH263922   5.680   2.209   2.997  0.3001 -0.7359  0.5803
14144TIP3    H163923   5.663   2.279   2.934  1.4382  0.3246  1.4164
14144TIP3    H263924   5.622   2.228   3.070  0.1310 -1.0443  0.5240
14145TIP3   OH263925   2.861   5.695   2.674 -0.0700  0.6188  0.1249
14145TIP3    H163926   2.840   5.777   2.717  0.8168  1.7315 -1.5133
14145TIP3    H263927   2.947   5.709   2.635  0.4013 -1.3228  0.3853
14146TIP3   OH263928   5.004   1.438   3.196 -0.4079 -0.5699 -0.5313
14146TIP3    H163929   5.077   1.485   3.236 -1.7996  1.0477  0.2169
14146TIP3    H263930   4.985   1.366   3.256  0.6918 -1.1281 -0.8426
14147TIP3   OH263931   4.604   5.374   4.482 -0.5609 -0.0712  0.2128
14147TIP3    H163932   4.594   5.433   4.408 -0.5269 -0.2471  0.0651
14147TIP3    H263933   4.651   5.298   4.445  3.7558  1.8331  1.4275
14148TIP3   OH263934   6.003   3.885  12.079 -0.5417  0.0106  0.5570
14148TIP3    H163935   5.969   3.798  12.099  1.0566 -0.9514 -0.7105
14148TIP3    H263936   6.091   3.869  12.046 -1.1775  1.8675 -2.2476
14149TIP3   OH263937   0.346   2.656  14.801 -0.4191  0.9062  0.2247
14149TIP3    H163938   0.321   2.578  14.851 -0.5295  1.3383  0.8524
14149TIP3    H263939   0.294   2.651  14.721 -0.5227  0.4000  0.3202
14150TIP3   OH263940   0.785   6.740  15.216 -0.0100  0.1317  0.0695
14150TIP3    H163941   0.795   6.682  15.141  1.8734  1.5296 -0.8152
14150TIP3    H263942   0.698   6.720  15.251 -1.0307 -0.3693 -2.6385
14151TIP3   OH263943   5.900   0.932   5.013  0.3165  0.0868  0.3280
14151TIP3    H163944   5.829   0.881   5.052  0.3985  0.9637  1.6397
14151TIP3    H263945   5.860   1.016   4.991  0.3437 -0.2883 -1.2530
14152TIP3   OH263946   0.256   4.184   2.630  0.0654  0.5547 -0.3818
14152TIP3    H163947   0.168   4.218   2.644  0.3017  1.6360 -1.4093
14152TIP3    H263948   0.302   4.203   2.712 -0.7370 -0.3176  0.2830
14153TIP3   OH263949   6.281   3.778   0.269  0.1637 -0.5847 -0.6764
14153TIP3    H163950   6.265   3.796   0.176 -2.3251 -0.0537 -0.1907
14153TIP3    H263951   6.275   3.864   0.311 -1.6918 -1.1777  0.3360
14154TIP3   OH263952   4.824   0.091  14.543  0.2764 -0.4674  0.1852
14154TIP3    H163953   4.913   0.056  14.547  0.7249  0.7968  1.7817
14154TIP3    H263954   4.787   0.053  14.463  2.2139 -1.0556 -0.4646
14155TIP3   OH263955   6.230   2.500  17.008  0.4185 -0.1605  0.2490
14155TIP3    H163956   6.271   2.472  17.090  2.1299  2.4519  0.3399
14155TIP3    H263957   6.303   2.525  16.952 -0.8717  0.4048 -1.2153
14156TIP3   OH263958   4.376   0.959  17.200 -0.0376 -0.5555 -0.4051
14156TIP3    H163959   4.368   0.887  17.137 -0.4330 -0.2812 -0.6691
14156TIP3    H263960   4.420   1.029  17.150  2.5041 -1.4240  0.5084
14157TIP3   OH263961   5.341   1.362   0.466 -0.3924  0.4266  0.0203
14157TIP3    H163962   5.353   1.430   0.399  1.8115 -0.1824 -0.2538
14157TIP3    H263963   5.394   1.288   0.435 -1.3232 -0.7684  1.2149
14158TIP3   OH263964   4.340   1.916  16.941 -0.0652 -0.1772 -0.0394
14158TIP3    H163965   4.296   1.940  16.860 -1.1423 -0.7269  0.3803
14158TIP3    H263966   4.280   1.857  16.986  1.1971 -1.1535  0.4243
14159TIP3   OH263967   0.171   5.593  15.286 -0.2982 -0.2953  0.1555
14159TIP3    H163968   0.222   5.515  15.264 -0.6486 -0.3448 -0.5158
14159TIP3    H263969   0.090   5.584  15.235 -1.0037 -0.2477  1.2699
14160TIP3   OH263970   5.159   1.125  16.885 -0.0859  0.2015  0.1171
14160TIP3    H163971   5.093   1.172  16.834 -0.2647 -2.9951 -2.7558
14160TIP3    H263972   5.114   1.045  16.914  1.7601 -0.8051  0.2905
14161TIP3   OH263973   1.927   5.234  12.408  0.0696 -0.0733 -0.6366
14161TIP3    H163974   1.933   5.165  12.342  0.2646 -1.4164  0.7475
14161TIP3    H263975   2.013   5.236  12.449 -0.8846 -1.2905  1.5275
14162TIP3   OH263976   2.661   5.331   3.064  0.3628  0.2354  0.0300
14162TIP3    H163977   2.664   5.346   3.159 -1.5060 -0.5417  0.2217
14162TIP3    H263978   2.733   5.384   3.030  0.5669  1.1442  1.8011
14163TIP3   OH263979   2.006   4.038   2.950  0.1304 -0.3857 -0.4165
14163TIP3    H163980   1.944   4.053   3.022 -1.0840 -0.6000 -1.4022
14163TIP3    H263981   2.002   4.118   2.898 -1.6275 -1.5619 -2.1667
14164TIP3   OH263982   6.184   1.547   6.158  0.6997  0.1845 -0.2664
14164TIP3    H163983   6.274   1.538   6.128 -0.2050  0.6998 -3.2182
14164TIP3    H263984   6.158   1.458   6.184  1.8715 -0.0400  0.1811
14165TIP3   OH263985   6.076   5.451   2.042  0.1082  0.5280  0.1721
14165TIP3    H163986   6.139   5.481   1.976 -0.6126  1.1197 -0.2533
14165TIP3    H263987   6.061   5.359   2.021  0.9946  0.3241  0.4070
14166TIP3   OH263988   0.641   5.709  16.041 -0.1544  0.0822  0.2503
14166TIP3    H163989   0.656   5.655  16.119 -1.4850 -0.9192 -0.1711
14166TIP3    H263990   0.666   5.653  15.968  0.4501  0.7848 -0.0857
14167TIP3   OH263991   2.953   1.849  16.974  0.1597 -0.0202  0.1799
14167TIP3    H163992   2.946   1.776  16.913  1.3851 -0.2488  0.3073
14167TIP3    H263993   2.876   1.840  17.031  0.5825 -1.5292  0.5366
14168TIP3   OH263994   6.734   2.740   5.295 -0.1271 -0.2942  0.5643
14168TIP3    H163995   6.707   2.649   5.309 -1.6134  0.1519  0.7077
14168TIP3    H263996   6.734   2.778   5.383  0.3087 -0.1082  0.4809
14169TIP3   OH263997   2.532   1.845   2.015 -0.0723  0.0913  0.2361
14169TIP3    H163998   2.494   1.766   1.976  0.5647  0.3774 -0.9989
14169TIP3    H263999   2.569   1.893   1.941  1.4946  0.4640  1.2344
14170TIP3   OH264000   5.023   1.512   4.135  0.4938  0.2857 -0.5477
14170TIP3    H164001   5.051   1.478   4.050  0.7633 -0.1676 -0.2833
14170TIP3    H264002   4.927   1.506   4.133  0.4795  0.6349 -0.9631
14171TIP3   OH264003   2.649   1.207  12.895 -0.4401  0.4701  0.6781
14171TIP3    H164004   2.589   1.244  12.831  0.5677 -0.9257 -1.1238
14171TIP3    H264005   2.736   1.223  12.858  0.0690 -2.3916  0.5456
14172TIP3   OH264006   0.967   3.640   4.141  0.5504  0.0199 -0.5236
14172TIP3    H164007   0.894   3.657   4.200  0.6096  0.7595 -0.6659
14172TIP3    H264008   1.043   3.676   4.186  0.8052 -0.5730 -0.4647
14173TIP3   OH264009   0.435   1.541  13.609 -0.2811  0.0285 -0.1602
14173TIP3    H164010   0.391   1.519  13.692 -0.3848 -1.5861 -0.6183
14173TIP3    H264011   0.526   1.517  13.623 -0.0540  0.9502 -0.0818
14174TIP3   OH264012   4.224   3.177   3.768  0.0805 -0.1479 -0.0809
14174TIP3    H164013   4.147   3.172   3.712 -0.0474  2.2611 -0.1958
14174TIP3    H264014   4.267   3.259   3.742  1.6167 -0.4789  1.3162
14175TIP3   OH264015   6.749   3.095   6.282  0.0756 -0.1152 -0.3543
14175TIP3    H164016   6.774   3.184   6.307 -0.0287 -0.4465  0.9391
14175TIP3    H264017   6.825   3.041   6.306  0.2261 -0.3572 -1.3303
14176TIP3   OH264018   6.423   2.802   4.646 -0.5693 -0.5599 -0.0684
14176TIP3    H164019   6.452   2.800   4.555 -0.7143 -4.6139 -0.0905
14176TIP3    H264020   6.503   2.814   4.697 -0.3565  0.5200 -0.6289
14177TIP3   OH264021   5.577   2.560  13.815  0.1920 -0.6024 -0.0635
14177TIP3    H164022   5.585   2.615  13.737  0.4014  0.6057  0.7972
14177TIP3    H264023   5.508   2.498  13.793  1.4119 -1.3635 -1.8542
14178TIP3   OH264024   2.691   3.662   1.129 -0.1526  0.6228 -0.6122
14178TIP3    H164025   2.777   3.634   1.098  0.8771  0.3131  2.3573
14178TIP3    H264026   2.643   3.581   1.143 -0.8951  0.7902 -2.0959
14179TIP3   OH264027   2.680   1.447   3.780  0.4959 -0.2398 -0.2287
14179TIP3    H164028   2.685   1.417   3.689  0.3010 -1.8086  0.2629
14179TIP3    H264029   2.626   1.526   3.776  0.0755 -0.5703 -1.4177
14180TIP3   OH264030   3.137   1.256   5.083  0.4804 -0.3705 -0.3381
14180TIP3    H164031   3.182   1.324   5.134  1.3022  0.5207 -2.2006
14180TIP3    H264032   3.052   1.246   5.126  0.2580  2.0029 -0.1617
14181TIP3   OH264033   0.330   3.994   1.088 -0.7776 -0.2976 -0.1970
14181TIP3    H164034   0.401   4.010   1.026 -1.8045 -0.3552 -1.3818
14181TIP3    H264035   0.353   3.910   1.128 -0.1018 -0.2436 -0.4583
14182TIP3   OH264036   2.948   2.459  13.904 -0.5310  0.5617 -0.3851
14182TIP3    H164037   2.946   2.473  13.810  1.2558 -1.2448 -0.7364
14182TIP3    H264038   2.942   2.547  13.942 -3.2065  1.1771 -2.0948
14183TIP3   OH264039   0.465   6.766  13.559 -0.2127  0.0239 -0.4932
14183TIP3    H164040   0.543   6.733  13.604 -0.5195 -1.1707 -0.8247
14183TIP3    H264041   0.420   6.818  13.626 -0.4566 -1.4073  0.4869
14184TIP3   OH264042   0.565   5.630  14.008  0.1756 -0.3904  0.4603
14184TIP3    H164043   0.546   5.636  13.915  0.7198  1.2370  0.4486
14184TIP3    H264044   0.485   5.593  14.046 -0.1887 -0.6987 -0.5848
14185TIP3   OH264045   5.063   1.004   5.328  0.1796  0.4816 -0.2360
14185TIP3    H164046   5.078   0.993   5.234 -0.7790  0.4325 -0.3828
14185TIP3    H264047   4.980   1.051   5.333  1.2179  2.2772  0.5258
14186TIP3   OH264048   6.606   3.247   1.254  0.2836 -0.1057 -0.3616
14186TIP3    H164049   6.663   3.218   1.183 -1.1063 -1.0830 -1.0847
14186TIP3    H264050   6.583   3.337   1.231 -1.2075 -0.8412 -1.8440
14187TIP3   OH264051   4.077   0.817   3.470 -0.6392 -0.1403 -0.0508
14187TIP3    H164052   4.143   0.827   3.402  0.0955 -0.0364  0.6698
14187TIP3    H264053   4.021   0.746   3.439 -0.3904 -0.0016 -0.8242
14188TIP3   OH264054   5.820   4.131   0.132 -0.4565  0.1777 -0.1460
14188TIP3    H164055   5.746   4.134   0.192  0.7625  2.3590  1.3318
14188TIP3    H264056   5.793   4.071   0.063 -2.9481 -0.3017  1.1932
14189TIP3   OH264057   0.433   5.471   1.867  0.1819 -0.5973  0.1312
14189TIP3    H164058   0.515   5.442   1.827 -0.7459 -0.6685 -1.7757
14189TIP3    H264059   0.460   5.515   1.948  2.1991  0.6236 -1.1510
14190TIP3   OH264060   6.087   3.078   6.414 -0.4658  0.1031 -0.1511
14190TIP3    H164061   6.001   3.088   6.455  0.4591  1.8728  1.4476
14190TIP3    H264062   6.093   3.150   6.351 -1.0975 -1.4625 -2.0462
14191TIP3   OH264063   5.622   0.067  16.392 -0.2309 -0.1920  0.4513
14191TIP3    H164064   5.699   0.111  16.357 -0.7984 -0.5932 -1.3813
14191TIP3    H264065   5.549   0.124  16.368 -0.6969 -0.7629  0.4980
14192TIP3   OH264066   3.679   4.462   3.424 -0.0369 -0.0183  0.1475
14192TIP3    H164067   3.638   4.526   3.482 -3.1956 -2.0755  0.2682
14192TIP3    H264068   3.653   4.489   3.336 -1.3601 -1.1161  0.1991
14193TIP3   OH264069   1.725   5.776  14.008  0.0105 -0.5560  0.3898
14193TIP3    H164070   1.753   5.829  13.933  1.2574  0.4739  1.5560
14193TIP3    H264071   1.638   5.745  13.984  0.1835  0.1654 -1.2736
14194TIP3   OH264072   1.215   4.728  11.494 -0.0736  0.1405 -0.0508
14194TIP3    H164073   1.229   4.805  11.548 -0.4823  0.9751 -1.1293
14194TIP3    H264074   1.302   4.689  11.484 -0.0794 -0.3183  1.6473
14195TIP3   OH264075   4.959   1.002  14.544 -0.1241  0.2315 -0.5199
14195TIP3    H164076   4.884   1.037  14.592  0.2866 -1.3955  1.3198
14195TIP3    H264077   4.965   0.911  14.570  2.0465  0.1327 -1.2516
14196TIP3   OH264078   1.931   4.470  15.018 -0.3576 -0.0219 -0.2318
14196TIP3    H164079   1.900   4.508  15.101 -1.3245 -1.7662  0.2447
14196TIP3    H264080   1.928   4.375  15.033 -0.2435 -0.3539 -2.1638
14197TIP3   OH264081   3.414   3.517  17.109  0.3984 -0.0995 -0.0669
14197TIP3    H164082   3.495   3.567  17.092  0.0388  0.7600  0.7436
14197TIP3    H264083   3.395   3.532  17.201 -1.4042  0.7519 -0.5645
14198TIP3   OH264084   1.612   3.026   1.101 -0.1673  0.0150  0.3561
14198TIP3    H164085   1.661   2.993   1.025  1.1210  2.0155  0.2698
14198TIP3    H264086   1.656   2.987   1.177  0.1463  0.0289  0.1823
14199TIP3   OH264087   0.647   4.083  10.619 -0.4825  0.3386 -0.1042
14199TIP3    H164088   0.586   4.116  10.553  1.4522  1.3512 -1.4242
14199TIP3    H264089   0.719   4.045  10.569  0.0844 -0.6366  1.4321
14200TIP3   OH264090   6.595   4.820  16.422 -0.2454  0.1926 -0.5640
14200TIP3    H164091   6.530   4.804  16.490  1.4521 -0.1681  1.0400
14200TIP3    H264092   6.583   4.912  16.398 -0.6208  0.4385  0.5335
14201TIP3   OH264093   6.062   6.693  12.538  0.1975 -0.0676 -0.0589
14201TIP3    H164094   5.978   6.734  12.519  0.7815  0.1883 -2.1635
14201TIP3    H264095   6.107   6.689  12.454  0.7805 -3.6237  0.3421
14202TIP3   OH264096   3.669   4.224   3.004 -0.3228  0.0635 -0.0750
14202TIP3    H164097   3.644   4.310   3.037 -0.3662  0.1683 -0.3787
14202TIP3    H264098   3.753   4.237   2.961 -0.6613  0.1017 -0.7407
14203TIP3   OH264099   5.432   4.604  14.838  0.2736  0.2519  0.0379
14203TIP3    H164100   5.378   4.681  14.825  0.2557  0.1146 -0.7499
14203TIP3    H264101   5.492   4.627  14.909  0.7174  1.2251 -0.6508
14204TIP3   OH264102   1.114   6.178  11.881 -0.3138 -0.2962  0.2343
14204TIP3    H164103   1.122   6.209  11.790 -0.6782 -1.5650 -0.2495
14204TIP3    H264104   1.120   6.257  11.934  0.3902  0.4138 -0.8743
14205TIP3   OH264105   4.444   0.192  11.563  0.3911 -0.4496 -0.0155
14205TIP3    H164106   4.524   0.140  11.576  1.7400  1.2126 -1.4160
14205TIP3    H264107   4.438   0.205  11.468 -1.9060 -1.0614  0.0132
14206TIP3   OH264108   4.700   2.774  11.407  0.6271  0.2144 -0.4433
14206TIP3    H164109   4.607   2.750  11.412  0.6934  0.1771  0.7949
14206TIP3    H264110   4.706   2.855  11.457  1.6649 -1.0311  1.5233
14207TIP3   OH264111   2.561   0.931   3.069 -0.3320  0.4536  0.2429
14207TIP3    H164112   2.545   0.889   2.984  1.2290  0.4851 -0.0893
14207TIP3    H264113   2.475   0.939   3.108 -0.9490 -0.6519 -0.8380
14208TIP3   OH264114   5.330   4.423  12.389  0.1829 -0.8403  0.3247
14208TIP3    H164115   5.289   4.492  12.440  0.2785  0.7500 -1.6971
14208TIP3    H264116   5.409   4.463  12.352  1.3082 -2.6157  0.7380
14209TIP3   OH264117   6.622   6.639  12.361  0.9060 -0.3784  0.0226
14209TIP3    H164118   6.660   6.646  12.449  0.4801  1.2680  0.0887
14209TIP3    H264119   6.670   6.704  12.309 -0.9931  0.8790 -0.1819
14210TIP3   OH264120   4.979   5.488  11.005  0.0793  0.0950 -0.5240
14210TIP3    H164121   5.036   5.538  10.947  0.9324 -1.0335 -0.6936
14210TIP3    H264122   4.906   5.461  10.950  1.1023 -1.3400 -1.2182
14211TIP3   OH264123   3.809   3.328   5.941 -0.0825  0.2463  0.0590
14211TIP3    H164124   3.731   3.374   5.972 -0.7350 -0.9498  0.1922
14211TIP3    H264125   3.826   3.261   6.006  0.3709 -0.2651 -0.5739
14212TIP3   OH264126   0.418   0.630   6.025  0.7074  0.1795 -0.0321
14212TIP3    H164127   0.504   0.671   6.029 -0.0212  1.7984 -0.7737
14212TIP3    H264128   0.359   0.693   6.066  0.1213 -1.6209  1.9540
14213TIP3   OH264129   1.084   4.172  10.558 -0.2124  0.1482 -0.4592
14213TIP3    H164130   1.172   4.189  10.524  0.4897  3.5911  2.8198
14213TIP3    H264131   1.086   4.082  10.587  2.2662  0.2243 -0.3456
14214TIP3   OH264132   5.786   0.693  11.675 -0.0954 -0.7219 -0.2268
14214TIP3    H164133   5.703   0.670  11.718 -0.1797 -0.8458 -0.4521
14214TIP3    H264134   5.770   0.779  11.635  0.3805 -0.0294  1.0430
14215TIP3   OH264135   4.932   0.426   1.486  0.3052 -0.3002 -0.1555
14215TIP3    H164136   4.995   0.363   1.453 -0.3928 -1.1691  0.1484
14215TIP3    H264137   4.906   0.477   1.409  2.4110  0.9990 -0.0346
14216TIP3   OH264138   6.716   5.364  15.256 -0.5280  0.8198  0.4981
14216TIP3    H164139   6.622   5.345  15.249 -0.6616  1.8364 -0.7049
14216TIP3    H264140   6.746   5.366  15.165  0.8277 -0.3001  0.9175
14217TIP3   OH264141   2.168   1.456  16.988 -0.5434 -0.3040  0.5196
14217TIP3    H164142   2.198   1.421  17.072 -0.3001 -1.2614  0.0468
14217TIP3    H264143   2.133   1.542  17.008 -0.2361 -0.4215  1.5607
14218TIP3   OH264144   5.662   4.932   2.039  0.2552  0.6460  0.4448
14218TIP3    H164145   5.575   4.945   2.075  0.4194  1.1772  0.6640
14218TIP3    H264146   5.708   5.014   2.059  0.4989  0.7519 -0.5259
14219TIP3   OH264147   2.941   3.494   1.843 -0.5093  0.5944 -0.0899
14219TIP3    H164148   2.883   3.422   1.868  0.7047 -0.0101  0.9827
14219TIP3    H264149   2.918   3.566   1.902  0.0469  0.2484  0.5542
14220TIP3   OH264150   0.325   5.454  14.030  0.1811  0.5014  0.1136
14220TIP3    H164151   0.294   5.385  14.088  0.6668 -0.1954 -0.4514
14220TIP3    H264152   0.247   5.506  14.009 -0.2407 -0.0740  0.2739
14221TIP3   OH264153   1.921   2.398   2.635  0.5732 -0.2783  0.6816
14221TIP3    H164154   1.958   2.312   2.655  1.6862  0.2703  1.0082
14221TIP3    H264155   1.840   2.379   2.588  0.6083 -1.5117  1.1153
14222TIP3   OH264156   2.250   0.800  13.734  0.0536 -0.3653 -0.1448
14222TIP3    H164157   2.341   0.815  13.758 -0.3419  0.3780  0.9203
14222TIP3    H264158   2.200   0.853  13.795 -1.1217 -1.2226 -0.3380
14223TIP3   OH264159   2.680   5.422   1.727  0.6389  0.7387 -0.2063
14223TIP3    H164160   2.765   5.393   1.760  0.8442  2.1237  0.4815
14223TIP3    H264161   2.644   5.344   1.684  1.0417 -0.6537  1.9066
14224TIP3   OH264162   2.460   1.640   3.427 -0.4236  0.0856  0.8660
14224TIP3    H164163   2.483   1.673   3.340 -1.6584 -1.2286  0.0110
14224TIP3    H264164   2.490   1.708   3.487  3.2421 -0.3343 -0.3274
14225TIP3   OH264165   0.520   0.561  16.726  0.9098 -0.1832  0.7447
14225TIP3    H164166   0.544   0.649  16.753 -1.4712  0.7075  0.1281
14225TIP3    H264167   0.591   0.533  16.668  2.4439  0.7078  2.1810
14226TIP3   OH264168   5.349   2.552   3.832  0.4966 -0.1309 -0.5250
14226TIP3    H164169   5.308   2.579   3.749 -3.1066 -1.6962  0.6528
14226TIP3    H264170   5.350   2.632   3.885  0.3442  0.2555 -1.0907
14227TIP3   OH264171   3.028   2.348   4.984  0.2982 -0.8366  0.0979
14227TIP3    H164172   2.948   2.296   4.975  0.4014 -0.9288 -0.3315
14227TIP3    H264173   3.008   2.431   4.940  0.5790 -1.0231 -0.3902
14228TIP3   OH264174   3.290   6.123  17.291  0.3237  0.2070 -0.0238
14228TIP3    H164175   3.342   6.077  17.357  1.0465  0.0279 -0.7085
14228TIP3    H264176   3.242   6.053  17.246 -0.1677  0.3275  0.3131
14229TIP3   OH264177   5.493   0.208  17.180 -0.4646 -0.0088 -0.2365
14229TIP3    H164178   5.430   0.152  17.225  0.0779 -0.2052  0.2768
14229TIP3    H264179   5.458   0.216  17.091 -2.4849  1.8386  0.6806
14230TIP3   OH264180   4.058   1.355  14.820  0.0696  0.2208 -0.2744
14230TIP3    H164181   4.145   1.339  14.858  0.2414 -0.8515 -1.0992
14230TIP3    H264182   4.070   1.343  14.726 -0.7791  0.9896 -0.4936
14231TIP3   OH264183   3.805   3.722   5.637 -0.2128 -0.2176  0.1904
14231TIP3    H164184   3.876   3.747   5.696 -2.0596  1.4829  1.7667
14231TIP3    H264185   3.754   3.657   5.686 -0.0421 -1.0674 -0.7330
14232TIP3   OH264186   1.055   4.511  11.129 -0.0438 -0.3493 -0.1577
14232TIP3    H164187   0.992   4.582  11.123  1.1533  0.7543  0.1252
14232TIP3    H264188   1.061   4.476  11.040  0.6135  1.0116 -0.6585
14233TIP3   OH264189   5.337   6.228  13.130 -0.4322  0.2097  0.1953
14233TIP3    H164190   5.400   6.271  13.188  1.0156 -0.4389 -0.8667
14233TIP3    H264191   5.321   6.292  13.061 -0.5945  0.1995  0.2234
14234TIP3   OH264192   0.789   0.232   0.797 -0.1910 -0.6761 -0.6261
14234TIP3    H164193   0.833   0.254   0.879  2.2011 -0.5738 -1.8987
14234TIP3    H264194   0.696   0.242   0.816  0.3047 -1.0418  2.1850
14235TIP3   OH264195   6.806   3.038  16.482  0.0114  0.0922 -0.1336
14235TIP3    H164196   6.846   2.953  16.462  0.4060  0.5421 -1.2757
14235TIP3    H264197   6.792   3.035  16.576 -0.3213 -1.3969 -0.2047
14236TIP3   OH264198   6.287   4.784  14.981  0.1785  0.1920 -0.3873
14236TIP3    H164199   6.273   4.879  14.981 -0.0635  0.1556 -0.0438
14236TIP3    H264200   6.259   4.755  14.894  2.7937  0.8173 -1.4918
14237TIP3   OH264201   3.035   6.483  15.878  0.0754 -0.4772  0.4446
14237TIP3    H164202   3.017   6.504  15.969 -0.3729 -0.6618  0.3961
14237TIP3    H264203   3.075   6.396  15.880 -0.2347 -0.6188  0.4337
14238TIP3   OH264204   2.395   1.031   3.750 -0.0925 -0.1837 -0.2908
14238TIP3    H164205   2.458   1.091   3.789 -2.0341  0.5510  1.8342
14238TIP3    H264206   2.359   0.981   3.823 -1.9177 -0.6195 -1.4310
14239TIP3   OH264207   2.888   6.774   3.948  0.1972  0.2505  0.3648
14239TIP3    H164208   2.880   6.706   3.881 -1.7238  1.2822 -0.4700
14239TIP3    H264209   2.896   6.856   3.899 -3.0486  1.2185  1.3223
14240TIP3   OH264210   6.136   1.351   1.313  0.3092  0.4767  0.4313
14240TIP3    H164211   6.157   1.305   1.394  1.8332  0.9246  0.3001
14240TIP3    H264212   6.070   1.296   1.271  0.8646 -0.7092  1.0866
14241TIP3   OH264213   0.580   3.345  12.783 -0.1193  0.1417 -0.3269
14241TIP3    H164214   0.635   3.272  12.754 -1.7447 -1.9069  1.5576
14241TIP3    H264215   0.590   3.346  12.878  0.0850  2.5802 -0.3633
14242TIP3   OH264216   6.025   4.459  13.712 -0.0747 -0.0972  0.1736
14242TIP3    H164217   6.016   4.413  13.629  1.5215 -1.4793  0.7422
14242TIP3    H264218   6.007   4.392  13.778 -0.6243  0.8129  0.9502
14243TIP3   OH264219   3.703   3.849   0.770 -0.2563 -0.1912 -0.5268
14243TIP3    H164220   3.766   3.915   0.801  0.7497 -2.0620  1.5404
14243TIP3    H264221   3.622   3.868   0.817  0.2641 -0.8890  0.6679
14244TIP3   OH264222   4.434   4.509  15.030 -0.0930 -0.4438  0.5874
14244TIP3    H164223   4.461   4.565  14.958  0.0900  0.3258  1.2397
14244TIP3    H264224   4.366   4.453  14.993  0.1294 -0.1867 -0.2234
14245TIP3   OH264225   3.911   2.006   3.910  0.0248 -0.3617 -0.1286
14245TIP3    H164226   3.920   1.996   4.004  2.9043  0.4306 -0.2770
14245TIP3    H264227   3.893   1.918   3.878  1.9458 -1.1284  0.8687
14246TIP3   OH264228   2.889   3.847   4.872  0.2828  0.1119 -0.4698
14246TIP3    H164229   2.954   3.865   4.803  0.3581  0.7251 -0.2419
14246TIP3    H264230   2.894   3.752   4.885  0.7989  0.0909 -0.7839
14247TIP3   OH264231   6.391   3.974  14.939  0.3856  0.7133  0.4006
14247TIP3    H164232   6.398   3.887  14.900  0.5640  1.2689 -0.8420
14247TIP3    H264233   6.401   3.959  15.033 -1.0756 -0.7726  0.3356
14248TIP3   OH264234   5.146   3.011  13.581 -0.7260 -0.0026 -0.7064
14248TIP3    H164235   5.078   3.037  13.519  1.1075  0.9565 -2.3190
14248TIP3    H264236   5.186   2.934  13.541  0.3870  0.5528 -0.6583
14249TIP3   OH264237   1.507   5.062   2.631  0.1819  0.0279 -0.2706
14249TIP3    H164238   1.517   4.968   2.651  1.2122 -0.0865 -1.3126
14249TIP3    H264239   1.521   5.068   2.537  0.9584  1.3571 -0.0682
14250TIP3   OH264240   3.428   4.586   1.241 -0.4396 -0.5159  0.2790
14250TIP3    H164241   3.495   4.520   1.224  0.6989  0.7482 -0.2083
14250TIP3    H264242   3.448   4.619   1.328  0.0801  0.4623 -0.2099
14251TIP3   OH264243   4.363   5.300   6.312  0.3593 -0.7341 -0.2586
14251TIP3    H164244   4.363   5.282   6.218 -0.7613  0.2937 -0.4660
14251TIP3    H264245   4.409   5.226   6.351 -1.5014 -2.5058 -1.3737
14252TIP3   OH264246   2.121   6.472  13.855  0.0643 -0.0887  0.2623
14252TIP3    H164247   2.097   6.500  13.766  1.2540 -0.9491 -0.3455
14252TIP3    H264248   2.215   6.454  13.850 -0.0417 -1.0345  1.4671
14253TIP3   OH264249   2.612   1.023   0.473 -0.0836  0.0073  0.3858
14253TIP3    H164250   2.703   1.008   0.449 -0.3950  0.5937 -1.2825
14253TIP3    H264251   2.572   1.058   0.393 -2.1408 -1.8341  0.5582
14254TIP3   OH264252   1.691   3.518   5.046  0.6366 -0.2434 -0.3660
14254TIP3    H164253   1.739   3.447   5.004  0.2574 -0.7603  0.0649
14254TIP3    H264254   1.600   3.507   5.016  0.8772  1.0483 -1.6006
14255TIP3   OH264255   2.106   5.915  14.355 -0.4728  0.2691 -0.0020
14255TIP3    H164256   2.052   5.913  14.276 -2.2252 -2.1246  1.2089
14255TIP3    H264257   2.056   5.968  14.418  0.7937  1.9398 -0.3436
14256TIP3   OH264258   3.776   3.388  13.718  0.6567  0.1538 -0.2615
14256TIP3    H164259   3.683   3.389  13.738  0.7215  2.3725  0.0256
14256TIP3    H264260   3.780   3.357  13.627 -0.2642 -1.0436  0.0952
14257TIP3   OH264261   2.568   4.305  15.429 -0.2141 -0.5097 -0.7718
14257TIP3    H164262   2.488   4.259  15.454  0.0577 -1.2536 -1.2587
14257TIP3    H264263   2.555   4.329  15.338 -0.4291  0.5476 -0.4630
14258TIP3   OH264264   4.626   1.272  12.352  0.2881  0.2845 -0.4759
14258TIP3    H164265   4.704   1.223  12.377 -0.5934 -1.4063 -0.9273
14258TIP3    H264266   4.652   1.364  12.357  1.8254 -0.2035  0.9200
14259TIP3   OH264267   6.783   3.579   5.370 -0.2031 -0.2222 -0.4025
14259TIP3    H164268   6.869   3.565   5.330  0.2943  0.6184  0.3477
14259TIP3    H264269   6.747   3.654   5.322  0.7362  1.3113  1.2157
14260TIP3   OH264270   4.523   5.658   1.912  0.8309 -0.3400 -0.3830
14260TIP3    H164271   4.603   5.614   1.942  0.4239 -0.9402 -0.1568
14260TIP3    H264272   4.552   5.743   1.880  1.3340  0.2185  1.4888
14261TIP3   OH264273   3.920   0.594  12.690  0.2487  0.0797 -0.8597
14261TIP3    H164274   3.982   0.566  12.758 -0.8638 -0.5540 -0.0855
14261TIP3    H264275   3.974   0.637  12.624  1.7749 -2.1963 -1.1484
14262TIP3   OH264276   6.351   2.614   3.166  0.4153 -0.1095  0.4687
14262TIP3    H164277   6.358   2.661   3.250  1.4038 -0.2559  0.4724
14262TIP3    H264278   6.330   2.524   3.191  2.1990 -0.5010  0.6498
14263TIP3   OH264279   0.906   5.238   1.986 -0.1457 -0.3362 -0.1296
14263TIP3    H164280   0.899   5.187   1.906  2.0349 -2.1489  0.7774
14263TIP3    H264281   0.922   5.327   1.956  2.0709 -1.2210 -1.7572
14264TIP3   OH264282   1.612   1.384   0.135 -0.4256  0.0414  0.6744
14264TIP3    H164283   1.644   1.319   0.197 -0.3181 -0.5728 -0.0079
14264TIP3    H264284   1.690   1.411   0.086 -0.4182  0.9173  1.1697
14265TIP3   OH264285   1.617   2.399  13.824 -0.5348  0.3821  0.2626
14265TIP3    H164286   1.629   2.318  13.875  1.3540 -0.2182 -1.0638
14265TIP3    H264287   1.597   2.368  13.736  0.7822  1.3490 -0.3830
14266TIP3   OH264288   5.758   5.170  13.253 -0.1490  0.6408 -0.0025
14266TIP3    H164289   5.666   5.147  13.235  0.4585 -2.6540  0.7842
14266TIP3    H264290   5.787   5.215  13.174 -2.8008  3.0257  0.2708
14267TIP3   OH264291   1.204   0.407  16.765  0.1319  0.5099  0.0770
14267TIP3    H164292   1.262   0.378  16.836 -0.3525 -2.6394 -0.7310
14267TIP3    H264293   1.202   0.333  16.704  0.5357  3.1484 -3.2585
14268TIP3   OH264294   6.800   2.087   4.713 -0.3031  0.9102 -0.0115
14268TIP3    H164295   6.705   2.099   4.718 -0.3353  0.2994  0.9752
14268TIP3    H264296   6.817   2.066   4.621 -1.2572 -0.0653  0.0239
14269TIP3   OH264297   0.059   4.643  14.103  0.1074 -0.2033 -0.1372
14269TIP3    H164298  -0.032   4.667  14.124  0.8886  1.5005  1.4901
14269TIP3    H264299   0.087   4.589  14.177  0.6757 -0.0329 -0.2290
14270TIP3   OH264300   0.427   4.735  14.894 -0.3336  0.1374  0.1538
14270TIP3    H164301   0.440   4.706  14.804  1.9514 -0.5910  0.6866
14270TIP3    H264302   0.357   4.678  14.927 -0.1498 -0.5941 -0.6900
14271TIP3   OH264303   4.934   2.546   1.018  0.5957 -0.2005 -0.3238
14271TIP3    H164304   4.874   2.570   0.948  0.5374  1.0074  0.1300
14271TIP3    H264305   4.886   2.481   1.070 -0.0121  0.1929 -0.3993
14272TIP3   OH264306   0.764   0.607   5.917  0.3027  0.1492  0.6151
14272TIP3    H164307   0.762   0.512   5.921  0.6153  0.1678  1.1843
14272TIP3    H264308   0.771   0.635   6.008 -1.8061  0.7627  0.6072
14273TIP3   OH264309   0.428   0.700  11.812  0.1695 -0.6885 -0.4845
14273TIP3    H164310   0.407   0.763  11.880  3.1019  0.6010 -0.7253
14273TIP3    H264311   0.378   0.729  11.735 -0.8035 -0.4341  0.2385
14274TIP3   OH264312   3.110   4.390  14.369 -0.0384 -0.2779 -0.4268
14274TIP3    H164313   3.079   4.421  14.454 -0.4588 -1.0878 -0.2755
14274TIP3    H264314   3.205   4.400  14.372 -0.0823  0.0211  0.0020
14275TIP3   OH264315   6.036   3.903   0.870  0.1046 -0.7641 -0.6672
14275TIP3    H164316   6.120   3.931   0.833  0.0515 -2.1158 -1.8479
14275TIP3    H264317   6.057   3.878   0.960  0.5757  0.8241 -0.3133
14276TIP3   OH264318   4.279   5.160  14.592  0.6458 -0.3480  0.3111
14276TIP3    H164319   4.236   5.110  14.523 -0.7528 -1.3842  1.9071
14276TIP3    H264320   4.365   5.181  14.556 -0.6044  0.4698 -2.3556
14277TIP3   OH264321   4.444   5.563  17.230  0.0444 -0.0666 -0.3151
14277TIP3    H164322   4.451   5.648  17.186  1.4918 -0.0967 -0.1810
14277TIP3    H264323   4.535   5.533  17.237 -0.4052 -1.2961  0.2787
14278TIP3   OH264324   3.213   1.390  12.552  0.6100 -0.5200 -0.1577
14278TIP3    H164325   3.274   1.327  12.591 -0.4314 -1.0881  0.5963
14278TIP3    H264326   3.176   1.344  12.477  2.0133  0.2788 -1.3587
14279TIP3   OH264327   0.942   2.511   1.865  0.0340 -0.0904  0.8281
14279TIP3    H164328   0.948   2.538   1.957 -0.8469 -0.6470  1.0598
14279TIP3    H264329   0.902   2.586   1.820  0.9542  0.3848  0.8008
14280TIP3   OH264330   2.303   3.603  15.590  0.0061  0.7416  1.1134
14280TIP3    H164331   2.330   3.567  15.506  0.1600 -0.9305  1.8597
14280TIP3    H264332   2.249   3.679  15.568 -1.3389 -0.6709 -0.5323
14281TIP3   OH264333   0.494   2.410  14.419 -0.1430 -0.6395  0.1258
14281TIP3    H164334   0.415   2.408  14.365 -0.2265 -0.4491  0.2379
14281TIP3    H264335   0.536   2.493  14.397  0.7133 -1.3289 -0.8958
14282TIP3   OH264336   1.577   1.183   2.937 -0.0591  0.0546 -0.3760
14282TIP3    H164337   1.665   1.146   2.926 -0.2555 -0.3782 -0.5152
14282TIP3    H264338   1.585   1.275   2.911  1.0022  0.7674  2.2892
14283TIP3   OH264339   0.473   1.843  13.845  0.1992 -0.0854  0.1140
14283TIP3    H164340   0.444   1.932  13.864 -1.3298 -0.6501  0.5677
14283TIP3    H264341   0.478   1.839  13.750 -0.5790  0.2547  0.0509
14284TIP3   OH264342   1.927   3.729  16.738  0.6694  0.9858 -0.3777
14284TIP3    H164343   1.887   3.687  16.814  1.4967  1.1441  0.1552
14284TIP3    H264344   1.979   3.660  16.697  0.0277  0.8330 -0.9558
14285TIP3   OH264345   0.725   5.961   1.522  0.0138  0.5912  0.0643
14285TIP3    H164346   0.656   5.921   1.469 -0.4181  0.5234  0.6776
14285TIP3    H264347   0.681   6.033   1.568  0.5638  1.1417 -0.2692
14286TIP3   OH264348   4.179   4.740  16.986 -0.1583 -0.0799 -0.0590
14286TIP3    H164349   4.221   4.760  16.902 -1.3936 -2.1596 -1.2195
14286TIP3    H264350   4.238   4.676  17.027  0.0496  0.3407  0.2956
14287TIP3   OH264351   3.021   3.000   6.302 -0.0491  0.1272 -0.6186
14287TIP3    H164352   2.975   3.069   6.350  1.6138  0.4706  0.5185
14287TIP3    H264353   3.070   3.047   6.235 -3.1203 -0.4191 -3.3998
14288TIP3   OH264354   6.107   6.323   1.424  0.6330  0.1123  0.2737
14288TIP3    H164355   6.120   6.302   1.332  1.2160 -0.2858  0.4448
14288TIP3    H264356   6.108   6.239   1.469  2.4704  0.4216  0.8948
14289TIP3   OH264357   3.186   4.131   3.979 -0.2684  0.4408  0.1090
14289TIP3    H164358   3.237   4.212   3.975 -1.5851  1.2187 -1.4430
14289TIP3    H264359   3.228   4.073   3.915 -0.5115  0.6005 -0.1959
14290TIP3   OH264360   1.299   2.865  11.042 -0.5638  0.4137  0.2724
14290TIP3    H164361   1.246   2.804  10.990  0.8438 -0.2983 -0.3618
14290TIP3    H264362   1.248   2.946  11.044 -1.9196 -0.4299  0.1463
14291TIP3   OH264363   4.622   5.811  13.639  0.6801 -0.3244 -0.5770
14291TIP3    H164364   4.617   5.906  13.634 -1.3155 -0.3400  0.7107
14291TIP3    H264365   4.671   5.794  13.719  0.0749 -0.3971 -0.2254
14292TIP3   OH264366   3.819   1.732   5.586  0.4091  0.4283 -0.0282
14292TIP3    H164367   3.842   1.822   5.609  2.2401  0.4529 -1.8377
14292TIP3    H264368   3.903   1.686   5.584 -0.2367 -0.6998 -1.7509
14293TIP3   OH264369   3.648   1.318  15.179  0.0097  0.6558 -0.0475
14293TIP3    H164370   3.719   1.285  15.234  0.5478 -0.4179 -1.3606
14293TIP3    H264371   3.677   1.405  15.152  1.5800 -0.3665 -1.8151
14294TIP3   OH264372   4.683   1.058  13.913  0.2948  0.0943 -0.0591
14294TIP3    H164373   4.681   1.089  14.003  2.0109  1.0109 -0.3137
14294TIP3    H264374   4.697   1.137  13.861 -0.6927 -0.4229 -1.1449
14295TIP3   OH264375   4.733   1.098   4.306 -0.1803  0.3458  0.6267
14295TIP3    H164376   4.780   1.145   4.236  1.6566  0.2152  1.7403
14295TIP3    H264377   4.787   1.020   4.322 -1.0327 -0.0384  1.6354
14296TIP3   OH264378   4.958   2.759  15.850 -0.1380  0.3436 -0.7523
14296TIP3    H164379   4.970   2.821  15.779  4.0254  1.4232  0.7613
14296TIP3    H264380   5.030   2.696  15.840 -0.1001 -0.0852  1.8378
14297TIP3   OH264381   2.591   0.566   5.553  0.1684 -0.4000  0.0289
14297TIP3    H164382   2.515   0.624   5.565 -0.5496 -1.0521 -1.1667
14297TIP3    H264383   2.615   0.539   5.642 -1.0311 -0.2132  0.4227
14298TIP3   OH264384   1.880   3.522   0.694 -0.0731  0.3288  0.0655
14298TIP3    H164385   1.800   3.558   0.656 -0.5935 -1.3183 -0.4388
14298TIP3    H264386   1.857   3.502   0.785 -0.4053 -0.6192 -0.2183
14299TIP3   OH264387   4.346   6.716   5.898 -0.0506 -0.8305 -0.4735
14299TIP3    H164388   4.406   6.703   5.971 -0.6643 -1.5493 -0.0909
14299TIP3    H264389   4.260   6.697   5.934 -0.4325 -0.5179 -1.2099
14300TIP3   OH264390   1.330   2.290   5.142  0.0577  0.5538 -0.6405
14300TIP3    H164391   1.370   2.360   5.091 -1.1158  0.0078 -2.3547
14300TIP3    H264392   1.384   2.283   5.221  2.4483  0.8166 -2.2157
14301TIP3   OH264393   0.238   4.809  16.258  0.2412  0.5235 -0.2232
14301TIP3    H164394   0.199   4.797  16.171 -3.2212 -0.2735  1.3696
14301TIP3    H264395   0.174   4.863  16.305  0.4663 -1.8158  2.8650
14302TIP3   OH264396   4.303   1.084  13.809 -0.3159 -0.0415 -0.2468
14302TIP3    H164397   4.249   1.098  13.731 -0.5450  0.3019 -0.0275
14302TIP3    H264398   4.383   1.133  13.791 -0.1084 -0.4903 -0.5407
14303TIP3   OH264399   6.649   0.777  14.147 -0.3962 -0.1294 -0.0109
14303TIP3    H164400   6.553   0.774  14.149 -0.4854  2.1759  0.5130
14303TIP3    H264401   6.670   0.869  14.130  1.7336 -0.5342  0.2731
14304TIP3   OH264402   1.429   5.327   0.034 -1.0717  1.0088  0.3889
14304TIP3    H164403   1.385   5.368  -0.040 -0.7519  0.7480  0.0567
14304TIP3    H264404   1.418   5.390   0.105 -2.0729  0.9017  0.3446
14305TIP3   OH264405   1.653   1.236   1.611 -0.1864 -0.7311 -0.3144
14305TIP3    H164406   1.716   1.222   1.540  1.6927 -2.4849  1.6198
14305TIP3    H264407   1.702   1.287   1.676 -1.8035  0.6465 -0.1394
14306TIP3   OH264408   3.614   2.622   6.029  0.0984  0.2877 -0.6143
14306TIP3    H164409   3.630   2.549   5.969  0.1681 -1.2519  1.2244
14306TIP3    H264410   3.519   2.634   6.026 -0.0621 -0.7490  0.0387
14307TIP3   OH264411   0.977   4.386  12.360  0.1493  0.1769 -0.6514
14307TIP3    H164412   1.071   4.400  12.354  0.2908 -1.0183 -1.2990
14307TIP3    H264413   0.944   4.410  12.273 -0.1904  0.8646 -0.3419
14308TIP3   OH264414   5.516   6.443   4.654  0.3616 -0.1996  0.0720
14308TIP3    H164415   5.512   6.450   4.558  1.2228 -0.7832 -0.0121
14308TIP3    H264416   5.600   6.402   4.671  0.8742  1.2591  1.1580
14309TIP3   OH264417   1.417   6.068   6.515 -0.0910 -0.0196 -0.4693
14309TIP3    H164418   1.342   6.025   6.557 -0.4960  0.8613 -0.2877
14309TIP3    H264419   1.403   6.161   6.529  1.6955  0.1058  0.7028
14310TIP3   OH264420   4.823   5.592   2.715  0.2495  0.2843 -0.3434
14310TIP3    H164421   4.750   5.649   2.691 -1.2254 -1.5585 -0.3478
14310TIP3    H264422   4.838   5.611   2.808 -1.3699 -0.5260  0.1032
14311TIP3   OH264423   5.822   4.281  13.089  0.0462 -0.0029 -0.0942
14311TIP3    H164424   5.894   4.234  13.130  0.4031  0.9619  0.3986
14311TIP3    H264425   5.778   4.216  13.035  0.5547 -0.8860  0.5540
14312TIP3   OH264426   4.882   4.083  14.993  0.6227  0.7957 -0.5919
14312TIP3    H164427   4.875   4.000  15.040 -2.6522  1.8194  0.8137
14312TIP3    H264428   4.947   4.133  15.043  1.4240 -0.2812 -0.5321
14313TIP3   OH264429   3.574   2.288  10.837 -0.3682 -0.0026  0.1046
14313TIP3    H164430   3.616   2.202  10.832 -1.4674 -0.4504 -2.3521
14313TIP3    H264431   3.636   2.343  10.885  0.9300 -1.8221  0.5409
14314TIP3   OH264432   6.783   1.160  13.839 -0.7626  0.0142 -0.4430
14314TIP3    H164433   6.749   1.081  13.879 -3.6647  1.5091  0.2113
14314TIP3    H264434   6.706   1.216  13.827  1.1680  2.6796 -0.9859
14315TIP3   OH264435   3.726   3.059  12.279  0.2175 -0.6417  0.0837
14315TIP3    H164436   3.774   3.138  12.300  2.6790 -2.0199 -0.2291
14315TIP3    H264437   3.700   3.070  12.188 -1.0644  0.5915  0.5812
14316TIP3   OH264438   2.321   3.071   2.135 -0.1403  0.4817 -0.3919
14316TIP3    H164439   2.417   3.078   2.128 -0.1320  0.8940  0.0781
14316TIP3    H264440   2.288   3.128   2.065 -0.0451  0.2491 -0.6284
14317TIP3   OH264441   4.346   2.853  15.921  0.2230  0.3040  0.1378
14317TIP3    H164442   4.276   2.843  15.856  0.0233  0.4164  0.3368
14317TIP3    H264443   4.425   2.868  15.868  0.6400 -2.8258 -0.2046
14318TIP3   OH264444   3.671   2.430   3.689 -0.3583  0.6235  0.5460
14318TIP3    H164445   3.747   2.392   3.733  0.0126 -0.0139 -0.6086
14318TIP3    H264446   3.708   2.486   3.621 -0.9180  0.3783  0.0316
14319TIP3   OH264447   6.424   0.977  11.191  0.1675  0.2454 -0.0191
14319TIP3    H164448   6.349   1.028  11.220  0.0714  0.6151 -0.8970
14319TIP3    H264449   6.427   0.990  11.096  1.4196  0.3523  0.0270
14320TIP3   OH264450   2.070   2.418  12.709 -0.1788  0.2671 -0.0916
14320TIP3    H164451   2.119   2.339  12.686 -0.2244 -0.0086  0.7135
14320TIP3    H264452   2.130   2.468  12.765  0.0822  1.1085 -1.1064
14321TIP3   OH264453   4.766   1.866  14.350  0.6260  0.2509  0.0130
14321TIP3    H164454   4.754   1.942  14.292  0.0962  1.0551  1.1564
14321TIP3    H264455   4.701   1.803  14.319 -0.5498  1.1802  0.5384
14322TIP3   OH264456   1.913   2.915   2.247  0.0024 -0.3253 -0.5447
14322TIP3    H164457   1.948   2.964   2.322 -1.1737  0.6266 -0.6096
14322TIP3    H264458   1.946   2.826   2.260  1.3287  0.2431  0.1173
14323TIP3   OH264459   4.457   2.339   5.676  0.3553 -0.4572  0.2033
14323TIP3    H164460   4.432   2.249   5.698 -1.0355  0.3765  2.1444
14323TIP3    H264461   4.519   2.365   5.744 -1.5042  1.0336  1.3767
14324TIP3   OH264462   4.379   3.250   3.370  0.1199 -0.3748 -0.6453
14324TIP3    H164463   4.406   3.341   3.385 -0.9319 -0.5742  2.9785
14324TIP3    H264464   4.283   3.254   3.366 -0.2102 -1.7278  3.4859
14325TIP3   OH264465   3.376   4.517   6.114 -0.1339 -0.4251 -0.4346
14325TIP3    H164466   3.383   4.612   6.113  0.7185 -0.4633  1.5433
14325TIP3    H264467   3.282   4.500   6.118 -0.2433  0.3491  0.4248
14326TIP3   OH264468   3.359   1.846   0.723  0.4813  0.5493 -0.1774
14326TIP3    H164469   3.435   1.798   0.755 -0.9738 -1.0660  0.9441
14326TIP3    H264470   3.336   1.804   0.640 -0.9216 -0.8908  0.9091
14327TIP3   OH264471   3.949   3.332   0.596  0.4609  0.2233 -0.2052
14327TIP3    H164472   3.895   3.292   0.528 -0.2327  2.1879 -0.8437
14327TIP3    H264473   3.974   3.260   0.653  2.5373 -1.7942 -3.5183
14328TIP3   OH264474   6.218   6.340   5.346  0.4729  0.0251  0.3399
14328TIP3    H164475   6.190   6.417   5.396  1.0041  0.3139  0.1880
14328TIP3    H264476   6.176   6.267   5.391 -0.6394  0.4689  0.0398
14329TIP3   OH264477   6.641   5.905  12.108 -0.2660 -0.4069  0.5873
14329TIP3    H164478   6.669   5.996  12.118  2.8425 -1.2470 -0.0474
14329TIP3    H264479   6.704   5.854  12.159 -0.3672 -2.4247 -1.2197
14330TIP3   OH264480   0.017   5.318   5.193  0.0636  0.0805 -0.3143
14330TIP3    H164481   0.038   5.372   5.269 -1.4850  0.4667 -0.1373
14330TIP3    H264482  -0.073   5.342   5.171  0.6122  0.2364 -2.4936
14331TIP3   OH264483   4.363   0.753   0.392 -0.6584 -0.4543 -1.2507
14331TIP3    H164484   4.302   0.741   0.320 -2.6852 -0.4290  0.4018
14331TIP3    H264485   4.362   0.669   0.438 -0.1922 -0.1429 -0.6594
14332TIP3   OH264486   2.146   3.823   6.218  0.3891 -0.3431 -0.4917
14332TIP3    H164487   2.087   3.884   6.175 -0.4183 -1.1365 -0.5384
14332TIP3    H264488   2.194   3.781   6.147 -0.4256 -1.1292 -0.5930
14333TIP3   OH264489   1.862   4.084   0.451  0.0550 -0.1304  0.2264
14333TIP3    H164490   1.778   4.079   0.407 -0.1178 -0.5530  0.5943
14333TIP3    H264491   1.871   4.177   0.475  0.8710  0.4133 -2.0433
14334TIP3   OH264492   2.727   3.565   4.558 -0.3862 -0.2229  0.7214
14334TIP3    H164493   2.764   3.573   4.470 -0.1569  2.1034  0.9798
14334TIP3    H264494   2.651   3.624   4.557 -0.1665  0.1013  2.1750
14335TIP3   OH264495   0.723   0.707   4.013 -0.3834  0.3396  0.3882
14335TIP3    H164496   0.627   0.702   4.020 -0.3212 -0.5118  0.7594
14335TIP3    H264497   0.754   0.628   4.057  0.4892  0.5500  0.1613
14336TIP3   OH264498   5.839   2.801  12.256  0.5268 -0.0859  0.4607
14336TIP3    H164499   5.827   2.737  12.326  0.4817  1.1233  1.5791
14336TIP3    H264500   5.926   2.839  12.273  1.7655 -1.8135 -1.8233
14337TIP3   OH264501   1.769   5.802   5.691  0.3139 -0.1516  0.0224
14337TIP3    H164502   1.823   5.742   5.741  0.3788  1.1267  1.5100
14337TIP3    H264503   1.808   5.888   5.705 -2.6573  0.9601  1.9669
14338TIP3   OH264504   2.804   4.219  11.856  0.5873 -0.1126  0.4213
14338TIP3    H164505   2.780   4.127  11.860  1.4389 -0.3160  1.0008
14338TIP3    H264506   2.863   4.232  11.931  1.2693  0.6556 -0.2356
14339TIP3   OH264507   4.270   5.290  11.553 -0.0425  0.3794  0.1358
14339TIP3    H164508   4.199   5.233  11.525 -0.4019  0.2315  1.3308
14339TIP3    H264509   4.339   5.230  11.582 -0.6052  0.5411  1.8518
14340TIP3   OH264510   3.642   6.633   1.180 -0.0004  0.2463  0.3452
14340TIP3    H164511   3.669   6.725   1.190  0.1368  0.3168 -0.6295
14340TIP3    H264512   3.715   6.583   1.215 -0.1521  0.5027  1.0564
14341TIP3   OH264513   5.369   1.362   5.578  0.5922 -0.3107  0.4542
14341TIP3    H164514   5.315   1.383   5.502 -1.9558  2.0492  2.7931
14341TIP3    H264515   5.338   1.276   5.606  0.7796 -0.6993 -0.5277
14342TIP3   OH264516   1.028   4.709   0.496  0.0891  0.1671  0.1452
14342TIP3    H164517   1.059   4.630   0.451 -0.7970  0.1538 -0.4520
14342TIP3    H264518   1.063   4.702   0.584  2.1303  0.3451 -0.6312
14343TIP3   OH264519   2.976   5.672   4.769 -0.3074 -0.1553 -0.4909
14343TIP3    H164520   2.934   5.647   4.687 -1.3359 -0.1083  0.0202
14343TIP3    H264521   2.934   5.617   4.835 -2.1485  2.4665  0.5661
14344TIP3   OH264522   2.217   1.490  13.010  0.1504  0.0804  0.0660
14344TIP3    H164523   2.227   1.395  13.001  0.1425  0.0703  0.1709
14344TIP3    H264524   2.158   1.515  12.939 -2.0678 -0.3616  1.7007
14345TIP3   OH264525   2.012   1.111  13.874 -0.0808 -0.6525  0.3135
14345TIP3    H164526   1.997   1.017  13.862 -0.5022 -0.5870  0.2913
14345TIP3    H264527   1.925   1.146  13.895 -0.0610 -0.1626 -0.3905
14346TIP3   OH264528   1.316   0.994   0.450  0.0747  0.1350  0.0463
14346TIP3    H164529   1.333   0.934   0.523 -0.8503 -0.5715 -0.3034
14346TIP3    H264530   1.310   1.080   0.491 -1.2277 -0.3543  0.9299
14347TIP3   OH264531   6.268   1.161  11.832 -0.1562  0.2822 -0.2024
14347TIP3    H164532   6.286   1.226  11.900 -0.0058  1.0466 -0.9674
14347TIP3    H264533   6.179   1.182  11.803 -0.7455 -0.9014  0.6991
14348TIP3   OH264534   1.522   1.888   1.753 -0.2825  0.3735 -0.4016
14348TIP3    H164535   1.590   1.952   1.731  0.6733 -1.0735 -1.7240
14348TIP3    H264536   1.558   1.840   1.828  0.8564 -1.4018 -2.0396
14349TIP3   OH264537   1.707   4.589  16.898  0.5942  0.4880  0.2027
14349TIP3    H164538   1.685   4.502  16.932  1.2060  0.6496  1.0446
14349TIP3    H264539   1.625   4.638  16.904  0.1935 -0.0816 -0.4623
14350TIP3   OH264540   4.092   0.094   2.991  0.0012 -0.4523 -0.0569
14350TIP3    H164541   4.024   0.098   3.058 -0.3344  0.8174 -0.4457
14350TIP3    H264542   4.043   0.096   2.908  0.5296  1.2444 -0.3419
14351TIP3   OH264543   0.414   6.511   4.086  0.4802 -0.0987 -0.3667
14351TIP3    H164544   0.342   6.560   4.126  0.9640 -0.6201  1.1695
14351TIP3    H264545   0.476   6.578   4.059  1.1208  0.1640  1.6869
14352TIP3   OH264546   3.457   6.329   2.768  0.4572  0.2920  0.2816
14352TIP3    H164547   3.489   6.245   2.734 -1.1216  0.5080 -1.8225
14352TIP3    H264548   3.449   6.315   2.862 -1.3570 -2.4523 -0.2403
14353TIP3   OH264549   4.330   0.693   2.801 -0.0232 -0.1379 -0.6218
14353TIP3    H164550   4.326   0.668   2.708  0.0884 -0.2190 -0.6046
14353TIP3    H264551   4.337   0.610   2.848 -0.5109 -0.1194 -0.5162
14354TIP3   OH264552   0.012   3.570   3.764  0.7694 -0.2252 -0.0593
14354TIP3    H164553   0.045   3.649   3.722  0.7281 -0.2630 -0.1625
14354TIP3    H264554   0.085   3.539   3.818  0.3582  0.5975  0.9841
14355TIP3   OH264555   5.381   3.412  13.661 -0.2702 -0.1952  0.1563
14355TIP3    H164556   5.297   3.453  13.683  0.1485 -0.4763  2.3392
14355TIP3    H264557   5.445   3.483  13.667  0.0985 -0.6341  1.5734
14356TIP3   OH264558   4.020   3.581  14.719  0.5212 -0.8068 -1.0006
14356TIP3    H164559   3.953   3.512  14.712  0.4217 -0.8446  0.2828
14356TIP3    H264560   3.970   3.660  14.738  0.8053 -0.7414 -0.5361
14357TIP3   OH264561   4.511   5.724  14.593 -0.3424  0.3821 -0.2485
14357TIP3    H164562   4.587   5.773  14.626 -2.0959  2.6853  0.5142
14357TIP3    H264563   4.445   5.733  14.661 -0.9385 -2.6142 -0.3860
14358TIP3   OH264564   2.054   2.005  13.577  0.0542  1.0588  0.3011
14358TIP3    H164565   2.064   1.911  13.560 -2.0661  0.2558  3.1296
14358TIP3    H264566   2.020   2.040  13.494  0.4673 -0.7275 -0.6593
14359TIP3   OH264567   5.384   2.022  14.442  0.3775  0.2639 -0.0561
14359TIP3    H164568   5.384   2.108  14.398  0.2336  1.0981  1.5611
14359TIP3    H264569   5.415   2.040  14.530  0.5377 -1.4044  0.2418
14360TIP3   OH264570   0.649   0.272   4.357  0.1184  0.1213 -0.2819
14360TIP3    H164571   0.738   0.291   4.385  0.4431 -0.8907 -0.6040
14360TIP3    H264572   0.594   0.329   4.411  0.9656  0.8878 -0.2128
14361TIP3   OH264573   0.097   2.651  12.006  0.4052  0.2685 -0.4242
14361TIP3    H164574   0.081   2.746  12.005 -0.0737  0.1921 -0.0513
14361TIP3    H264575   0.192   2.643  12.009  0.4996  0.7290 -2.0329
14362TIP3   OH264576   3.185   3.585   4.559  0.2490  0.7504 -0.5730
14362TIP3    H164577   3.220   3.673   4.551  1.9410  0.0155 -1.5130
14362TIP3    H264578   3.116   3.580   4.493 -0.9716  1.8859  0.6037
14363TIP3   OH264579   0.761   4.879  15.274  0.1572 -0.3634 -0.1580
14363TIP3    H164580   0.780   4.824  15.350 -0.0103  1.0080  0.9104
14363TIP3    H264581   0.666   4.878  15.266  0.0506  0.9279  0.7746
14364TIP3   OH264582   6.483   4.067  10.995 -0.1705  0.0431 -0.1642
14364TIP3    H164583   6.419   4.104  11.056 -0.0901  0.8521 -0.5587
14364TIP3    H264584   6.567   4.078  11.040 -0.2932 -0.9314  0.3115
14365TIP3   OH264585   1.873   2.752   3.265 -0.3460  0.1033 -0.0445
14365TIP3    H164586   1.890   2.659   3.281 -0.1855  0.0985 -0.2358
14365TIP3    H264587   1.814   2.753   3.190 -0.5185  0.1474  0.0933
14366TIP3   OH264588   1.936   2.073   1.922 -0.0289  0.1278 -0.1457
14366TIP3    H164589   1.848   2.109   1.930 -1.0444 -2.1829 -0.6444
14366TIP3    H264590   1.965   2.061   2.013 -0.9324 -0.7646  0.0327
14367TIP3   OH264591   3.925   4.506   1.964 -0.2545 -0.0498 -0.5014
14367TIP3    H164592   3.990   4.467   1.905  0.6156  0.1704  0.2914
14367TIP3    H264593   3.841   4.492   1.920  0.3467 -0.1450 -1.6502
14368TIP3   OH264594   4.337   2.719   6.199 -0.3855  0.1202  0.2841
14368TIP3    H164595   4.346   2.735   6.293  3.8104  0.3386 -0.0672
14368TIP3    H264596   4.333   2.624   6.191 -0.4604  0.0926  0.6464
14369TIP3   OH264597   6.746   6.721  12.586  0.0055  0.6702  0.3935
14369TIP3    H164598   6.684   6.748  12.653  0.2476  0.0557  0.8703
14369TIP3    H264599   6.826   6.769  12.606  0.5017 -0.5302  1.3656
14370TIP3   OH264600   2.060   0.622  15.044 -0.0648  0.4212 -0.1127
14370TIP3    H164601   2.003   0.548  15.023 -0.8811  0.9213  0.3068
14370TIP3    H264602   2.133   0.615  14.982 -0.9500  0.1951 -1.1294
14371TIP3   OH264603   1.389   5.583  15.093  0.0214  0.5705 -0.0420
14371TIP3    H164604   1.312   5.634  15.067 -0.1883  0.0813 -0.3866
14371TIP3    H264605   1.432   5.637  15.159  0.3930  1.6948 -1.1842
14372TIP3   OH264606   3.779   3.072   3.636  0.6677  0.1224  0.0494
14372TIP3    H164607   3.739   3.154   3.664  0.9506  0.5377 -0.7309
14372TIP3    H264608   3.719   3.038   3.570  0.5136 -0.3390  0.4255
14373TIP3   OH264609   0.568   5.241   6.771  0.5007  0.7174  0.1949
14373TIP3    H164610   0.658   5.252   6.740  0.8203  1.3975  1.3323
14373TIP3    H264611   0.514   5.278   6.701  1.0707 -0.1890 -0.7413
14374TIP3   OH264612   4.135   5.701   4.779  0.1641  0.0776  0.1838
14374TIP3    H164613   4.122   5.666   4.867  2.6603  1.3268  1.1036
14374TIP3    H264614   4.055   5.749   4.760  0.0332  0.7169  2.2568
14375TIP3   OH264615   4.609   4.229   3.740 -0.5345  0.4502  0.5886
14375TIP3    H164616   4.694   4.218   3.783 -1.1174  2.9576  2.4830
14375TIP3    H264617   4.627   4.286   3.666 -0.2972 -0.3593  0.0131
14376TIP3   OH264618   3.811   4.513   5.257  0.1860  0.0477 -0.1089
14376TIP3    H164619   3.730   4.552   5.224  1.3694  1.8856 -0.9678
14376TIP3    H264620   3.822   4.550   5.344 -0.0897 -0.4925  0.1554
14377TIP3   OH264621   4.365   5.804   3.701 -0.4638 -0.1364  0.3327
14377TIP3    H164622   4.302   5.811   3.629  1.1702 -1.2915 -1.2785
14377TIP3    H264623   4.342   5.722   3.745 -0.0971 -0.5625 -0.2603
14378TIP3   OH264624   6.335   6.376  11.018  0.1126 -0.1333 -0.3390
14378TIP3    H164625   6.369   6.448  10.964  0.8560 -2.3532 -2.9231
14378TIP3    H264626   6.244   6.368  10.993 -0.3768  0.8063  1.0340
14379TIP3   OH264627   1.097   3.445   4.306  0.2885 -0.7767 -0.4388
14379TIP3    H164628   1.143   3.363   4.324  1.3705 -0.1736 -0.3509
14379TIP3    H264629   1.161   3.498   4.258 -0.3698  0.0326 -0.4396
14380TIP3   OH264630   3.222   1.327   2.254  0.7178  0.9761  0.0834
14380TIP3    H164631   3.175   1.392   2.306 -0.0185  0.3534  0.1992
14380TIP3    H264632   3.159   1.299   2.188  0.3500 -1.1401  1.3104
14381TIP3   OH264633   1.687   3.083   4.790 -0.6507 -0.2775  0.3997
14381TIP3    H164634   1.629   3.007   4.793 -3.2735  1.6706 -0.2426
14381TIP3    H264635   1.710   3.092   4.698  0.0452 -0.5381  0.5407
14382TIP3   OH264636   2.244   1.342  15.849  0.3150  0.0927  0.6081
14382TIP3    H164637   2.272   1.432  15.866  1.7481 -0.4480  1.1927
14382TIP3    H264638   2.201   1.346  15.764  0.2102  1.3661  0.7131
14383TIP3   OH264639   2.787   2.755  16.803 -0.6089  0.1646 -0.2304
14383TIP3    H164640   2.756   2.738  16.892 -1.0680 -0.8942 -0.5859
14383TIP3    H264641   2.839   2.678  16.781  1.2825  1.3748 -0.0949
14384TIP3   OH264642   6.696   2.226  15.290 -0.0938  0.1572 -0.1051
14384TIP3    H164643   6.648   2.148  15.263  2.2099 -1.0759 -0.7606
14384TIP3    H264644   6.645   2.299  15.256 -0.7630 -1.1598 -1.9836
14385TIP3   OH264645   0.142   3.951  13.707 -0.0476  0.3796  0.0830
14385TIP3    H164646   0.196   4.016  13.663 -0.3829  1.0030  0.5830
14385TIP3    H264647   0.132   3.983  13.797 -0.8292  0.0257  0.1363
14386TIP3   OH264648   5.334   6.695   3.059  0.2850 -0.4819  0.2503
14386TIP3    H164649   5.365   6.642   3.132  0.8337 -0.3334  0.1246
14386TIP3    H264650   5.412   6.716   3.009  0.1025  0.6056  0.4033
14387TIP3   OH264651   0.207   6.448   2.176 -0.3878  0.2122 -0.2675
14387TIP3    H164652   0.261   6.485   2.246  0.4360  2.5661 -2.1010
14387TIP3    H264653   0.270   6.423   2.108 -1.5121  2.0707 -2.0169
14388TIP3   OH264654   2.355   6.377   0.028  0.0557 -0.3033 -0.4150
14388TIP3    H164655   2.386   6.410  -0.056 -0.1459 -0.5506 -0.5873
14388TIP3    H264656   2.432   6.382   0.086  0.2683 -0.4040 -0.6888
14389TIP3   OH264657   3.744   5.111   3.212  0.1537  0.5123  0.2954
14389TIP3    H164658   3.738   5.136   3.304  0.3407 -0.8821  0.6856
14389TIP3    H264659   3.724   5.018   3.210 -0.0465  0.5653 -1.1026
14390TIP3   OH264660   2.956   5.934  15.444  0.0534  0.1727  0.4660
14390TIP3    H164661   2.909   5.851  15.434 -0.9128  0.4837  2.3687
14390TIP3    H264662   2.887   6.001  15.441  0.8661  0.9628 -1.4852
14391TIP3   OH264663   3.896   5.176   2.743  0.0414 -0.6514  0.6983
14391TIP3    H164664   3.919   5.129   2.823 -0.9769 -1.1687  0.6950
14391TIP3    H264665   3.808   5.210   2.760 -0.1299 -0.6630 -0.1519
14392TIP3   OH264666   1.050   3.992  11.276  0.2279 -0.0544 -0.1377
14392TIP3    H164667   1.118   4.049  11.310 -2.3088  2.7984  0.3954
14392TIP3    H264668   0.994   4.051  11.225 -1.6851 -2.3527 -0.7563
14393TIP3   OH264669   6.118   3.907  16.011  0.5907 -0.0403 -0.4227
14393TIP3    H164670   6.098   3.862  16.093  0.2322 -0.2839 -0.6402
14393TIP3    H264671   6.049   3.973  16.003 -0.2110 -0.9498 -1.2282
14394TIP3   OH264672   0.442   5.567   6.379 -0.1791 -0.0496 -0.4291
14394TIP3    H164673   0.438   5.660   6.402 -2.8522 -0.0976 -0.5860
14394TIP3    H264674   0.507   5.562   6.309 -0.3950  1.7806 -0.7781
14395TIP3   OH264675   6.297   4.350   2.772  0.1580 -0.3377  0.1955
14395TIP3    H164676   6.387   4.362   2.801  0.4617 -1.9325 -0.0733
14395TIP3    H264677   6.263   4.280   2.827 -1.4162  1.2923  1.3438
14396TIP3   OH264678   2.680   4.838   2.230  0.0157 -0.0976  0.2853
14396TIP3    H164679   2.701   4.748   2.207 -0.9306 -0.6637  1.6122
14396TIP3    H264680   2.621   4.831   2.305  0.5943  1.6425  0.9292
14397TIP3   OH264681   6.117   4.653  14.174 -0.0664 -0.2197 -0.2576
14397TIP3    H164682   6.066   4.639  14.094  0.7468 -0.4861 -0.7444
14397TIP3    H264683   6.097   4.742  14.201 -1.5940 -0.6722  0.1477
14398TIP3   OH264684   0.409   5.452   2.393  0.1978  0.7096  0.2422
14398TIP3    H164685   0.482   5.509   2.416  0.1830  0.3207  1.2801
14398TIP3    H264686   0.331   5.506   2.405  0.2871  0.9868 -0.4253
14399TIP3   OH264687   1.295   0.732   1.277 -0.0931  0.0524  0.4153
14399TIP3    H164688   1.237   0.659   1.254  1.1647 -1.1670  1.0737
14399TIP3    H264689   1.346   0.747   1.197 -1.5899  1.4353 -0.3219
14400TIP3   OH264690   4.043   5.548  14.157  0.4976 -0.3811  0.3541
14400TIP3    H164691   4.020   5.626  14.206  1.9657 -0.8993  1.9216
14400TIP3    H264692   4.064   5.483  14.224  3.1180 -0.9186 -0.9272
14401TIP3   OH264693   6.597   5.970  11.335 -0.3071 -0.2467  0.0586
14401TIP3    H164694   6.688   5.982  11.306 -0.3338 -0.3317 -0.0626
14401TIP3    H264695   6.590   6.025  11.413  0.3169 -1.5268  1.0338
14402TIP3   OH264696   0.755   6.375  10.981  0.0291  0.0590  0.0480
14402TIP3    H164697   0.770   6.293  10.934 -0.2574  0.5701 -0.9553
14402TIP3    H264698   0.836   6.425  10.968 -0.2561  0.4167 -0.3424
14403TIP3   OH264699   1.749   1.748  15.965  0.1309  0.1837  0.6066
14403TIP3    H164700   1.732   1.663  16.006 -0.2511 -0.0359 -0.0057
14403TIP3    H264701   1.840   1.743  15.937 -0.2261 -0.4709 -0.4776
14404TIP3   OH264702   4.949   4.444  15.063 -0.3383  0.1139 -0.4948
14404TIP3    H164703   4.972   4.408  15.149 -1.3421 -0.0825 -0.3023
14404TIP3    H264704   4.895   4.521  15.083 -1.3059 -0.4405 -0.9542
14405TIP3   OH264705   0.733   0.694  16.386 -0.5216 -0.0503  0.2219
14405TIP3    H164706   0.704   0.653  16.304 -1.3937 -2.7182  1.7949
14405TIP3    H264707   0.826   0.712  16.372 -0.6404 -0.5574 -1.3124
14406TIP3   OH264708   0.647   4.315   2.527  0.0784  0.0199 -0.2805
14406TIP3    H164709   0.721   4.375   2.527 -0.1350  0.2892  1.3496
14406TIP3    H264710   0.667   4.253   2.457 -0.0658  2.3950 -2.4947
14407TIP3   OH264711   3.132   5.070   2.208 -0.4166 -0.3168  0.1118
14407TIP3    H164712   3.043   5.047   2.235  0.4516 -1.0302  2.4924
14407TIP3    H264713   3.174   4.987   2.187  0.0345 -0.0990  0.1361
14408TIP3   OH264714   1.433   5.073  12.496  0.3996  0.0050 -0.6440
14408TIP3    H164715   1.467   5.144  12.441  0.5301  0.4149 -0.0460
14408TIP3    H264716   1.338   5.074  12.480  0.0324  2.0819  1.3538
14409TIP3   OH264717   5.435   4.789   0.532 -0.0286  0.4311 -0.0671
14409TIP3    H164718   5.423   4.871   0.580  3.0744  0.5913  0.5286
14409TIP3    H264719   5.476   4.815   0.449  0.8368 -0.4724  0.0612
14410TIP3   OH264720   1.521   5.092  16.995 -0.3850 -0.0428 -0.0705
14410TIP3    H164721   1.425   5.095  16.993 -0.4578 -1.9537  0.2954
14410TIP3    H264722   1.547   5.182  17.016 -2.1165  0.3363  0.5028
14411TIP3   OH264723   3.647   6.299   5.732  0.1295  0.3436  0.0280
14411TIP3    H164724   3.554   6.301   5.753 -0.4777 -0.6656 -2.4574
14411TIP3    H264725   3.687   6.356   5.797 -2.3503  1.6452  0.4681
14412TIP3   OH264726   0.693   3.064   5.795 -1.0578  0.0129 -0.1955
14412TIP3    H164727   0.728   3.009   5.865  0.7161  0.5262 -0.6496
14412TIP3    H264728   0.717   3.019   5.714  0.1120  1.2455 -0.5596
14413TIP3   OH264729   1.968   0.256  14.280  0.0319 -0.3495  0.0856
14413TIP3    H164730   1.975   0.340  14.327 -1.4967 -1.0199  1.5486
14413TIP3    H264731   2.047   0.209  14.304 -0.2980 -0.3162  1.2698
14414TIP3   OH264732   4.155   2.299  15.604 -0.2337  0.7495  0.4888
14414TIP3    H164733   4.227   2.316  15.665 -0.7190  1.9744  0.7311
14414TIP3    H264734   4.195   2.246  15.535  0.3843 -0.4002  1.7075
14415TIP3   OH264735   0.854   2.122  10.818 -0.2776  0.2370  0.1948
14415TIP3    H164736   0.763   2.106  10.795  0.0397 -0.7424 -0.4416
14415TIP3    H264737   0.897   2.139  10.734  0.3753 -0.6701  0.3261
14416TIP3   OH264738   5.801   5.993   5.549  0.0575 -1.1317 -0.1721
14416TIP3    H164739   5.825   5.912   5.504 -1.3990 -1.0505 -1.1267
14416TIP3    H264740   5.706   5.999   5.538 -0.2488 -0.8002  2.4175
14417TIP3   OH264741   4.018   0.975   3.703 -0.2571  0.1997  0.0750
14417TIP3    H164742   3.923   0.981   3.695 -0.2495 -1.1424 -1.4317
14417TIP3    H264743   4.046   0.935   3.621  1.8651  2.7656 -0.5193
14418TIP3   OH264744   3.069   6.743   3.170  0.2577 -0.0611 -0.5612
14418TIP3    H164745   3.121   6.800   3.227  1.3719 -0.6610 -0.9743
14418TIP3    H264746   3.128   6.718   3.100 -0.7084 -0.4464 -1.2481
14419TIP3   OH264747   6.588   0.670  12.789  0.1226  0.1414  0.1748
14419TIP3    H164748   6.602   0.718  12.708 -0.0144 -1.2895 -0.7183
14419TIP3    H264749   6.660   0.698  12.846  0.5696  0.7042 -0.6447
14420TIP3   OH264750   5.766   0.526   0.717  0.4678  0.0004 -0.8989
14420TIP3    H164751   5.732   0.439   0.738  2.7435 -0.6203  0.3450
14420TIP3    H264752   5.826   0.511   0.644  1.6444  0.3504 -0.0169
14421TIP3   OH264753   5.365   4.875  11.462  0.1844 -0.0656 -0.4757
14421TIP3    H164754   5.423   4.800  11.449 -1.2354 -1.4112  0.7188
14421TIP3    H264755   5.419   4.940  11.508  1.3441 -0.4582 -1.2646
14422TIP3   OH264756   0.112   4.405  17.016  0.0167 -0.4457 -0.2179
14422TIP3    H164757   0.166   4.466  17.066 -0.6618  1.0897 -1.3170
14422TIP3    H264758   0.062   4.357  17.082 -1.1581  1.8219  0.5843
14423TIP3   OH264759   1.665   3.633  13.632  0.1037 -0.0426  0.4895
14423TIP3    H164760   1.622   3.682  13.561  1.5316  1.0487  0.3576
14423TIP3    H264761   1.596   3.619  13.697 -1.1155 -0.6777 -0.9119
14424TIP3   OH264762   2.046   5.531   2.047 -0.0331 -0.5879  0.1427
14424TIP3    H164763   1.990   5.542   1.970 -0.7878 -2.5893  0.3702
14424TIP3    H264764   2.116   5.595   2.036  0.7663 -1.9222 -3.0222
14425TIP3   OH264765   6.080   0.384   5.162 -0.2610 -0.4363 -0.3830
14425TIP3    H164766   6.131   0.321   5.110  1.6771  0.8287 -0.0720
14425TIP3    H264767   6.013   0.416   5.102  0.9754 -0.1628 -1.6434
14426TIP3   OH264768   0.938   3.259   1.948  0.3952 -0.0333  0.4048
14426TIP3    H164769   0.960   3.229   2.036  1.5803  1.5000  0.6575
14426TIP3    H264770   0.901   3.346   1.961  0.4713  0.1561 -0.5924
14427TIP3   OH264771   5.689   5.830  12.651 -0.2357 -0.4134  0.3833
14427TIP3    H164772   5.676   5.735  12.653 -0.8342 -0.3499 -0.2072
14427TIP3    H264773   5.620   5.864  12.709 -1.4513 -0.2043 -1.1455
14428TIP3   OH264774   5.390   4.634   2.404 -0.2832  0.6944 -0.3416
14428TIP3    H164775   5.470   4.584   2.422  0.3123  0.7162 -2.6690
14428TIP3    H264776   5.375   4.685   2.483  1.7461  0.3324  0.3216
14429TIP3   OH264777   5.215   5.625  13.473 -0.1702  0.2252 -1.1017
14429TIP3    H164778   5.141   5.652  13.528  0.5698  0.9480 -0.4570
14429TIP3    H264779   5.211   5.685  13.398 -0.4080  0.0703 -1.2156
14430TIP3   OH264780   0.321   5.678   2.629 -0.4256  0.0063 -0.5235
14430TIP3    H164781   0.322   5.728   2.711 -0.4634 -1.4044  0.3418
14430TIP3    H264782   0.241   5.708   2.584 -0.7701  0.2834  0.2689
14431TIP3   OH264783   4.506   5.272  11.981 -0.1682 -0.3876  0.3063
14431TIP3    H164784   4.469   5.321  12.054  0.9855  1.0963 -0.0875
14431TIP3    H264785   4.467   5.312  11.903  0.9694  0.0728 -0.0305
14432TIP3   OH264786   5.543   0.900  13.115 -0.0186 -0.0025 -0.2032
14432TIP3    H164787   5.481   0.973  13.113  2.7102  2.3681 -1.3065
14432TIP3    H264788   5.530   0.856  13.031 -0.8668 -0.0911 -0.0307
14433TIP3   OH264789   2.061   5.978  10.859 -0.1817  0.1395  0.1125
14433TIP3    H164790   2.045   6.070  10.879  1.2964  0.0727  1.7758
14433TIP3    H264791   1.986   5.932  10.894 -0.5125  0.6314  0.0550
14434TIP3   OH264792   2.016   4.090  15.432 -0.5044  0.2065  0.2465
14434TIP3    H164793   2.031   4.106  15.525  0.6063  0.4746  0.0275
14434TIP3    H264794   2.038   3.998  15.419  1.2993  0.6698 -0.1290
14435TIP3   OH264795   3.723   3.672  14.378 -0.3326 -0.4047  0.0037
14435TIP3    H164796   3.761   3.754  14.409 -0.0112 -0.7404  0.5136
14435TIP3    H264797   3.630   3.679  14.400 -0.3317 -0.1143 -0.0862
14436TIP3   OH264798   2.822   0.518   3.547 -0.0149  0.1778  0.2340
14436TIP3    H164799   2.765   0.447   3.579  2.1574 -1.1256  1.3366
14436TIP3    H264800   2.797   0.594   3.599 -2.7705  0.4276 -1.3554
14437TIP3   OH264801   2.717   0.593  13.561  0.1770  0.1541  0.3356
14437TIP3    H164802   2.808   0.575  13.587 -0.8936 -1.9972  2.8713
14437TIP3    H264803   2.686   0.656  13.626  0.0037  1.3537 -0.8853
14438TIP3   OH264804   4.026   3.235  12.578  0.1856  0.4936 -0.3525
14438TIP3    H164805   3.990   3.146  12.572 -0.2562  0.7084 -0.9806
14438TIP3    H264806   3.988   3.271  12.658  0.8064 -0.0833  0.1968
14439TIP3   OH264807   4.178   6.372   2.182 -0.3421 -0.0245 -0.0137
14439TIP3    H164808   4.086   6.385   2.160 -0.9003 -0.8126  1.7614
14439TIP3    H264809   4.177   6.305   2.251  1.7582 -2.3771 -2.1464
14440TIP3   OH264810   4.861   6.044  16.481  0.2973 -0.7891  0.3084
14440TIP3    H164811   4.836   5.991  16.556 -0.9141  0.6331  0.9344
14440TIP3    H264812   4.809   6.010  16.408  0.4253 -1.2398  0.4247
14441TIP3   OH264813   4.604   5.686  16.010 -0.1347 -0.4143  0.2864
14441TIP3    H164814   4.597   5.648  15.923  1.0071 -0.2815  0.1244
14441TIP3    H264815   4.579   5.777  15.999  1.1836 -0.0910 -0.1563
14442TIP3   OH264816   0.216   4.542   0.084  0.1878 -0.5055 -0.0898
14442TIP3    H164817   0.247   4.613   0.140 -1.2879 -0.3495  0.5653
14442TIP3    H264818   0.290   4.521   0.027  1.3984 -0.0327  1.2932
14443TIP3   OH264819   0.726   2.889   1.332  1.0447  0.0536 -0.4040
14443TIP3    H164820   0.797   2.919   1.275  0.4748  0.3731 -0.9535
14443TIP3    H264821   0.765   2.885   1.420  2.0018 -0.7023 -0.8558
14444TIP3   OH264822   1.190   1.667   4.164  0.0838  0.3553  0.6616
14444TIP3    H164823   1.097   1.674   4.142 -0.5370  0.6949  3.1279
14444TIP3    H264824   1.206   1.573   4.172  0.0442  0.2803 -0.1415
14445TIP3   OH264825   5.639   2.766  13.633 -0.7206 -0.2478 -0.3025
14445TIP3    H164826   5.627   2.776  13.538  0.6460  2.1681 -0.2722
14445TIP3    H264827   5.686   2.846  13.659  0.3977 -1.6539  2.1358
14446TIP3   OH264828   0.118   4.566   4.626  0.7210 -0.2048 -0.1648
14446TIP3    H164829   0.084   4.511   4.555  0.2596  1.2805 -1.1158
14446TIP3    H264830   0.211   4.543   4.631  0.9323  0.2270 -1.7882
14447TIP3   OH264831   1.984   4.491   1.957 -0.0292 -0.1527  0.2824
14447TIP3    H164832   1.930   4.553   2.006  1.9796 -0.0979  2.4774
14447TIP3    H264833   2.066   4.537   1.941  0.7804 -1.5805  0.2825
14448TIP3   OH264834   2.280   5.250  17.016 -0.0845 -0.1896  0.7134
14448TIP3    H164835   2.262   5.279  17.105 -2.7935 -0.3615  0.2585
14448TIP3    H264836   2.320   5.164  17.027 -1.1249 -0.5514  1.7559
14449TIP3   OH264837   6.344   3.656  13.350 -0.0326  0.0875 -0.8838
14449TIP3    H164838   6.391   3.612  13.422 -0.6563 -2.1130 -1.7945
14449TIP3    H264839   6.412   3.706  13.305  1.0527 -1.3501 -0.8839
14450TIP3   OH264840   0.013   3.548  15.447 -0.3277  0.5805 -0.8259
14450TIP3    H164841  -0.053   3.479  15.445  0.9048 -0.6935  0.6343
14450TIP3    H264842  -0.034   3.627  15.474 -1.2918 -0.2611 -0.0332
14451TIP3   OH264843   2.201   3.202  12.855  0.0295 -0.1908 -0.2960
14451TIP3    H164844   2.122   3.253  12.873 -0.3413 -1.2101  0.9621
14451TIP3    H264845   2.253   3.259  12.798 -1.9830  0.1492 -1.8534
14452TIP3   OH264846   4.697   6.156  11.044 -0.3668  0.1779 -0.2979
14452TIP3    H164847   4.771   6.215  11.034 -0.8183  0.6001 -1.2374
14452TIP3    H264848   4.660   6.149  10.956 -1.1484 -0.4083  0.0691
14453TIP3   OH264849   4.369   3.803   3.775  0.0707 -0.0362 -0.3345
14453TIP3    H164850   4.300   3.836   3.719  0.9486  0.3133 -1.2204
14453TIP3    H264851   4.342   3.827   3.864 -0.5753  0.7459 -0.7458
14454TIP3   OH264852   1.402   3.740  16.142  0.4360  0.0957  0.1628
14454TIP3    H164853   1.396   3.824  16.188 -0.7440  0.5776 -0.8377
14454TIP3    H264854   1.474   3.751  16.080  0.9685  0.0055  0.7641
14455TIP3   OH264855   3.965   6.799   5.919 -0.2004 -0.3457 -0.4051
14455TIP3    H164856   3.943   6.766   6.006 -0.8647 -2.2372 -1.2693
14455TIP3    H264857   3.884   6.836   5.885  0.1913  0.8826 -0.0073
14456TIP3   OH264858   4.900   0.443   2.805  0.3089  0.2137  0.7037
14456TIP3    H164859   4.885   0.515   2.744 -0.1203  2.0181  2.8641
14456TIP3    H264860   4.995   0.439   2.815  0.2544  1.5128  1.7664
14457TIP3   OH264861   2.689   6.134  12.175  0.1139  0.6568 -0.4775
14457TIP3    H164862   2.683   6.153  12.269  0.7991  0.6234 -0.4263
14457TIP3    H264863   2.602   6.098  12.153  0.4186 -0.7376  0.4697
14458TIP3   OH264864   2.602   3.192  14.457 -0.0205  0.8303  0.3388
14458TIP3    H164865   2.608   3.280  14.493  2.5764 -0.4034  3.1007
14458TIP3    H264866   2.642   3.199  14.370  0.5067  2.2811  0.6830
14459TIP3   OH264867   6.805   5.310   2.142 -0.0861 -0.0796 -0.2542
14459TIP3    H164868   6.790   5.315   2.236 -1.2264  1.8439 -0.5106
14459TIP3    H264869   6.743   5.244   2.111  0.0996 -0.5172  0.3025
14460TIP3   OH264870   4.069   0.659   1.884 -0.4544 -0.1864  0.4597
14460TIP3    H164871   4.023   0.738   1.855  0.3412 -0.2707 -1.0907
14460TIP3    H264872   4.016   0.587   1.851 -0.1825 -0.2852  0.2337
14461TIP3   OH264873   1.011   4.279   4.168 -0.4275  0.4842 -0.1817
14461TIP3    H164874   1.101   4.305   4.189 -1.0444  2.1183  0.5076
14461TIP3    H264875   0.958   4.356   4.189 -2.2569 -1.1718  1.4031
14462TIP3   OH264876   1.048   1.207   3.555 -0.0153  0.1921 -0.3236
14462TIP3    H164877   1.047   1.300   3.532 -0.3897  0.0259 -0.9911
14462TIP3    H264878   1.015   1.163   3.477 -2.5010 -0.2740  0.9564
14463TIP3   OH264879   1.936   6.717   4.125  0.1203  0.0597 -0.5831
14463TIP3    H164880   1.916   6.780   4.056 -0.7201 -0.9536 -1.2720
14463TIP3    H264881   1.896   6.635   4.096 -0.1406 -0.4113  1.0361
14464TIP3   OH264882   5.168   2.258  16.575  0.8592 -0.2104 -0.3853
14464TIP3    H164883   5.107   2.313  16.623  1.4903 -0.3485  0.6060
14464TIP3    H264884   5.209   2.316  16.512 -0.4372 -0.1652 -1.1968
14465TIP3   OH264885   1.326   1.245  14.130 -0.1593  0.1644  0.0824
14465TIP3    H164886   1.296   1.286  14.049  0.2205 -0.4374 -0.3713
14465TIP3    H264887   1.278   1.291  14.199 -1.4036 -0.1328 -0.5644
14466TIP3   OH264888   4.054   3.786  11.138 -0.0769  0.0391  0.1690
14466TIP3    H164889   3.966   3.748  11.144  0.4473 -0.9820  1.9828
14466TIP3    H264890   4.097   3.737  11.068 -0.2752 -0.9331  0.7091
14467TIP3   OH264891   1.434   5.497  11.489  0.1299 -0.2247 -0.1853
14467TIP3    H164892   1.397   5.513  11.575  0.6858  2.0198 -0.3272
14467TIP3    H264893   1.463   5.405  11.491  2.2132  0.4319  2.8014
14468TIP3   OH264894   3.934   3.492  15.214  0.4422 -0.7511 -0.2056
14468TIP3    H164895   3.881   3.444  15.277  0.1906 -0.6427 -0.3343
14468TIP3    H264896   3.881   3.568  15.190  0.2479 -1.1577 -1.0647
14469TIP3   OH264897   2.683   1.991   2.228  0.1766  0.0086  0.0110
14469TIP3    H164898   2.650   1.937   2.157  0.4907  0.7187 -0.6864
14469TIP3    H264899   2.753   2.043   2.188 -0.0602  0.8560  0.6853
14470TIP3   OH264900   4.420   6.808   3.918 -0.0349 -0.2577  0.1296
14470TIP3    H164901   4.404   6.756   3.996 -0.4837  0.1683  0.3261
14470TIP3    H264902   4.512   6.834   3.923 -0.4750  1.1280  1.3469
14471TIP3   OH264903   5.720   2.496   2.317 -0.2846  0.2062  0.3874
14471TIP3    H164904   5.788   2.535   2.261  0.8173 -1.6843  0.3583
14471TIP3    H264905   5.746   2.520   2.406  0.2957 -0.3181  0.3618
14472TIP3   OH264906   2.398   4.593  11.800  0.3334  0.2244  0.2347
14472TIP3    H164907   2.442   4.673  11.830 -1.6443  1.6017 -0.4383
14472TIP3    H264908   2.316   4.590  11.850 -1.5348  0.8774 -2.7057
14473TIP3   OH264909   3.358   3.028  11.694 -0.5227  1.0064  0.0425
14473TIP3    H164910   3.304   3.036  11.772 -0.4678  0.1771  0.1684
14473TIP3    H264911   3.448   3.040  11.725 -0.5273  1.0212  0.0503
14474TIP3   OH264912   2.391   3.313  15.707  0.5530  0.5005  0.5952
14474TIP3    H164913   2.299   3.303  15.683  0.7464  1.7891 -0.7736
14474TIP3    H264914   2.436   3.246  15.656  0.1645 -1.6428  2.9537
14475TIP3   OH264915   6.425   4.830   3.820  0.1990  0.1423 -0.5568
14475TIP3    H164916   6.358   4.796   3.879  2.0500 -0.7971  1.0654
14475TIP3    H264917   6.448   4.756   3.765  1.4337 -0.1629  0.3486
14476TIP3   OH264918   1.750   5.454  13.696  0.2041 -0.1067 -0.3828
14476TIP3    H164919   1.697   5.444  13.775 -0.2858  1.9449 -0.4063
14476TIP3    H264920   1.743   5.370  13.651  3.2919 -2.5754  3.3935
14477TIP3   OH264921   1.394   5.760  16.201  0.5050  0.1110  0.5241
14477TIP3    H164922   1.371   5.684  16.146 -0.0805  0.5607  0.1439
14477TIP3    H264923   1.483   5.742  16.230  1.1539  0.2865 -1.3121
14478TIP3   OH264924   2.733   2.011  15.731 -0.5563 -0.2048  0.5452
14478TIP3    H164925   2.733   2.105  15.749 -0.3696 -0.4107  1.6705
14478TIP3    H264926   2.714   1.971  15.816 -0.9790 -1.1683 -0.0055
14479TIP3   OH264927   3.807   4.984   5.205 -0.1260 -0.1788 -0.0546
14479TIP3    H164928   3.888   5.008   5.251 -0.2662 -0.9234  0.5868
14479TIP3    H264929   3.740   4.984   5.273 -1.0257  2.1438 -0.8844
14480TIP3   OH264930   1.342   6.356   1.766 -0.2429  0.0344  0.0321
14480TIP3    H164931   1.417   6.416   1.762  0.4680 -0.9286 -1.6852
14480TIP3    H264932   1.270   6.410   1.800  0.9296  1.2693  0.6189
14481TIP3   OH264933   6.400   3.054   4.070 -0.2385  0.4068  0.3271
14481TIP3    H164934   6.452   3.133   4.054 -2.4036  2.0245  0.9636
14481TIP3    H264935   6.447   3.008   4.139  2.1880  0.0231 -1.5139
14482TIP3   OH264936   6.268   5.234   0.387 -0.3411  0.5940 -0.9297
14482TIP3    H164937   6.237   5.250   0.298 -0.4665 -0.1504 -1.0266
14482TIP3    H264938   6.237   5.145   0.408  2.1081 -0.3689 -1.2009
14483TIP3   OH264939   3.120   1.939  12.261 -0.1350  0.1670  0.0287
14483TIP3    H164940   3.183   1.938  12.189 -1.1317  0.3822 -0.8679
14483TIP3    H264941   3.118   1.848  12.292  0.1500  0.0282 -0.3501
14484TIP3   OH264942   6.035   3.371   5.273  0.1746 -0.3446 -0.4474
14484TIP3    H164943   6.064   3.450   5.229 -1.5723  0.0927 -0.8725
14484TIP3    H264944   5.962   3.339   5.219  0.0905 -1.5774  0.3644
14485TIP3   OH264945   4.202   1.462  11.567  0.1004 -0.2683 -0.3641
14485TIP3    H164946   4.108   1.473  11.582  0.2095  1.5276 -0.8356
14485TIP3    H264947   4.210   1.375  11.528 -1.0189 -1.6690  2.3872
14486TIP3   OH264948   5.277   1.554  13.829 -0.4524 -0.7302  0.4844
14486TIP3    H164949   5.313   1.605  13.901  1.7989 -1.7481  0.1089
14486TIP3    H264950   5.330   1.475  13.826 -1.4940 -1.3993 -1.3162
14487TIP3   OH264951   2.037   3.721  11.860 -0.2922 -0.1853 -0.5109
14487TIP3    H164952   2.013   3.681  11.777 -0.4020  0.3356 -0.7361
14487TIP3    H264953   1.959   3.769  11.887 -0.9949 -2.1356  0.9904
14488TIP3   OH264954   5.934   0.011  15.802 -0.7745  0.1565  0.0124
14488TIP3    H164955   5.864  -0.041  15.840  0.2184  0.4489  2.3086
14488TIP3    H264956   5.987  -0.052  15.753 -1.0510 -0.5475  0.6123
14489TIP3   OH264957   0.754   2.802  11.530 -0.2215  0.0485  0.3709
14489TIP3    H164958   0.791   2.878  11.486  0.6210  0.2957  1.4783
14489TIP3    H264959   0.700   2.839  11.600  1.5151 -0.3773  1.9607
14490TIP3   OH264960   0.653   1.106   5.666  0.1485 -0.2156 -0.2656
14490TIP3    H164961   0.658   1.034   5.603  2.2950 -1.7843  1.6413
14490TIP3    H264962   0.675   1.067   5.750 -0.7074  2.2579  1.1791
14491TIP3   OH264963   4.952   1.417   4.972  0.3767  0.5717  0.2021
14491TIP3    H164964   4.908   1.366   4.904 -1.1050 -1.4366  2.5870
14491TIP3    H264965   5.043   1.389   4.968 -0.5299 -2.8879  1.9052
14492TIP3   OH264966   2.794   0.926   2.635  0.3883  0.0989  0.0175
14492TIP3    H164967   2.866   0.893   2.582  0.5640  0.9849 -0.3000
14492TIP3    H264968   2.826   0.921   2.725  0.6961  0.1134 -0.0905
14493TIP3   OH264969   3.894   4.043   3.065  0.5598 -0.3503 -0.4381
14493TIP3    H164970   3.934   4.130   3.070  0.8390 -0.4989 -0.0687
14493TIP3    H264971   3.967   3.984   3.049  0.4773 -0.6068  0.1205
14494TIP3   OH264972   3.708   3.962  14.940 -0.5910  0.4359 -0.4461
14494TIP3    H164973   3.631   3.960  14.997  0.1285  0.9619  0.5600
14494TIP3    H264974   3.703   4.046  14.895 -1.0365  0.1198 -0.9930
14495TIP3   OH264975   1.324   4.024  15.959  0.4714 -0.0016 -0.0977
14495TIP3    H164976   1.234   4.055  15.953  0.6536  0.3626 -0.9910
14495TIP3    H264977   1.367   4.086  16.017  1.1349  2.1754 -2.8211
14496TIP3   OH264978   2.531   5.378   1.268 -0.4146  0.3479  0.2013
14496TIP3    H164979   2.459   5.340   1.218 -1.0987  0.6076  0.9907
14496TIP3    H264980   2.505   5.469   1.282  1.4735  1.3222 -2.1974
14497TIP3   OH264981   3.137   0.708   0.887  0.6263  0.6629  0.0120
14497TIP3    H164982   3.090   0.742   0.963 -1.4689 -3.3622  0.6610
14497TIP3    H264983   3.145   0.614   0.904 -0.0195 -0.3793 -4.7502
14498TIP3   OH264984   1.176   1.849   3.843  0.3711  0.3524 -0.0580
14498TIP3    H164985   1.146   1.921   3.898  0.5891  0.4479 -0.0646
14498TIP3    H264986   1.142   1.770   3.885  0.1757  0.4560 -0.0225
14499TIP3   OH264987   0.371   4.384  14.578  0.2805 -0.4560 -0.5061
14499TIP3    H164988   0.302   4.350  14.521 -1.3189  1.8781 -0.0661
14499TIP3    H264989   0.334   4.377  14.666  0.9456  0.0313 -0.1895
14500TIP3   OH264990   4.028   2.484  12.452  0.7954  0.6301 -0.5719
14500TIP3    H164991   4.062   2.506  12.539  0.3998  0.1186 -0.2924
14500TIP3    H264992   4.066   2.399  12.431  0.6981  0.6411 -0.8018
14501TIP3   OH264993   1.404   2.757  15.936  0.3917 -0.0861  0.0563
14501TIP3    H164994   1.325   2.806  15.917  1.1121  0.8368 -0.5689
14501TIP3    H264995   1.388   2.670  15.898  0.0755  0.3906 -0.9011
14502TIP3   OH264996   0.516   1.867  16.134  0.0227  0.1865 -0.6032
14502TIP3    H164997   0.471   1.893  16.215 -1.3449 -0.2044 -1.2274
14502TIP3    H264998   0.587   1.810  16.164 -0.3852  0.1573  0.3327
14503TIP3   OH264999   1.423   4.011   3.057  0.2689 -1.1003 -0.3342
14503TIP3    H165000   1.497   3.982   3.004 -1.6215 -2.5095 -2.2871
14503TIP3    H265001   1.357   3.943   3.045 -1.0589 -0.3020  2.0624
14504TIP3   OH265002   5.788   6.529   6.103 -0.1332  0.2971  0.2792
14504TIP3    H165003   5.698   6.559   6.091 -0.7794 -1.6406  0.2202
14504TIP3    H265004   5.842   6.606   6.084 -1.7980  1.6883  1.1092
14505TIP3   OH265005   0.664   4.070  11.871  0.1412 -0.9745  0.8121
14505TIP3    H165006   0.591   4.129  11.853  1.6580  1.0046  0.9778
14505TIP3    H265007   0.624   3.996  11.918 -1.5146  0.7923  2.2928
14506TIP3   OH265008   5.297   2.427   0.708 -0.3366  0.8673 -0.0565
14506TIP3    H165009   5.202   2.437   0.706 -0.3788  0.6580  0.6804
14506TIP3    H265010   5.327   2.494   0.770 -0.3245 -1.2744  2.3720
14507TIP3   OH265011   6.791   1.066  15.342  0.0761  0.5816  0.1513
14507TIP3    H165012   6.849   1.124  15.390 -0.5892  1.9051 -0.6140
14507TIP3    H265013   6.704   1.104  15.354 -0.6206 -1.2060  1.0454
14508TIP3   OH265014   3.595   6.723  15.296  0.0447  0.3988  0.1461
14508TIP3    H165015   3.516   6.691  15.251  0.1313  1.0906 -0.4983
14508TIP3    H265016   3.654   6.648  15.297  0.3113  0.5674 -1.5147
14509TIP3   OH265017   1.022   2.611  13.238 -0.0132  0.1335  0.5556
14509TIP3    H165018   0.997   2.563  13.317  1.0887 -0.8208  0.3413
14509TIP3    H265019   1.115   2.591  13.227 -0.2974 -0.1925 -1.3119
14510TIP3   OH265020   5.617   1.895   3.366 -0.5717 -0.2975  0.1528
14510TIP3    H165021   5.559   1.939   3.427 -0.6484 -0.0923 -0.0644
14510TIP3    H265022   5.692   1.953   3.357 -0.0369 -0.8666  0.9264
14511TIP3   OH265023   0.495   4.965  11.290 -0.4310  0.4655 -0.4475
14511TIP3    H165024   0.444   4.886  11.273  1.0213 -0.1028 -2.4188
14511TIP3    H265025   0.463   4.998  11.374 -1.2500 -2.0508  0.2562
14512TIP3   OH265026   3.534   2.234   0.023  0.0480 -0.3589  0.4724
14512TIP3    H165027   3.444   2.263   0.030  0.2440  0.6507 -0.9181
14512TIP3    H265028   3.565   2.270  -0.060  2.0632  0.2499  1.4444
14513TIP3   OH265029   5.483   2.192   3.379 -0.3446 -0.0779  0.3705
14513TIP3    H165030   5.573   2.160   3.384 -0.6333 -0.8658  0.7617
14513TIP3    H265031   5.477   2.258   3.448 -0.4582 -1.0699  1.3458
14514TIP3   OH265032   1.799   0.345  13.803 -0.2651 -0.1083  0.4239
14514TIP3    H165033   1.880   0.343  13.753 -0.2648  0.1808  0.4164
14514TIP3    H265034   1.774   0.437  13.807 -1.7306 -0.3997 -1.4020
14515TIP3   OH265035   1.240   4.849   0.402  0.0924  0.4084 -0.0180
14515TIP3    H165036   1.161   4.825   0.450  0.7552  2.2354  2.0628
14515TIP3    H265037   1.283   4.765   0.382 -1.6029 -0.5079  0.1143
14516TIP3   OH265038   2.399   1.283  15.588 -0.2427  0.0344 -0.2148
14516TIP3    H165039   2.347   1.204  15.573 -0.4733 -0.3776  2.4378
14516TIP3    H265040   2.490   1.253  15.586 -0.3678 -0.5921  2.1044
14517TIP3   OH265041   6.383   0.272   5.059  0.1084  0.3952  0.4801
14517TIP3    H165042   6.420   0.241   4.977 -0.3070 -1.1462  0.8636
14517TIP3    H265043   6.323   0.203   5.086  1.4921  0.1015  2.9344
14518TIP3   OH265044   6.365   0.499   1.767  0.2817  0.3189 -0.6501
14518TIP3    H165045   6.287   0.461   1.807 -0.0083  1.3964 -0.1621
14518TIP3    H265046   6.343   0.509   1.675  1.3990 -3.3395 -1.4089
14519TIP3   OH265047   0.281   0.842  11.642  0.0979 -0.0209 -0.5764
14519TIP3    H165048   0.342   0.904  11.603  1.3183 -0.6295  0.3338
14519TIP3    H265049   0.222   0.817  11.570  1.0605  0.3937 -1.5114
14520TIP3   OH265050   4.546   0.315  11.327 -0.1489 -0.0395 -0.9618
14520TIP3    H165051   4.489   0.344  11.256  0.8633  1.9336 -1.0178
14520TIP3    H265052   4.625   0.282  11.283  0.7456  1.7768 -0.7826
14521TIP3   OH265053   6.604   5.272  11.426  0.0577 -0.9622 -0.1174
14521TIP3    H165054   6.584   5.213  11.353 -0.2027 -1.8229  0.6392
14521TIP3    H265055   6.614   5.214  11.501  1.3080 -0.1699  0.3427
14522TIP3   OH265056   0.389   5.937   1.675  0.0004  0.1127 -0.1903
14522TIP3    H165057   0.408   5.991   1.599  0.4245 -0.5768 -0.5840
14522TIP3    H265058   0.405   5.847   1.646 -0.1833 -0.1886  0.6027
14523TIP3   OH265059   3.841   6.504  14.649 -0.0660  0.2802 -0.2945
14523TIP3    H165060   3.888   6.454  14.582  1.1471  1.1247 -0.1083
14523TIP3    H265061   3.751   6.472  14.645  0.4429 -1.1264 -0.9217
14524TIP3   OH265062   2.906   2.746   5.661  0.0510  0.2652 -0.3432
14524TIP3    H165063   2.955   2.686   5.604 -0.2182 -1.0979  0.8195
14524TIP3    H265064   2.874   2.814   5.602  2.1970  0.4511 -1.3527
14525TIP3   OH265065   2.666   3.498   5.817 -0.5697  0.1564 -0.2484
14525TIP3    H165066   2.685   3.419   5.867  0.7186  0.8300  0.3334
14525TIP3    H265067   2.571   3.495   5.803 -0.4780 -1.7203 -0.6249
14526TIP3   OH265068   3.006   0.685  16.402  0.3563  0.1506 -0.3821
14526TIP3    H165069   2.954   0.667  16.481 -0.4253  1.1486 -0.6511
14526TIP3    H265070   3.028   0.778  16.409 -0.7514  0.5439 -1.9346
14527TIP3   OH265071   6.716   2.181   5.574 -0.5110  0.0562 -0.1339
14527TIP3    H165072   6.659   2.151   5.503 -0.7666 -1.2953  0.6236
14527TIP3    H265073   6.794   2.126   5.567 -0.3507  0.2186  0.3589
14528TIP3   OH265074   5.818   5.252   5.795  0.0110 -0.8881  0.4382
14528TIP3    H165075   5.773   5.172   5.767  0.4699 -0.6404 -1.0822
14528TIP3    H265076   5.905   5.223   5.822  0.7110 -0.7528 -1.5531
14529TIP3   OH265077   1.900   2.646  14.352  0.0702 -0.2378  0.3746
14529TIP3    H165078   1.870   2.636  14.442 -0.7649  0.2673  0.1617
14529TIP3    H265079   1.844   2.586  14.301  0.7710 -0.7817  0.2369
14530TIP3   OH265080   3.356   6.257   2.105 -0.0724 -0.1037 -0.2600
14530TIP3    H165081   3.385   6.166   2.113  0.6284 -0.0025 -1.5550
14530TIP3    H265082   3.264   6.251   2.081  0.1877 -0.4949 -1.1951
14531TIP3   OH265083   6.644   0.595   5.133  0.2822 -0.4633 -0.4134
14531TIP3    H165084   6.695   0.576   5.211  2.0417 -0.0495 -1.4333
14531TIP3    H265085   6.640   0.512   5.085  1.7781 -0.0238 -1.3324
14532TIP3   OH265086   6.288   2.729   4.066  0.3653  0.9471  0.0054
14532TIP3    H165087   6.309   2.638   4.047  1.5501  1.4269 -1.0401
14532TIP3    H265088   6.246   2.761   3.985 -0.2594  1.2662  0.4495
14533TIP3   OH265089   1.174   2.927   4.408  0.0575  0.2963  0.6205
14533TIP3    H165090   1.235   2.912   4.336 -0.0196 -0.5189  0.7278
14533TIP3    H265091   1.093   2.885   4.381  0.1999 -0.5155  1.4261
14534TIP3   OH265092   2.706   4.436   3.601  0.7218 -0.1117 -0.3775
14534TIP3    H165093   2.799   4.434   3.578  0.6466  1.7081 -0.8736
14534TIP3    H265094   2.660   4.421   3.518  0.5362  1.8055 -0.6426
14535TIP3   OH265095   5.475   4.392  12.961 -0.3554  0.9214  0.2718
14535TIP3    H165096   5.530   4.426  12.891  0.2615  0.5301  0.5644
14535TIP3    H265097   5.464   4.466  13.021  1.1876  0.5523  1.0310
14536TIP3   OH265098   0.757   4.547   0.792 -0.3422  0.3767 -0.0115
14536TIP3    H165099   0.817   4.517   0.724 -1.6079 -0.8152 -0.6247
14536TIP3    H265100   0.693   4.600   0.746 -0.3167  0.8664  0.5045
14537TIP3   OH265101   3.654   2.258   5.884 -0.4716  0.6221  0.0932
14537TIP3    H165102   3.595   2.202   5.833 -2.6803  0.9653  2.2171
14537TIP3    H265103   3.697   2.198   5.945  0.2085  0.6370 -0.3594
14538TIP3   OH265104   4.147   5.921   2.858 -0.8092 -0.1422 -0.6671
14538TIP3    H165105   4.112   5.844   2.903  1.3927  0.2409  1.8640
14538TIP3    H265106   4.077   5.986   2.861 -1.7585 -1.1691 -0.5230
14539TIP3   OH265107   5.565   6.234  13.464  0.2382  0.2106  0.4710
14539TIP3    H165108   5.589   6.158  13.411  2.1210  0.8358  0.3879
14539TIP3    H265109   5.530   6.297  13.400  1.8237  0.6820  0.0297
14540TIP3   OH265110   5.090   3.780   4.233  0.2585  0.7996  0.0830
14540TIP3    H165111   5.065   3.856   4.287  1.3545  0.7131  0.7198
14540TIP3    H265112   5.062   3.704   4.285 -2.4302  0.7615 -1.3295
14541TIP3   OH265113   3.335   3.916  16.947 -0.1578  0.1309  0.3976
14541TIP3    H165114   3.332   3.956  17.034  0.8075 -0.3943  0.6782
14541TIP3    H265115   3.297   3.981  16.889  0.7227  1.1687  0.9674
14542TIP3   OH265116   1.112   1.093  11.182 -0.2864  0.5596 -0.2580
14542TIP3    H165117   1.113   1.146  11.262 -2.1275 -0.3246  0.3546
14542TIP3    H265118   1.053   1.140  11.123 -0.0015  0.4776 -0.6089
14543TIP3   OH265119   0.335   1.163  11.984 -0.5011 -0.3271 -0.2485
14543TIP3    H165120   0.391   1.099  12.028 -0.6472 -0.2548  0.0455
14543TIP3    H265121   0.247   1.126  11.992 -0.4530 -0.6334 -1.0463
14544TIP3   OH265122   2.538   3.720  14.594 -0.5203 -0.1641  0.2050
14544TIP3    H165123   2.543   3.813  14.618  0.3558 -0.7975  2.7077
14544TIP3    H265124   2.462   3.714  14.536  0.3882  2.3697 -1.3019
14545TIP3   OH265125   5.283   6.795   2.640  0.0324  0.6218 -0.3777
14545TIP3    H165126   5.246   6.710   2.661  1.6157 -0.0935 -0.3932
14545TIP3    H265127   5.293   6.794   2.544  0.1987  0.7584 -0.3626
14546TIP3   OH265128   6.418   4.911   0.330 -0.4823 -0.1372 -0.3473
14546TIP3    H165129   6.425   4.865   0.246 -2.2173 -0.9457 -0.0512
14546TIP3    H265130   6.332   4.952   0.328 -0.3652  0.1766  0.8851
14547TIP3   OH265131   2.033   6.585  14.415 -0.2468 -0.5273 -0.4628
14547TIP3    H165132   1.972   6.511  14.413  3.7116 -4.0608  1.9674
14547TIP3    H265133   2.097   6.565  14.346  1.3716  0.1823  0.8144
14548TIP3   OH265134   5.079   4.807  16.112  0.2308  0.0675  0.0053
14548TIP3    H165135   5.168   4.817  16.146 -0.1185 -0.0442  0.9777
14548TIP3    H265136   5.057   4.715  16.127  0.0004  0.0583 -0.3713
14549TIP3   OH265137   4.613   4.217  11.395 -0.2399 -0.5910  0.2554
14549TIP3    H165138   4.530   4.170  11.395 -0.3450 -0.4035 -0.0818
14549TIP3    H265139   4.677   4.153  11.426  0.0279 -1.6894 -2.3956
14550TIP3   OH265140   2.409   6.321  11.747  0.2625 -0.1931 -0.3882
14550TIP3    H165141   2.389   6.229  11.765 -0.1698  0.0564  0.4125
14550TIP3    H265142   2.425   6.359  11.833 -3.0851  1.3185 -0.3487
14551TIP3   OH265143   5.544   6.712   3.546  0.2407 -0.1619 -0.2505
14551TIP3    H165144   5.467   6.769   3.546  0.5049  0.1922 -0.5812
14551TIP3    H265145   5.547   6.678   3.636 -0.6050 -0.5955 -0.3767
14552TIP3   OH265146   4.004   2.549   1.326  0.4239  0.6799  0.2396
14552TIP3    H165147   4.008   2.468   1.274  0.1051  1.5301 -1.1310
14552TIP3    H265148   3.983   2.519   1.415 -1.7406 -0.6220 -0.6465
14553TIP3   OH265149   6.088   0.826   5.946  0.0907 -0.1947  0.3091
14553TIP3    H165150   6.095   0.807   5.852  0.5734 -2.2460  0.7561
14553TIP3    H265151   5.995   0.813   5.966 -0.2033  1.2221 -0.0767
14554TIP3   OH265152   3.675   0.566   0.576  0.1920  0.5698  0.4723
14554TIP3    H165153   3.754   0.618   0.592  1.0431 -1.1446  1.9717
14554TIP3    H265154   3.608   0.606   0.632 -0.4119  2.7966 -1.7089
14555TIP3   OH265155   1.093   6.705   2.960  0.5461 -0.1672  0.3778
14555TIP3    H165156   1.066   6.692   3.051 -1.7202 -1.1341 -0.4115
14555TIP3    H265157   1.108   6.617   2.926 -1.1421 -0.0039 -0.8917
14556TIP3   OH265158   5.700   0.776   0.790  0.0572  0.0541 -0.7978
14556TIP3    H165159   5.718   0.690   0.752 -1.0253 -0.4376 -0.2134
14556TIP3    H265160   5.609   0.770   0.819  0.4856  0.8542  0.7124
14557TIP3   OH265161   1.115   6.469   3.511 -0.5664  0.1102 -0.6732
14557TIP3    H165162   1.084   6.557   3.488 -0.2097 -0.0628 -1.8562
14557TIP3    H265163   1.035   6.417   3.517 -0.7686  0.4866 -0.1133
14558TIP3   OH265164   4.823   6.502  17.248 -0.1034  0.0183  0.0067
14558TIP3    H165165   4.823   6.532  17.157  1.1093  1.6539  0.5279
14558TIP3    H265166   4.881   6.425  17.249  1.4333  1.1622 -0.2424
14559TIP3   OH265167   2.417   3.867   3.886  0.5580 -0.1853 -0.1488
14559TIP3    H165168   2.432   3.951   3.930  2.0598 -0.9555  0.8588
14559TIP3    H265169   2.336   3.880   3.837 -0.6443  1.0251  2.0618
14560TIP3   OH265170   4.468   2.726  16.448 -0.0435 -0.5174 -0.1016
14560TIP3    H165171   4.436   2.637  16.459 -1.4896 -0.1144 -0.9022
14560TIP3    H265172   4.461   2.743  16.354 -1.9780  1.2086  0.3034
14561TIP3   OH265173   1.040   4.997   0.008  0.3368  0.0699  0.1843
14561TIP3    H165174   1.127   5.033   0.024 -0.6561  2.0123  1.4854
14561TIP3    H265175   1.049   4.942  -0.070  2.8144 -0.1606  0.6130
14562TIP3   OH265176   4.540   4.110  12.393 -0.1395  0.0115 -1.1835
14562TIP3    H165177   4.507   4.040  12.337  1.6060  0.5219 -2.9454
14562TIP3    H265178   4.633   4.090  12.404 -0.1548  0.7220  0.3501
14563TIP3   OH265179   5.863   1.062  13.119  0.1217  0.0734  0.2731
14563TIP3    H165180   5.931   1.113  13.162  1.1181 -1.1756  0.2244
14563TIP3    H265181   5.899   1.040  13.033 -0.9576  0.6770 -0.3425
14564TIP3   OH265182   3.164   6.777  15.010  0.0751  0.0249  0.4570
14564TIP3    H165183   3.119   6.715  14.952 -0.4193 -0.0797  0.9436
14564TIP3    H265184   3.196   6.723  15.083  2.0875 -0.1016 -0.5020
14565TIP3   OH265185   3.927   5.110   4.059 -0.3323 -0.2331  0.5607
14565TIP3    H165186   3.937   5.120   3.964 -1.8648  2.3375  0.6306
14565TIP3    H265187   4.010   5.072   4.087  1.5686  2.2699 -1.3697
14566TIP3   OH265188   6.619   3.176  14.020  0.6002 -0.2096 -0.0963
14566TIP3    H165189   6.566   3.158  14.098  0.3308  1.6973  0.1977
14566TIP3    H265190   6.660   3.092  13.999  0.1448 -0.9161  1.6961
14567TIP3   OH265191   3.158   3.558  13.610 -0.1950 -0.2891  0.3919
14567TIP3    H165192   3.245   3.520  13.624 -1.0562 -1.6567  2.1490
14567TIP3    H265193   3.170   3.651  13.624  0.3701 -0.8281  3.7535
14568TIP3   OH265194   4.622   3.857  13.706  0.1497 -0.3569  0.2094
14568TIP3    H165195   4.712   3.890  13.708  0.1330 -0.2985  0.0168
14568TIP3    H265196   4.621   3.787  13.772  0.9597 -1.9434 -1.4204
14569TIP3   OH265197   1.856   3.704   1.807 -0.5512 -0.3115 -0.2428
14569TIP3    H165198   1.784   3.737   1.862  1.2198  1.0735  1.3129
14569TIP3    H265199   1.884   3.624   1.851 -0.3582 -0.2037 -0.1687
14570TIP3   OH265200   5.488   4.221   4.824 -0.2095  0.2400  0.3969
14570TIP3    H165201   5.556   4.287   4.832  1.1962 -1.1144 -0.0331
14570TIP3    H265202   5.407   4.270   4.810  0.7266  1.8605  0.6184
14571TIP3   OH265203   2.013   1.783   0.407  0.3212  0.0351 -0.3084
14571TIP3    H165204   1.957   1.706   0.396  1.7716 -0.7741 -2.1542
14571TIP3    H265205   1.998   1.810   0.498  0.1344 -2.6675  0.4978
14572TIP3   OH265206   3.052   6.489   2.720 -0.4343  0.0648  0.1245
14572TIP3    H165207   3.093   6.510   2.636  0.5232  0.6819  0.7509
14572TIP3    H265208   3.114   6.431   2.764 -0.3197  0.8480  0.9977
14573TIP3   OH265209   1.636   1.888  13.180  0.2239 -0.2804  0.1342
14573TIP3    H165210   1.625   1.982  13.163 -0.4730 -0.4468 -0.3602
14573TIP3    H265211   1.654   1.883  13.274 -0.2230  0.3196  0.2582
14574TIP3   OH265212   0.992   6.053  12.581  0.2198  0.3323 -0.1235
14574TIP3    H165213   1.054   6.083  12.514 -2.3890  0.1409 -2.7449
14574TIP3    H265214   0.978   5.961  12.561 -0.4269  0.2100  0.8717
14575TIP3   OH265215   3.898   4.670   0.106 -0.3991 -0.2206  0.1671
14575TIP3    H165216   3.811   4.677   0.066  0.3235 -0.5780 -1.5013
14575TIP3    H265217   3.949   4.619   0.044  1.3202  0.8954  0.6328
14576TIP3   OH265218   4.132   2.334   0.633  0.1842 -0.2755 -0.3217
14576TIP3    H165219   4.040   2.356   0.650  0.0998 -0.6924 -0.2166
14576TIP3    H265220   4.180   2.374   0.706 -0.0896 -1.3821  0.4778
14577TIP3   OH265221   1.652   5.425  14.216  0.1097  0.7823 -0.1096
14577TIP3    H165222   1.669   5.335  14.243  2.1791  0.5139 -2.1184
14577TIP3    H265223   1.604   5.464  14.289  0.5674 -1.4881  1.4392
14578TIP3   OH265224   5.405   0.532  17.082 -0.3040 -0.2986 -0.3291
14578TIP3    H165225   5.317   0.535  17.045 -0.1745  0.5515 -0.5684
14578TIP3    H265226   5.401   0.461  17.146 -1.8048  1.2387  1.3414
14579TIP3   OH265227   3.457   6.432   3.627 -0.0649  0.3439  1.0273
14579TIP3    H165228   3.506   6.417   3.708  2.1988 -1.2855 -0.5678
14579TIP3    H265229   3.450   6.345   3.587 -1.1532  1.1201 -0.5151
14580TIP3   OH265230   5.120   3.418   2.342  0.1665  0.2594 -0.1052
14580TIP3    H165231   5.042   3.465   2.374  0.8065  0.3571  1.3445
14580TIP3    H265232   5.189   3.443   2.403  1.1120 -0.5891 -0.8278
14581TIP3   OH265233   5.047   3.430   3.145  0.0638  0.1667  0.2041
14581TIP3    H165234   5.037   3.440   3.240 -3.9843  1.2387 -0.2781
14581TIP3    H265235   5.074   3.516   3.114 -1.3683  0.5877  0.0868
14582TIP3   OH265236   3.034   2.867  13.537  0.0701 -0.7739  0.1955
14582TIP3    H165237   3.029   2.957  13.505  1.7969  0.6671  3.7290
14582TIP3    H265238   2.943   2.837  13.538 -0.3962  0.3967 -2.2596
14583TIP3   OH265239   1.367   6.818   5.219 -0.2641 -0.3092  0.0639
14583TIP3    H165240   1.302   6.849   5.156 -0.3263  0.2289  0.3940
14583TIP3    H265241   1.326   6.741   5.259 -1.1032  0.6086  0.9759
14584TIP3   OH265242   3.892   4.381  13.324  0.6459  0.9846 -0.8144
14584TIP3    H165243   3.915   4.288  13.329  0.9149  1.1515  1.8519
14584TIP3    H265244   3.807   4.382  13.278  0.5312 -0.5933 -0.6735
14585TIP3   OH265245   5.897   6.272  12.242  0.0925 -0.6117  0.3509
14585TIP3    H165246   5.868   6.181  12.239  1.7846 -1.2102  1.6389
14585TIP3    H265247   5.973   6.276  12.183 -1.8746  0.7173 -2.2043
14586TIP3   OH265248   0.709   1.763   3.906  0.2632  0.0816 -1.0476
14586TIP3    H165249   0.664   1.847   3.892 -0.6175 -0.4268 -1.2943
14586TIP3    H265250   0.639   1.700   3.920  0.9630 -0.3967  0.3931
14587TIP3   OH265251   6.769   3.823  12.103 -0.6659  0.3381 -0.3832
14587TIP3    H165252   6.801   3.896  12.050 -1.0323  0.1740 -0.8245
14587TIP3    H265253   6.699   3.861  12.155 -0.3950  0.4662 -0.1080
14588TIP3   OH265254   5.294   2.422  12.611  0.0665 -0.6468  0.3218
14588TIP3    H165255   5.235   2.497  12.603 -0.3199 -0.9871 -0.0276
14588TIP3    H265256   5.283   2.393  12.702  0.8051  0.1922  0.6989
14589TIP3   OH265257   3.737   0.120  15.162  0.4728  0.3546 -0.1266
14589TIP3    H165258   3.663   0.062  15.175 -0.4332  1.4920 -0.1150
14589TIP3    H265259   3.797   0.101  15.234  0.2202 -0.6187 -0.1802
14590TIP3   OH265260   0.578   4.975  17.265 -0.4629 -0.1617  0.6525
14590TIP3    H165261   0.629   5.027  17.203 -1.0135 -0.3114  0.0701
14590TIP3    H265262   0.592   4.884  17.238  1.8627 -0.4901  2.6862
14591TIP3   OH265263   2.429   0.826  10.575 -0.0918 -0.1728 -0.3086
14591TIP3    H165264   2.415   0.757  10.640  0.8518 -1.5183 -1.5236
14591TIP3    H265265   2.344   0.837  10.532 -0.0532 -1.0563 -0.5986
14592TIP3   OH265266   4.921   1.448   1.129 -0.1107  0.0792 -0.4188
14592TIP3    H165267   4.853   1.499   1.086 -0.6538 -0.4442 -0.1986
14592TIP3    H265268   4.895   1.357   1.115 -0.2030 -0.1000  0.8469
14593TIP3   OH265269   3.805   5.782  13.489  0.5203  0.1335 -0.3201
14593TIP3    H165270   3.796   5.706  13.432  0.3338 -0.0243 -0.0813
14593TIP3    H265271   3.897   5.781  13.517 -0.3536 -2.1599  2.6727
14594TIP3   OH265272   1.440   5.016   5.736 -0.2195 -0.1946 -0.0575
14594TIP3    H165273   1.452   4.921   5.729 -0.6813 -0.1817 -1.1099
14594TIP3    H265274   1.422   5.045   5.647 -0.4816  0.8332  0.3164
14595TIP3   OH265275   1.154   1.975  12.513 -0.3436  0.9103  0.1887
14595TIP3    H165276   1.171   1.926  12.593 -0.8756  0.1405 -0.1649
14595TIP3    H265277   1.240   1.983  12.471 -0.3634 -0.3579 -0.1141
14596TIP3   OH265278   0.942   3.992  16.974 -0.2077 -0.2089  0.1500
14596TIP3    H165279   1.022   3.947  17.003 -0.6124 -0.1430  1.4355
14596TIP3    H265280   0.967   4.085  16.972 -0.5195 -0.0814  1.5428
14597TIP3   OH265281   5.239   0.396  13.144 -0.7914  0.6729  0.5890
14597TIP3    H165282   5.313   0.368  13.197  0.8358  1.0239 -1.4185
14597TIP3    H265283   5.165   0.343  13.175  0.6867 -0.9167  1.4383
14598TIP3   OH265284   4.858   5.653  17.010 -0.7406 -0.2354 -0.2584
14598TIP3    H165285   4.803   5.599  17.066  1.0667  0.5496  2.3389
14598TIP3    H265286   4.826   5.742  17.023 -0.7419 -0.1269 -0.9819
14599TIP3   OH265287   2.641   3.170   5.671  0.0508  0.3069  0.3032
14599TIP3    H165288   2.657   3.263   5.657  0.3827  0.3074  0.6745
14599TIP3    H265289   2.578   3.168   5.744 -0.3061  0.2542 -0.0065
14600TIP3   OH265290   6.398   0.511  14.932 -0.2522 -0.0716 -0.0086
14600TIP3    H165291   6.345   0.442  14.891  0.4261 -0.4741 -0.2266
14600TIP3    H265292   6.475   0.518  14.875 -0.3744  0.9454 -0.0404
14601TIP3   OH265293   2.004   4.328  11.318  0.4099 -0.3010  0.2313
14601TIP3    H165294   2.025   4.350  11.408 -0.8159 -1.8283  0.9087
14601TIP3    H265295   2.017   4.233  11.312 -1.3653 -0.5009 -0.6791
14602TIP3   OH265296   1.997   4.917   1.975 -0.3071 -0.3890 -0.6205
14602TIP3    H165297   2.079   4.868   1.973  0.8337  1.4335  0.2346
14602TIP3    H265298   1.930   4.850   1.987  1.2740 -1.7207  1.1734
14603TIP3   OH265299   0.562   1.741   1.240  0.1801  0.4180 -0.1100
14603TIP3    H165300   0.540   1.692   1.161  0.6754  1.7680 -1.0945
14603TIP3    H265301   0.608   1.678   1.295 -0.3412 -0.5819 -0.8115
14604TIP3   OH265302   4.181   3.706  13.378  0.4956  0.0560 -0.4326
14604TIP3    H165303   4.222   3.694  13.464 -2.2577 -0.8501  0.7922
14604TIP3    H265304   4.159   3.799  13.374 -0.3941 -0.1165  0.3321
14605TIP3   OH265305   4.105   4.084   3.831  0.5656 -0.2445 -0.0579
14605TIP3    H165306   4.201   4.078   3.826  0.5971  1.0470 -1.3015
14605TIP3    H265307   4.075   4.053   3.746 -0.0768  0.2473 -0.0069
14606TIP3   OH265308   5.921   2.689  11.203  0.6250  0.1770 -0.1502
14606TIP3    H165309   5.914   2.594  11.209  0.7182  0.2418  1.0998
14606TIP3    H265310   5.916   2.708  11.109  2.7242 -1.2241 -0.5716
14607TIP3   OH265311   1.183   4.157   2.842  0.6671  0.0542  0.0652
14607TIP3    H165312   1.173   4.155   2.746  3.2399  2.6902 -0.3425
14607TIP3    H265313   1.093   4.146   2.875 -0.7110  2.0760 -2.7367
14608TIP3   OH265314   2.628   6.296   5.463 -0.2434 -0.0972 -0.7292
14608TIP3    H165315   2.672   6.351   5.398  1.3321 -1.3871 -0.7833
14608TIP3    H265316   2.645   6.338   5.547  2.0600 -1.1712 -0.6323
14609TIP3   OH265317   0.783   1.747   3.407  0.0343 -0.2998 -0.2109
14609TIP3    H165318   0.750   1.672   3.457  1.3475 -2.0003 -1.7908
14609TIP3    H265319   0.841   1.793   3.467 -1.9255  0.3400  1.2551
14610TIP3   OH265320   5.820   2.677  14.121  0.0286  0.0692 -0.3920
14610TIP3    H165321   5.797   2.741  14.053 -2.1322 -0.9174 -0.6175
14610TIP3    H265322   5.803   2.724  14.203 -0.5267  0.1492 -0.5491
14611TIP3   OH265323   3.110   0.413  12.908  0.1551 -0.0892 -0.0294
14611TIP3    H165324   3.172   0.399  12.980  0.0602 -1.2478 -0.1573
14611TIP3    H265325   3.139   0.352  12.840 -1.0847 -0.5865 -0.1171
14612TIP3   OH265326   1.439   6.774   4.364 -0.2980  0.2202 -0.1416
14612TIP3    H165327   1.405   6.706   4.422  1.4407  0.1622  0.8316
14612TIP3    H265328   1.435   6.736   4.276 -0.6500 -0.5965  0.2288
14613TIP3   OH265329   2.176   0.349  12.722  0.4670  0.1554  0.7189
14613TIP3    H165330   2.184   0.295  12.644  1.5068 -1.9884  2.2429
14613TIP3    H265331   2.114   0.302  12.778  0.0750  1.4177  1.3705
14614TIP3   OH265332   4.910   1.557  14.052 -0.0715 -0.2647  0.8033
14614TIP3    H165333   4.847   1.582  13.984  2.3980  1.7119 -0.8551
14614TIP3    H265334   4.871   1.481  14.094 -2.0263 -1.1143 -2.3587
14615TIP3   OH265335   1.577   2.811   3.555 -0.2503 -0.0355  0.4250
14615TIP3    H165336   1.523   2.746   3.510 -0.5532 -0.1727  0.9925
14615TIP3    H265337   1.573   2.787   3.647  0.4993  0.1592  0.5149
14616TIP3   OH265338   6.318   5.240   1.421 -0.1449  0.1562 -0.0504
14616TIP3    H165339   6.396   5.266   1.371  0.8906  0.1291  1.5217
14616TIP3    H265340   6.316   5.145   1.414  0.1027  0.1384  0.1085
14617TIP3   OH265341   1.721   4.288   0.819  0.4905  0.1112 -0.0859
14617TIP3    H165342   1.629   4.268   0.837  0.1247  1.5550 -0.3235
14617TIP3    H265343   1.732   4.267   0.726  0.5071 -0.4429  0.0405
14618TIP3   OH265344   6.010   2.039  15.790 -0.2145 -0.0913 -0.0490
14618TIP3    H165345   5.964   2.122  15.801  0.0978  0.1020 -0.2151
14618TIP3    H265346   6.054   2.046  15.706  0.2774 -0.2046  0.1942
14619TIP3   OH265347   2.746   2.915  10.963 -0.3682 -0.0096  1.0690
14619TIP3    H165348   2.666   2.864  10.961 -0.0800 -0.5025  1.7818
14619TIP3    H265349   2.720   3.000  11.000 -0.6866  0.0630  0.6697
14620TIP3   OH265350   2.678   4.692  12.389  0.3522  0.0157 -0.0913
14620TIP3    H165351   2.713   4.738  12.312  2.6604 -1.6302 -0.1015
14620TIP3    H265352   2.698   4.750  12.463 -1.2183  1.2685 -0.6304
14621TIP3   OH265353   0.114   5.701  11.777  0.4219  0.3027  0.8732
14621TIP3    H165354   0.020   5.720  11.781 -0.5185 -3.8225  1.1576
14621TIP3    H265355   0.123   5.636  11.707  3.0614  0.4418  1.0121
14622TIP3   OH265356   6.387   0.103  14.785 -0.0319 -0.1179 -0.3980
14622TIP3    H165357   6.419   0.177  14.734 -1.5143 -0.8811 -2.4836
14622TIP3    H265358   6.298   0.127  14.809 -0.8325 -1.6037 -1.8513
14623TIP3   OH265359   1.153   1.681   4.922  0.0865 -0.7138 -0.1184
14623TIP3    H165360   1.211   1.751   4.952  0.4235 -0.2797 -1.7336
14623TIP3    H265361   1.079   1.727   4.882 -0.4927 -1.2777  0.2983
14624TIP3   OH265362   4.005   1.501  13.825  0.6658 -0.6936  0.2649
14624TIP3    H165363   3.967   1.417  13.799 -1.4816  0.8420 -1.6945
14624TIP3    H265364   3.936   1.544  13.875  1.6582  0.0403  1.0151
14625TIP3   OH265365   1.947   1.218   5.455 -1.0429 -0.4093  0.5185
14625TIP3    H165366   1.932   1.134   5.499 -0.6946  0.3154  2.0599
14625TIP3    H265367   1.988   1.273   5.522  2.2491 -0.1924 -1.5730
14626TIP3   OH265368   1.334   0.979  12.296  0.0087 -0.7078  0.3183
14626TIP3    H165369   1.406   0.917  12.305  0.3778 -0.2007  0.7905
14626TIP3    H265370   1.374   1.060  12.265 -0.4757 -0.6958 -0.3075
14627TIP3   OH265371   1.885   1.536   3.194 -0.4774 -0.4102 -0.2237
14627TIP3    H165372   1.858   1.507   3.107 -2.0147 -1.1331  0.4774
14627TIP3    H265373   1.944   1.467   3.225  0.3512  0.0223 -0.8215
14628TIP3   OH265374   1.517   5.529  14.418 -0.1229 -0.3114 -0.3765
14628TIP3    H165375   1.551   5.543  14.507  1.9118  0.9599 -1.3208
14628TIP3    H265376   1.435   5.579  14.417  0.2569  0.3609  0.5530
14629TIP3   OH265377   6.659   6.035   1.640 -0.1756  0.3005  0.5626
14629TIP3    H165378   6.653   6.026   1.545  0.7399  0.7286  0.4685
14629TIP3    H265379   6.749   6.013   1.661 -0.4129  0.0620  1.3525
14630TIP3   OH265380   4.098   2.455   0.155  0.8657 -0.5385 -0.4546
14630TIP3    H165381   4.029   2.388   0.160  0.6489 -0.2356  1.0674
14630TIP3    H265382   4.137   2.455   0.243  3.1802 -1.0787 -1.4536
14631TIP3   OH265383   0.147   2.286   2.926 -0.6092  0.0183 -0.0158
14631TIP3    H165384   0.151   2.312   3.018 -2.5345  0.0823  0.0675
14631TIP3    H265385   0.135   2.191   2.929  1.1033 -0.2229 -0.2451
14632TIP3   OH265386   6.352   1.864   4.098 -0.0349  0.1065  0.6760
14632TIP3    H165387   6.396   1.942   4.064 -0.2157  0.2384  0.7497
14632TIP3    H265388   6.296   1.835   4.026  0.0976 -0.0060  0.6178
14633TIP3   OH265389   1.935   4.636   2.177  0.6472 -0.3284  0.0655
14633TIP3    H165390   1.861   4.669   2.228  1.4625 -0.5487  1.4358
14633TIP3    H265391   1.975   4.571   2.234  1.9607 -0.1321 -0.6246
14634TIP3   OH265392   2.088   5.344   3.396 -0.2680 -0.0367 -0.1801
14634TIP3    H165393   2.114   5.252   3.387 -2.1409 -0.6040  0.0119
14634TIP3    H265394   2.148   5.392   3.339 -0.0509 -1.5274 -1.2187
14635TIP3   OH265395   3.403   5.163  14.822  1.0061  0.2747  0.9156
14635TIP3    H165396   3.354   5.081  14.825  0.5567  0.4847 -0.1143
14635TIP3    H265397   3.486   5.145  14.866  1.1408 -0.9014  0.1950
14636TIP3   OH265398   2.714   3.141  15.777 -0.8324  0.2105 -0.3339
14636TIP3    H165399   2.669   3.056  15.782 -1.8128  0.7245 -0.2159
14636TIP3    H265400   2.795   3.122  15.730 -0.5848 -0.9790  0.5441
14637TIP3   OH265401   4.335   6.026  17.246 -0.4386 -0.1351  0.3532
14637TIP3    H165402   4.290   6.073  17.175 -1.3837 -0.8050  0.4954
14637TIP3    H265403   4.379   6.095  17.296 -1.5645  0.5744  0.3932
14638TIP3   OH265404   6.677   4.210  11.329  0.1415 -0.1226  0.5401
14638TIP3    H165405   6.713   4.203  11.241 -1.1694 -0.6092  0.0306
14638TIP3    H265406   6.681   4.120  11.363  0.2235 -0.0176  0.8089
14639TIP3   OH265407   1.317   3.815   1.890  0.2571 -0.1762 -0.1079
14639TIP3    H165408   1.374   3.859   1.953 -1.0217 -0.5011  1.3207
14639TIP3    H265409   1.251   3.882   1.869 -1.6203 -1.3017  1.9710
14640TIP3   OH265410   6.769   3.425  12.119 -0.0698 -0.1343 -0.5977
14640TIP3    H165411   6.763   3.456  12.028 -0.6176 -0.2947 -0.6144
14640TIP3    H265412   6.857   3.451  12.146  0.2134 -0.3614 -1.2761
14641TIP3   OH265413   1.129   4.799  15.560  0.4782 -0.2292  0.1893
14641TIP3    H165414   1.169   4.712  15.559  0.7779 -0.0998  0.9180
14641TIP3    H265415   1.201   4.859  15.540  0.5778 -0.0300  1.1198
14642TIP3   OH265416   4.604   6.134   0.995  0.0746  0.6487 -0.3206
14642TIP3    H165417   4.667   6.099   0.932  0.0104  0.9725 -0.5668
14642TIP3    H265418   4.593   6.226   0.970 -0.3896  0.6295 -0.1920
14643TIP3   OH265419   2.699   5.668  13.478 -0.0828  0.4371  0.7017
14643TIP3    H165420   2.710   5.706  13.390  0.0174  0.5452  0.7606
14643TIP3    H265421   2.691   5.744  13.536 -0.3321  0.3628  0.7619
14644TIP3   OH265422   0.445   6.417  11.855 -0.1505  0.0855 -0.3662
14644TIP3    H165423   0.365   6.460  11.824  0.3573  1.1482 -0.2501
14644TIP3    H265424   0.482   6.376  11.777 -0.5568  0.0166 -0.5222
14645TIP3   OH265425   4.976   2.734   4.157 -0.2933  0.0360  0.0592
14645TIP3    H165426   5.054   2.779   4.189  0.1533  0.0616 -1.0539
14645TIP3    H265427   4.977   2.748   4.062 -0.9620 -1.0380 -0.1146
14646TIP3   OH265428   1.078   2.662  11.156  0.5656  0.1221  0.0447
14646TIP3    H165429   1.044   2.607  11.086  1.0502  0.1777 -0.2341
14646TIP3    H265430   1.071   2.752  11.123 -1.5957  0.3659  1.0663
14647TIP3   OH265431   0.150   3.248   0.220  0.3715 -0.5049  0.1376
14647TIP3    H165432   0.078   3.199   0.261  0.8569 -0.4427  1.0886
14647TIP3    H265433   0.107   3.319   0.173 -0.1675 -0.1967  1.0806
14648TIP3   OH265434   0.692   3.298  14.042 -0.0581  0.2136  0.4848
14648TIP3    H165435   0.718   3.206  14.043 -0.9757 -0.0478  1.3731
14648TIP3    H265436   0.618   3.303  14.103 -0.8622  1.2906 -0.5428
14649TIP3   OH265437   4.011   6.595   5.755 -0.3697 -0.1555  0.2313
14649TIP3    H165438   4.017   6.683   5.790 -0.1273  1.0182 -2.6145
14649TIP3    H265439   4.101   6.562   5.757 -0.0921  0.5337 -0.8333
14650TIP3   OH265440   0.443   6.063  11.791  0.2409  0.1546 -0.3765
14650TIP3    H165441   0.502   6.000  11.832  2.6886  1.4563 -1.7863
14650TIP3    H265442   0.397   6.012  11.724  0.1548 -0.7444  0.3560
14651TIP3   OH265443   3.903   6.654  16.200  0.4860 -0.2686 -0.3636
14651TIP3    H165444   3.854   6.634  16.279  0.4951  0.1616 -0.2447
14651TIP3    H265445   3.972   6.587  16.196 -0.7435 -1.5102 -1.0963
14652TIP3   OH265446   2.255   5.453   1.683  0.2218 -0.4841 -0.7216
14652TIP3    H165447   2.258   5.427   1.775 -1.4907 -0.5336 -0.6561
14652TIP3    H265448   2.242   5.372   1.635 -2.4330 -0.1036 -0.7186
14653TIP3   OH265449   1.543   4.025  12.215 -0.2345  0.6027  0.3362
14653TIP3    H165450   1.636   4.013  12.195 -0.3368 -1.1729  0.8088
14653TIP3    H265451   1.507   4.071  12.139  0.7839  0.2170 -0.3871
14654TIP3   OH265452   1.653   4.620   5.503 -0.0554  0.6811  0.1316
14654TIP3    H165453   1.742   4.627   5.468  0.2645 -3.3936 -0.1457
14654TIP3    H265454   1.665   4.606   5.597 -0.4482  1.2832  0.2712
14655TIP3   OH265455   1.411   4.788   6.467 -0.1984  1.0062 -0.2137
14655TIP3    H165456   1.327   4.793   6.514 -0.0830  0.4585  0.0479
14655TIP3    H265457   1.410   4.865   6.410 -1.8453 -0.1496 -1.7987
14656TIP3   OH265458   3.154   4.925   5.440 -0.0811 -0.0688 -0.3651
14656TIP3    H165459   3.161   5.021   5.442  0.2975 -0.0872 -0.6404
14656TIP3    H265460   3.095   4.903   5.511  0.4968  0.3126  0.2413
14657TIP3   OH265461   4.249   5.155  15.118  0.0324  0.9244 -0.6156
14657TIP3    H165462   4.183   5.086  15.115  0.3141  0.6381 -0.2678
14657TIP3    H265463   4.283   5.160  15.029  1.0974 -0.4437 -0.3011
14658TIP3   OH265464   1.319   3.133  14.719 -0.4651  0.4465 -0.4865
14658TIP3    H165465   1.277   3.150  14.803  0.9167 -0.8264  0.4658
14658TIP3    H265466   1.246   3.120  14.658 -1.4700 -0.1976  0.8349
14659TIP3   OH265467   3.560   6.064  14.544 -0.1955 -0.6596 -0.0030
14659TIP3    H165468   3.469   6.066  14.516 -0.0113  2.3596 -0.5616
14659TIP3    H265469   3.580   6.154  14.568  2.4501 -1.4083  0.8324
14660TIP3   OH265470   0.644   2.639   2.080 -0.2133 -0.1919 -0.2756
14660TIP3    H165471   0.580   2.608   2.016 -1.9072  0.6091  1.0239
14660TIP3    H265472   0.630   2.733   2.085 -0.2551 -0.2878  1.4699
14661TIP3   OH265473   6.227   1.881  14.752  0.4630 -0.1840  0.8660
14661TIP3    H165474   6.161   1.897  14.820 -0.6301  0.1631 -0.2431
14661TIP3    H265475   6.224   1.787  14.736  0.9960 -0.3216  1.5654
14662TIP3   OH265476   0.898   3.933  11.496 -0.0934  0.4595 -0.6198
14662TIP3    H165477   0.848   4.013  11.515  1.1512  0.8332  1.2535
14662TIP3    H265478   0.945   3.953  11.414  2.3308  2.7487  1.2204
14663TIP3   OH265479   4.032   2.908   3.057  0.4256 -0.0050 -0.3557
14663TIP3    H165480   4.105   2.921   3.117 -1.0550 -0.5480  1.6171
14663TIP3    H265481   3.994   2.824   3.083 -1.0103  0.3721 -1.2021
14664TIP3   OH265482   5.156   6.774  14.711  0.6248  0.1172 -0.5553
14664TIP3    H165483   5.137   6.763  14.618  1.4682 -1.4505 -0.5638
14664TIP3    H265484   5.251   6.770  14.717  0.6899  2.2451  0.1428
14665TIP3   OH265485   5.933   1.314  12.604 -0.0929  0.2549  0.3896
14665TIP3    H165486   5.879   1.310  12.683 -0.5155 -0.1742  0.0853
14665TIP3    H265487   6.008   1.367  12.629 -0.7275  0.9924  0.7798
14666TIP3   OH265488   1.599   2.269  15.455 -0.4622 -0.0745 -0.7268
14666TIP3    H165489   1.560   2.183  15.441 -0.2959 -0.3888  0.7044
14666TIP3    H265490   1.530   2.331  15.427 -1.0588 -0.6505 -0.5479
14667TIP3   OH265491   6.420   3.216   1.864 -0.4923  0.5542  0.7257
14667TIP3    H165492   6.489   3.268   1.823 -0.0482 -0.7859 -0.2219
14667TIP3    H265493   6.358   3.198   1.793  0.1011 -1.4798  0.7203
14668TIP3   OH265494   5.272   6.225   2.372  0.2915  0.1085 -0.2379
14668TIP3    H165495   5.286   6.164   2.299 -0.8923 -0.5029  0.0303
14668TIP3    H265496   5.193   6.193   2.415 -0.3300  1.8069 -0.0588
14669TIP3   OH265497   0.459   4.321   3.201 -0.0043  1.0415 -0.0616
14669TIP3    H165498   0.470   4.235   3.159 -1.4352  0.8236 -0.0270
14669TIP3    H265499   0.536   4.371   3.174  2.3099 -1.1687  2.2044
14670TIP3   OH265500   1.203   5.343  13.431  0.0070 -0.3745 -0.1084
14670TIP3    H165501   1.246   5.277  13.486  0.2605 -0.7940 -0.8163
14670TIP3    H265502   1.134   5.295  13.386 -1.1769  0.2804  0.9672
14671TIP3   OH265503   0.063   0.585  12.661  0.5477  0.3288 -0.3265
14671TIP3    H165504   0.026   0.556  12.577  1.3683 -0.5724 -0.3884
14671TIP3    H265505   0.067   0.505  12.714  0.9497  0.7120  0.2227
14672TIP3   OH265506   4.774   6.259   0.764  0.2268 -0.3881  0.3197
14672TIP3    H165507   4.803   6.349   0.781  0.0156 -0.4649  1.1156
14672TIP3    H265508   4.854   6.214   0.737  0.2160  0.1842 -0.6928
14673TIP3   OH265509   0.245   3.448   0.812  0.4148 -0.3137  0.7403
14673TIP3    H165510   0.199   3.380   0.862  1.3680 -0.0860  1.9272
14673TIP3    H265511   0.288   3.400   0.741 -0.8164 -0.6521  0.2023
14674TIP3   OH265512   5.119   0.509  17.013 -0.2438  0.8963  0.5325
14674TIP3    H165513   5.028   0.526  17.038 -0.3842 -0.0001  0.6677
14674TIP3    H265514   5.111   0.458  16.932  0.1486  1.3730  0.1977
14675TIP3   OH265515   6.073   0.431  13.320 -0.0545  0.3366 -0.1176
14675TIP3    H165516   6.117   0.513  13.342 -0.8366  0.2191  2.0155
14675TIP3    H265517   6.019   0.453  13.244 -0.1070  1.7583  0.3099
14676TIP3   OH265518   4.164   4.772   4.477 -0.4436  0.0405  0.1170
14676TIP3    H165519   4.163   4.701   4.542 -0.8687  0.0513  0.1207
14676TIP3    H265520   4.204   4.733   4.399 -2.8375 -0.9027 -0.6813
14677TIP3   OH265521   2.884   1.802   2.541  0.0252 -0.0263 -0.6703
14677TIP3    H165522   2.901   1.848   2.459 -0.0856 -2.5435 -2.1730
14677TIP3    H265523   2.895   1.709   2.519 -0.4972 -0.7836  2.0487
14678TIP3   OH265524   0.470   4.248  11.805  0.2446  0.3950 -0.2593
14678TIP3    H165525   0.416   4.175  11.774  0.8343  0.5961 -1.7824
14678TIP3    H265526   0.423   4.282  11.881 -0.4377 -1.0781  0.0008
14679TIP3   OH265527   0.745   1.114  15.569 -0.1769 -0.0546 -0.1819
14679TIP3    H165528   0.800   1.146  15.641  0.7219  2.7507 -2.0573
14679TIP3    H265529   0.770   1.022  15.559  2.9735  0.7164  0.1267
14680TIP3   OH265530   1.539   0.794  14.318 -0.8464  0.1272 -0.5370
14680TIP3    H165531   1.506   0.872  14.273 -1.1902  0.0808 -0.3590
14680TIP3    H265532   1.498   0.721  14.272  0.1719  0.0135 -1.2873
14681TIP3   OH265533   0.383   4.789   0.916 -0.3533 -0.1461 -0.0392
14681TIP3    H165534   0.439   4.744   0.979 -0.3702 -1.9128 -1.2679
14681TIP3    H265535   0.294   4.775   0.949 -0.2453  0.5302  0.5515
14682TIP3   OH265536   5.933   1.744  14.702 -0.2900 -0.1640 -0.1682
14682TIP3    H165537   5.891   1.659  14.714  0.3422 -0.2239  1.9423
14682TIP3    H265538   6.026   1.724  14.695 -0.0992  0.3724  0.7542
14683TIP3   OH265539   2.024   1.859   3.945  0.3021  0.6144  0.2793
14683TIP3    H165540   2.080   1.808   4.004  0.9945 -1.1294 -1.8149
14683TIP3    H265541   2.085   1.917   3.899 -0.2426  2.0095  1.2803
14684TIP3   OH265542   0.241   3.623  12.760  0.1521 -0.5848  0.0791
14684TIP3    H165543   0.228   3.597  12.668  1.5759 -0.3220 -0.2077
14684TIP3    H265544   0.333   3.648  12.765 -0.1622  0.3513  1.3621
14685TIP3   OH265545   2.564   5.403  13.000 -0.1034  0.0458  0.0698
14685TIP3    H165546   2.530   5.492  12.990  0.9566  0.3841 -0.6249
14685TIP3    H265547   2.530   5.373  13.084  1.1462  1.8366  1.2457
14686TIP3   OH265548   4.915   6.353  12.324 -0.0590  0.8257  0.2898
14686TIP3    H165549   4.929   6.446  12.341 -1.3054  0.8855  1.0501
14686TIP3    H265550   4.940   6.341  12.232  2.0741  1.4905  0.7591
14687TIP3   OH265551   0.438   2.522   5.309  0.1427 -0.3371  0.1501
14687TIP3    H165552   0.456   2.558   5.222  0.3582 -0.7100  0.0426
14687TIP3    H265553   0.478   2.585   5.369  0.0504 -0.1130 -0.0197
14688TIP3   OH265554   2.268   0.432  14.849 -0.3200 -0.0137  0.3019
14688TIP3    H165555   2.339   0.478  14.893 -0.3439 -0.1232  0.4553
14688TIP3    H265556   2.275   0.342  14.880  1.0550 -0.6095 -1.6290
14689TIP3   OH265557   2.390   0.665   0.709 -0.2245  0.8254 -0.4577
14689TIP3    H165558   2.302   0.685   0.742 -0.3358 -0.3848 -0.0098
14689TIP3    H265559   2.379   0.585   0.658  0.8567 -0.0610  0.6879
14690TIP3   OH265560   0.723   1.599   0.556  0.6848  0.5725 -0.3931
14690TIP3    H165561   0.806   1.617   0.513  2.4550 -3.3043  1.1516
14690TIP3    H265562   0.661   1.584   0.484  2.2465 -0.2803 -1.5813
14691TIP3   OH265563   1.858   5.367   2.584  0.1101 -0.4387 -0.4626
14691TIP3    H165564   1.777   5.388   2.537 -0.5495 -1.3033  0.2742
14691TIP3    H265565   1.832   5.359   2.675  1.4276  1.3997  0.1070
14692TIP3   OH265566   3.553   5.722  11.684  0.6620 -0.1122 -0.3308
14692TIP3    H165567   3.558   5.673  11.766 -0.3160  2.1621  1.1461
14692TIP3    H265568   3.463   5.708  11.653 -0.1197  1.8886  0.8960
14693TIP3   OH265569   2.538   3.072  13.245  0.3073 -0.2354  0.1254
14693TIP3    H165570   2.536   3.104  13.335  0.2989 -1.0964  0.4393
14693TIP3    H265571   2.604   3.126  13.202  1.3544 -0.7792  1.0216
14694TIP3   OH265572   0.346   4.291  12.118  0.2013 -0.2421 -0.1338
14694TIP3    H165573   0.388   4.368  12.080 -0.4022  1.0234  1.7138
14694TIP3    H265574   0.395   4.273  12.198 -2.2503  0.8077  1.6660
14695TIP3   OH265575   0.815   3.075  11.739 -0.1742 -0.0855  0.0567
14695TIP3    H165576   0.752   3.038  11.676 -0.8684  1.5181 -0.2093
14695TIP3    H265577   0.770   3.152  11.775  0.6366 -0.3732  1.7472
14696TIP3   OH265578   6.658   3.616   1.033 -0.1532 -0.0345  0.4735
14696TIP3    H165579   6.709   3.651   1.106  0.1981 -0.9097  0.6543
14696TIP3    H265580   6.724   3.579   0.974 -0.4494  0.4853 -0.1846
14697TIP3   OH265581   2.157   3.042   1.702 -0.4992 -0.2333  0.2780
14697TIP3    H165582   2.239   3.083   1.727 -0.7609  0.6981 -0.3793
14697TIP3    H265583   2.165   2.951   1.733  1.1431 -0.3985 -0.5724
14698TIP3   OH265584   2.433   4.458   4.804  0.3395  0.0004  0.3614
14698TIP3    H165585   2.479   4.532   4.763 -1.3779 -0.0031 -1.7039
14698TIP3    H265586   2.445   4.386   4.743  1.7639 -1.3932  2.2412
14699TIP3   OH265587   0.128   6.415   5.597 -0.3996  0.0377  0.3511
14699TIP3    H165588   0.177   6.448   5.673 -0.4930 -0.8501  0.8047
14699TIP3    H265589   0.150   6.475   5.526 -2.3656  2.4655  1.6976
14700TIP3   OH265590   4.674   0.410  12.636  0.0623  0.0421 -0.0181
14700TIP3    H165591   4.733   0.438  12.565  0.3521  1.2817  0.6920
14700TIP3    H265592   4.624   0.489  12.657  0.3776 -0.1632  1.5494
14701TIP3   OH265593   4.418   4.363   2.494  0.6033 -0.4720  0.3074
14701TIP3    H165594   4.453   4.397   2.412 -0.9175  0.0311 -0.1469
14701TIP3    H265595   4.324   4.378   2.489  0.1987 -2.5195  1.1779
14702TIP3   OH265596   5.137   3.979   2.822  0.3685  0.3740 -0.1723
14702TIP3    H165597   5.089   3.905   2.860  1.0854 -0.1438 -0.2647
14702TIP3    H265598   5.170   3.945   2.739  1.4913  0.5078  0.2142
14703TIP3   OH265599   0.328   0.454  16.228 -0.1480  0.3280  0.4946
14703TIP3    H165600   0.236   0.449  16.203 -0.0680  0.3778  0.1767
14703TIP3    H265601   0.334   0.534  16.280 -0.0787  0.9127 -0.4085
14704TIP3   OH265602   1.902   6.585  14.852 -0.1592 -0.2765  0.0196
14704TIP3    H165603   1.974   6.563  14.912  0.0731 -0.5715 -0.3697
14704TIP3    H265604   1.945   6.626  14.777 -0.4936  0.5107  0.2555
14705TIP3   OH265605   1.421   5.381   1.139 -0.6599 -0.4128 -0.3687
14705TIP3    H165606   1.462   5.299   1.111 -0.7545 -0.7417  0.4540
14705TIP3    H265607   1.328   5.369   1.116 -0.8304 -0.8929  0.5534
14706TIP3   OH265608   1.694   2.970   0.239 -0.2328  0.1421 -0.3952
14706TIP3    H165609   1.759   2.944   0.305 -0.1594  1.5949  0.1140
14706TIP3    H265610   1.615   2.923   0.265 -0.4478  1.3788  1.2557
14707TIP3   OH265611   3.693   2.438  12.848  0.0287 -0.1932  0.0663
14707TIP3    H165612   3.736   2.361  12.812 -1.2449 -0.3074 -1.2149
14707TIP3    H265613   3.620   2.455  12.789 -1.6795  0.0209  2.1926
14708TIP3   OH265614   4.103   3.132   5.422 -0.2204 -0.0182  0.4103
14708TIP3    H165615   4.108   3.223   5.392 -1.0508 -0.3369 -0.7594
14708TIP3    H265616   4.071   3.084   5.346  1.1858 -1.4592  0.6988
14709TIP3   OH265617   0.471   3.865  16.482 -0.4497  0.0713  0.1665
14709TIP3    H165618   0.408   3.801  16.517 -0.9187 -0.2458 -1.2225
14709TIP3    H265619   0.508   3.823  16.405 -0.5378  1.3545 -0.5903
14710TIP3   OH265620   1.983   1.010  13.358 -0.2380  0.5044  0.1887
14710TIP3    H165621   1.947   1.042  13.275  1.3479 -0.8511 -1.0568
14710TIP3    H265622   1.962   1.079  13.421 -3.5592  0.4983 -0.7955
14711TIP3   OH265623   2.662   4.380  13.832 -0.5540 -0.1453  0.3562
14711TIP3    H165624   2.666   4.470  13.800  1.5183 -0.9625 -1.9276
14711TIP3    H265625   2.735   4.373  13.893  0.3345 -0.6899 -0.7404
14712TIP3   OH265626   6.656   1.862  11.537 -0.4614 -0.4130  0.3227
14712TIP3    H165627   6.665   1.783  11.484  1.3481  0.0465 -0.0800
14712TIP3    H265628   6.604   1.922  11.483  0.0628 -0.5068 -0.2789
14713TIP3   OH265629   5.870   3.048   3.436 -0.0663  0.1364 -0.3142
14713TIP3    H165630   5.954   3.085   3.408 -0.3070  0.5991 -0.4392
14713TIP3    H265631   5.815   3.052   3.357 -0.4610  0.6060 -0.0204
14714TIP3   OH265632   2.283   4.629  17.030  0.1319 -0.2027  0.1435
14714TIP3    H165633   2.304   4.538  17.053  0.5343 -0.5699 -1.5703
14714TIP3    H265634   2.315   4.681  17.104 -0.1001 -1.4477  1.1336
14715TIP3   OH265635   1.429   0.200   0.716  0.3710  0.5813  0.8490
14715TIP3    H165636   1.491   0.138   0.679 -0.4911 -0.1511  0.5928
14715TIP3    H265637   1.460   0.215   0.805  0.5055 -0.3545  0.9719
14716TIP3   OH265638   2.499   2.170  12.777 -0.5133 -0.1830 -0.5166
14716TIP3    H165639   2.455   2.251  12.750  0.2317  0.3184 -0.2605
14716TIP3    H265640   2.514   2.182  12.871 -1.2601 -1.0345 -0.2820
14717TIP3   OH265641   5.233   6.073   7.128 -0.1224 -0.3549 -0.2936
14717TIP3    H165642   5.140   6.084   7.106 -0.1699  0.7383  0.4148
14717TIP3    H265643   5.275   6.052   7.045 -0.6454  1.4526 -1.0462
14718TIP3   OH265644   1.096   0.403   6.527  0.3642 -0.1959 -0.5722
14718TIP3    H165645   1.116   0.494   6.505 -0.7297  0.2519  0.2678
14718TIP3    H265646   1.159   0.352   6.476  0.5819  1.0012 -1.5284
14719TIP3   OH265647   1.804   1.082  16.233  0.6334 -0.4606 -0.4261
14719TIP3    H165648   1.843   1.132  16.304 -2.6313 -0.9901  1.8534
14719TIP3    H265649   1.786   0.996  16.271 -0.6379 -0.9499 -2.0702
14720TIP3   OH265650   1.966   5.883  13.504 -0.2818 -0.0920 -0.5664
14720TIP3    H165651   1.972   5.791  13.530 -1.3904 -0.3572 -1.2147
14720TIP3    H265652   1.874   5.907  13.520  0.0549  0.9798 -0.1475
14721TIP3   OH265653   1.847   4.041  11.495 -0.0633 -0.3211  0.3113
14721TIP3    H165654   1.787   4.108  11.460 -1.1324 -1.1783  0.4891
14721TIP3    H265655   1.790   3.971  11.526  1.0575 -1.3111  0.1652
14722TIP3   OH265656   5.077   3.942  13.546  0.4645 -0.9404  0.0337
14722TIP3    H165657   5.137   3.915  13.615  0.3982  2.8494  1.7233
14722TIP3    H265658   5.131   3.995  13.487 -0.6086  0.2071  0.0590
14723TIP3   OH265659   4.154   3.134  11.110  0.6332 -0.2218 -0.0683
14723TIP3    H165660   4.236   3.175  11.084 -0.0225  2.3130  1.6776
14723TIP3    H265661   4.180   3.064  11.170  1.5829 -0.3477 -0.6224
14724TIP3   OH265662   4.764   2.122   5.169  0.0627  0.5707 -0.4295
14724TIP3    H165663   4.837   2.160   5.121 -0.6878  0.6597 -1.5104
14724TIP3    H265664   4.689   2.178   5.148 -0.7858 -0.7860 -1.0604
14725TIP3   OH265665   1.082   5.843   5.361 -0.0670  0.5847 -0.1325
14725TIP3    H165666   1.007   5.819   5.306  0.5004  0.6751 -0.9595
14725TIP3    H265667   1.151   5.782   5.335 -0.1357 -0.1085  1.2960
14726TIP3   OH265668   2.042   2.107   1.673  0.3143 -0.3990  0.3023
14726TIP3    H165669   2.049   2.017   1.640 -0.0620 -0.7354  1.1373
14726TIP3    H265670   2.008   2.097   1.762  0.8022  0.5415  0.5961
14727TIP3   OH265671   5.812   1.344  15.236 -0.0318 -0.0975 -0.7273
14727TIP3    H165672   5.743   1.377  15.179 -0.8344  0.3816  0.4971
14727TIP3    H265673   5.824   1.413  15.302  2.3276  0.2951 -1.4907
14728TIP3   OH265674   3.073   4.075  10.704  0.4505 -0.0525 -0.2407
14728TIP3    H165675   3.141   4.082  10.637  0.5559  2.2884  0.0586
14728TIP3    H265676   3.118   4.096  10.786  0.2319 -2.4943  0.5393
14729TIP3   OH265677   6.602   2.664   3.080 -0.2794 -0.0580  0.6010
14729TIP3    H165678   6.510   2.648   3.101 -0.2177 -0.2747  0.7049
14729TIP3    H265679   6.631   2.729   3.143 -0.8486  1.3409 -0.5411
14730TIP3   OH265680   1.300   5.745   4.010  0.1944 -0.3464  0.6691
14730TIP3    H165681   1.257   5.667   4.046  0.2021 -0.4776  0.4014
14730TIP3    H265682   1.228   5.802   3.983  0.1447 -1.6429 -2.0898
14731TIP3   OH265683   1.735   6.047  12.296 -0.0318 -0.8839 -0.3540
14731TIP3    H165684   1.789   6.123  12.275  0.6289 -1.2394  0.0301
14731TIP3    H265685   1.758   5.982  12.230 -0.5511 -0.7756 -0.6447
14732TIP3   OH265686   2.353   4.586   5.472  0.2860  0.8054 -0.2926
14732TIP3    H165687   2.366   4.625   5.558 -0.1341  2.7939 -1.1210
14732TIP3    H265688   2.340   4.660   5.413  0.2237 -0.5472 -2.0177
14733TIP3   OH265689   5.151   1.604  16.450 -0.3889 -0.2822  0.0199
14733TIP3    H165690   5.099   1.684  16.458  0.4283  0.2084  0.4458
14733TIP3    H265691   5.202   1.600  16.531 -1.9221 -2.3123  0.9223
14734TIP3   OH265692   5.071   1.567  17.275 -0.9432  0.4162 -0.3932
14734TIP3    H165693   5.059   1.520  17.193  2.1740 -0.6087 -0.3088
14734TIP3    H265694   5.055   1.501  17.343  2.0980 -0.2651 -0.2679
14735TIP3   OH265695   0.996   6.044  17.251 -0.3874 -0.4777  0.9053
14735TIP3    H165696   1.077   6.047  17.200  0.5224  1.9218  2.4267
14735TIP3    H265697   0.927   6.029  17.185  0.9865  0.1344 -0.7185
14736TIP3   OH265698   4.536   6.195   4.185  0.0587  0.3004 -0.1785
14736TIP3    H165699   4.610   6.249   4.157 -0.6166  2.2441  1.5940
14736TIP3    H265700   4.469   6.210   4.118  0.4661  0.3740 -0.5678
14737TIP3   OH265701   1.307   0.236   2.667  0.3144 -0.0881 -0.0055
14737TIP3    H165702   1.311   0.218   2.761  0.3960 -0.2214 -0.0357
14737TIP3    H265703   1.399   0.241   2.639  0.2871 -0.5604 -0.1805
14738TIP3   OH265704   5.437   5.043  13.942 -0.0030 -0.0024  0.0471
14738TIP3    H165705   5.371   5.106  13.912 -1.6733 -2.6496 -2.1059
14738TIP3    H265706   5.504   5.045  13.874  0.3701  0.0580  0.4156
14739TIP3   OH265707   3.176   0.682   5.194 -0.0230 -0.5172  0.3641
14739TIP3    H165708   3.223   0.730   5.263  1.1307 -0.3133 -0.5467
14739TIP3    H265709   3.123   0.748   5.151  0.1089 -0.4241  0.3422
14740TIP3   OH265710   5.642   4.059  11.625 -0.2398  0.6480 -0.7589
14740TIP3    H165711   5.663   4.080  11.534 -1.3181  1.9487 -0.7213
14740TIP3    H265712   5.562   4.007  11.620 -0.0602  0.3525 -0.5706
14741TIP3   OH265713   2.240   6.619  15.529  0.1905  0.0295 -0.1790
14741TIP3    H165714   2.335   6.628  15.521  0.2835 -0.1144  0.7553
14741TIP3    H265715   2.220   6.649  15.617 -0.4806 -1.1621  0.0835
14742TIP3   OH265716   1.591   4.311  13.929  0.1119 -0.5842 -0.4912
14742TIP3    H165717   1.629   4.394  13.900 -1.6994  0.3743 -0.1898
14742TIP3    H265718   1.597   4.315  14.025 -1.3172 -0.1256 -0.4085
14743TIP3   OH265719   3.638   5.977   1.904  0.2282 -0.1640  0.6283
14743TIP3    H165720   3.569   5.991   1.970 -0.1022  0.0193  0.2465
14743TIP3    H265721   3.591   5.938   1.830  0.4074  0.7121  0.0606
14744TIP3   OH265722   0.832   5.794   3.437 -0.5210  0.2164 -0.4044
14744TIP3    H165723   0.808   5.703   3.449  0.9289 -0.0755  0.3809
14744TIP3    H265724   0.856   5.800   3.344  1.3361 -0.6995 -0.0141
14745TIP3   OH265725   4.375   1.522  14.342  0.4548  0.0994 -0.0005
14745TIP3    H165726   4.375   1.435  14.303  1.0176 -0.3650  1.0128
14745TIP3    H265727   4.332   1.577  14.277  1.3414 -0.6562 -1.2541
14746TIP3   OH265728   1.715   3.359  10.498  0.3580  0.5097 -0.3483
14746TIP3    H165729   1.734   3.294  10.430 -2.1070  1.9433 -2.4798
14746TIP3    H265730   1.766   3.436  10.473 -0.7875  1.1435 -0.7519
14747TIP3   OH265731   0.816   5.415   4.238  0.1697  0.6284  0.4365
14747TIP3    H165732   0.863   5.399   4.156  0.5290  0.0523  0.7540
14747TIP3    H265733   0.794   5.509   4.235  1.9462  1.0689  0.5850
14748TIP3   OH265734   2.645   0.187   0.079  0.0204 -0.4040 -0.1271
14748TIP3    H165735   2.722   0.160   0.030  2.0130  1.6651  1.7561
14748TIP3    H265736   2.636   0.122   0.149  0.3291 -0.4041 -0.0868
14749TIP3   OH265737   3.328   1.668   0.527 -0.3301  0.3032  0.0288
14749TIP3    H165738   3.322   1.581   0.567  0.4561  0.3394  0.2432
14749TIP3    H265739   3.272   1.663   0.449  1.5493 -1.1435 -1.2662
14750TIP3   OH265740   6.480   2.536  14.370 -0.3768  0.2890 -0.6878
14750TIP3    H165741   6.526   2.526  14.453  1.1309 -0.7141 -1.6121
14750TIP3    H265742   6.400   2.484  14.381 -0.1323  0.0714  0.0988
14751TIP3   OH265743   5.327   3.865  12.160  0.2017  0.0438 -0.0363
14751TIP3    H165744   5.268   3.835  12.090 -1.3032  0.2867  1.1073
14751TIP3    H265745   5.356   3.951  12.131  3.5317 -1.8356 -2.7261
14752TIP3   OH265746   1.203   6.331  11.181  0.0210  0.5581 -0.4212
14752TIP3    H165747   1.147   6.368  11.249  1.0158  1.3169 -0.0012
14752TIP3    H265748   1.154   6.345  11.100 -0.5803  0.8499 -0.0132
14753TIP3   OH265749   0.156   3.252  15.529  0.2474 -0.2732  0.3628
14753TIP3    H165750   0.193   3.323  15.476 -0.5832  0.4988  0.8008
14753TIP3    H265751   0.150   3.289  15.617 -2.4133 -0.0618  0.1228
14754TIP3   OH265752   2.751   3.474  15.126 -0.2758 -0.3858 -0.3321
14754TIP3    H165753   2.821   3.424  15.169 -0.7728 -1.5030 -0.7937
14754TIP3    H265754   2.797   3.531  15.065  0.4989  1.8931  2.2993
14755TIP3   OH265755   1.991   1.776  13.852 -0.1258  0.2229  0.5080
14755TIP3    H165756   2.057   1.768  13.783 -0.5721  0.5625  0.0338
14755TIP3    H265757   2.039   1.809  13.928  0.3607 -0.1107  0.3477
14756TIP3   OH265758   0.246   0.972   4.358 -0.4679 -0.9107 -0.2477
14756TIP3    H165759   0.203   0.936   4.436 -0.6938  0.9239  0.5133
14756TIP3    H265760   0.293   1.049   4.391 -2.0933  0.9950 -2.2320
14757TIP3   OH265761   3.709   0.894  11.491 -0.0067  0.3957 -0.1909
14757TIP3    H165762   3.637   0.872  11.432  1.0559  0.0651 -1.3870
14757TIP3    H265763   3.731   0.985  11.469 -2.0468  1.5565  2.2850
14758TIP3   OH265764   5.262   3.922  15.867 -0.0144  0.3556  0.2640
14758TIP3    H165765   5.182   3.962  15.900  0.2093  1.3931 -0.4146
14758TIP3    H265766   5.322   3.921  15.942 -0.7776 -0.7730  0.8747
14759TIP3   OH265767   6.122   4.173  12.446  0.1687 -0.0946 -0.2784
14759TIP3    H165768   6.087   4.143  12.530 -2.0811 -0.3543 -1.3014
14759TIP3    H265769   6.134   4.093  12.395  1.1915  0.1012 -0.3707
14760TIP3   OH265770   5.251   5.605  13.914 -0.5403 -0.0257 -0.4425
14760TIP3    H165771   5.278   5.684  13.867 -0.4998  0.0821 -0.2376
14760TIP3    H265772   5.314   5.538  13.888  0.2821  0.3740  0.5049
14761TIP3   OH265773   1.275   2.379  15.528 -0.5059 -0.2808 -0.1200
14761TIP3    H165774   1.203   2.316  15.531  0.0826 -1.0535 -1.5577
14761TIP3    H265775   1.290   2.393  15.434  2.9593 -2.2015  0.0676
14762TIP3   OH265776   5.177   3.074   5.299 -0.0740 -0.3894 -0.6885
14762TIP3    H165777   5.232   3.049   5.225  0.1838 -1.8934 -0.0181
14762TIP3    H265778   5.233   3.130   5.353  0.3375 -0.7772 -0.7112
14763TIP3   OH265779   3.284   0.608  15.967 -0.4026  0.0425  0.0811
14763TIP3    H165780   3.225   0.582  16.038 -1.0924 -0.1022 -0.5347
14763TIP3    H265781   3.357   0.651  16.012 -0.8903  0.0722  0.8736
14764TIP3   OH265782   6.469   0.417   5.542 -0.1742  0.2985 -0.1227
14764TIP3    H165783   6.536   0.445   5.604  1.2776  1.7436 -2.2509
14764TIP3    H265784   6.386   0.429   5.588  0.9255  0.0472  1.9811
14765TIP3   OH265785   0.721   1.423   0.829  0.5776  0.3647 -0.3395
14765TIP3    H165786   0.629   1.420   0.853  0.2556  0.1174 -1.5746
14765TIP3    H265787   0.726   1.485   0.757  1.5377  1.1477  0.3861
14766TIP3   OH265788   4.010   3.755   5.883  0.1387  0.0048  0.3103
14766TIP3    H165789   4.001   3.660   5.885  0.9962 -0.0830  0.7551
14766TIP3    H265790   3.928   3.788   5.919 -0.2545 -0.5626 -0.0674
14767TIP3   OH265791   3.516   3.386  12.053  0.4746  0.1222  0.1050
14767TIP3    H165792   3.584   3.449  12.030  0.3248  0.5613  0.8419
14767TIP3    H265793   3.468   3.428  12.125 -1.8669  0.7447 -1.7344
14768TIP3   OH265794   1.392   3.129  16.914 -0.1085 -0.0239 -0.1491
14768TIP3    H165795   1.446   3.183  16.971 -0.3638 -0.1315  0.1936
14768TIP3    H265796   1.372   3.051  16.966  1.1481 -0.9449 -1.0001
14769TIP3   OH265797   4.551   1.768  11.845  0.1260  0.2064 -0.3834
14769TIP3    H165798   4.469   1.746  11.800 -0.0899  0.1122  0.0602
14769TIP3    H265799   4.614   1.780  11.773 -0.6646  1.9450 -0.8006
14770TIP3   OH265800   4.738   0.118   4.831  0.7585 -0.5788  0.4937
14770TIP3    H165801   4.790   0.112   4.912  1.2314 -2.1150  0.0952
14770TIP3    H265802   4.648   0.130   4.862  1.2190  1.1555  1.2039
14771TIP3   OH265803   0.054   4.480   1.189 -0.1838  0.1969 -0.2459
14771TIP3    H165804   0.104   4.400   1.174 -1.1414 -0.5123  0.2848
14771TIP3    H265805  -0.018   4.475   1.126  0.8626  1.6122 -1.5714
14772TIP3   OH265806   0.420   5.638   2.160 -0.3685  0.0624  0.6172
14772TIP3    H165807   0.386   5.671   2.244  2.1231  0.6725  1.4274
14772TIP3    H265808   0.366   5.561   2.142 -3.1029  1.7554  1.1249
14773TIP3   OH265809   0.660   6.658  12.351 -0.4650  0.2422  0.0578
14773TIP3    H165810   0.664   6.691  12.261 -1.5365  0.1261 -0.0459
14773TIP3    H265811   0.566   6.655  12.371 -0.2696 -0.4676  0.9118
14774TIP3   OH265812   5.279   4.833  13.139  0.3099 -0.3255  0.2394
14774TIP3    H165813   5.220   4.854  13.211  0.3791  2.8837 -0.5838
14774TIP3    H265814   5.235   4.762  13.092 -0.8468 -0.8383  2.0607
14775TIP3   OH265815   2.284   4.042  13.538 -0.5500  0.0298 -0.2382
14775TIP3    H165816   2.286   4.049  13.443 -3.1609 -0.2485 -0.3243
14775TIP3    H265817   2.274   4.133  13.568 -1.0575 -0.0242 -0.2553
14776TIP3   OH265818   0.603   0.833  15.836 -0.0617  0.2653 -0.6128
14776TIP3    H165819   0.611   0.873  15.923 -3.0967  0.5949 -0.4224
14776TIP3    H265820   0.528   0.877  15.796  1.2619  0.0946 -3.4218
14777TIP3   OH265821   2.281   5.092   2.276  0.0670 -0.0953  0.5198
14777TIP3    H165822   2.252   5.072   2.365  0.8701  1.1515  1.0743
14777TIP3    H265823   2.211   5.146   2.239 -0.6504 -1.2947  0.0956
14778TIP3   OH265824   2.957   1.550   4.801 -0.1495  0.1644  0.3883
14778TIP3    H165825   2.873   1.544   4.757 -0.5163 -2.2132  1.3658
14778TIP3    H265826   3.021   1.557   4.730 -1.1132  1.5496 -0.3624
14779TIP3   OH265827   1.459   0.720  13.059 -0.4533  0.3836  0.2199
14779TIP3    H165828   1.460   0.780  12.985 -1.1702  1.1260  0.8019
14779TIP3    H265829   1.551   0.708  13.082 -0.3210  1.5343  0.3187
14780TIP3   OH265830   1.060   4.856  13.538 -0.3676  0.3574 -0.1125
14780TIP3    H165831   1.155   4.869  13.546 -0.2967  0.6914 -1.4129
14780TIP3    H265832   1.022   4.916  13.602  0.2425  1.5603 -0.8479
14781TIP3   OH265833   3.151   2.741  10.568 -0.2493 -0.0202 -0.6201
14781TIP3    H165834   3.240   2.771  10.549  0.6335 -2.1434 -0.0166
14781TIP3    H265835   3.105   2.747  10.485  0.5757  0.6983 -1.0303
14782TIP3   OH265836   6.116   3.286   1.041 -0.6032  0.9657 -0.1715
14782TIP3    H165837   6.133   3.209   1.096 -0.4674  0.6294 -0.6791
14782TIP3    H265838   6.040   3.262   0.989  0.4305  0.5228 -1.5234
14783TIP3   OH265839   3.406   0.734   0.741 -0.3450  0.1361 -0.3020
14783TIP3    H165840   3.339   0.782   0.692 -1.6976 -1.1387  0.2599
14783TIP3    H265841   3.399   0.767   0.830  0.2374  0.4797 -0.3808
14784TIP3   OH265842   0.253   5.915  11.527  0.1367  0.0951  0.6869
14784TIP3    H165843   0.208   5.930  11.610  1.3246  0.7627  1.2186
14784TIP3    H265844   0.230   5.825  11.504  0.2040 -0.2716  1.9969
14785TIP3   OH265845   1.842   6.658  13.267 -0.0747 -0.1399 -0.1776
14785TIP3    H165846   1.812   6.574  13.230 -1.0596  0.7578 -1.4582
14785TIP3    H265847   1.762   6.708  13.280  0.5700  0.8855 -0.1280
14786TIP3   OH265848   3.118   3.903   2.166 -0.3806 -0.0682  0.0881
14786TIP3    H165849   3.159   3.888   2.081 -0.2226 -1.5495  0.4192
14786TIP3    H265850   3.034   3.856   2.161 -1.8957  2.5801 -0.4378
14787TIP3   OH265851   3.727   1.311   5.416 -0.1319 -0.2759 -0.7014
14787TIP3    H165852   3.636   1.284   5.403 -0.0142 -1.0280  0.0023
14787TIP3    H265853   3.727   1.359   5.499 -0.0893  0.7282 -1.2703
14788TIP3   OH265854   1.225   3.506  12.411  0.4657  0.1995  0.1502
14788TIP3    H165855   1.226   3.520  12.317 -0.2804 -0.6804  0.0025
14788TIP3    H265856   1.215   3.593  12.448  0.8126  0.5536 -0.5832
14789TIP3   OH265857   1.998   1.142  17.049 -0.1988 -0.0371  0.4377
14789TIP3    H165858   1.977   1.235  17.036 -1.5263 -0.4113 -0.1769
14789TIP3    H265859   1.913   1.099  17.054  0.4171 -1.3464 -0.1878
14790TIP3   OH265860   1.903   6.248  14.150 -0.1428 -0.1518  0.1625
14790TIP3    H165861   1.920   6.337  14.118 -1.4791  0.1988  0.4083
14790TIP3    H265862   1.976   6.197  14.116  0.6857  1.0532  0.0763
14791TIP3   OH265863   1.295   6.325   0.495 -0.3223 -0.3830  0.1762
14791TIP3    H165864   1.335   6.323   0.582 -0.0416 -1.0452  0.0363
14791TIP3    H265865   1.229   6.256   0.498  1.0163 -1.7423 -0.7578
14792TIP3   OH265866   6.170   5.366   3.841  0.0816  0.6025 -0.1164
14792TIP3    H165867   6.264   5.371   3.825  0.3667 -1.8159  0.5917
14792TIP3    H265868   6.159   5.288   3.896 -1.9621  2.7443  2.6484
14793TIP3   OH265869   3.503   1.920  10.993 -0.4469 -0.0753 -0.0837
14793TIP3    H165870   3.458   1.977  10.931  0.2860  0.5559 -0.0344
14793TIP3    H265871   3.488   1.831  10.960  0.4284  0.2939 -1.4726
14794TIP3   OH265872   4.448   5.906  16.842 -0.1226 -0.0010  1.0946
14794TIP3    H165873   4.476   5.865  16.924 -0.6696  0.1196  1.3458
14794TIP3    H265874   4.369   5.955  16.865 -0.2186  0.1237  0.5185
14795TIP3   OH265875   0.899   0.043  14.159  0.1498 -0.2435  0.2902
14795TIP3    H165876   0.974   0.056  14.218 -0.0347 -1.9334  0.9097
14795TIP3    H265877   0.938   0.029  14.073  0.4782  0.3242  0.3380
14796TIP3   OH265878   3.886   2.530   4.826 -0.1818 -0.3805 -0.4401
14796TIP3    H165879   3.948   2.460   4.807  0.8484  0.8199 -1.6115
14796TIP3    H265880   3.802   2.498   4.792 -0.1674 -1.8862  0.8828
14797TIP3   OH265881   0.880   0.444   4.996  0.1088  0.3122  0.0970
14797TIP3    H165882   0.856   0.352   4.989 -0.3383  0.4868 -0.7001
14797TIP3    H265883   0.938   0.448   5.072  3.3465 -1.2873 -2.1799
14798TIP3   OH265884   3.845   5.277   6.092  0.0986  0.1881 -0.7087
14798TIP3    H165885   3.832   5.357   6.040 -1.3999  0.0698 -0.5395
14798TIP3    H265886   3.814   5.300   6.179  1.4477 -0.0084 -0.1589
14799TIP3   OH265887   5.533   3.054   3.431  0.3490  0.6779 -0.1994
14799TIP3    H165888   5.482   3.126   3.395  0.5510  0.9858  0.1374
14799TIP3    H265889   5.509   2.978   3.377  1.3054  1.3183 -1.5548
14800TIP3   OH265890   1.563   4.509   1.319 -0.1066  0.5650  0.0988
14800TIP3    H165891   1.492   4.481   1.376 -0.0189  1.7852  0.8275
14800TIP3    H265892   1.592   4.429   1.276 -2.2605  0.1227 -0.6097
14801TIP3   OH265893   2.886   3.652   5.892  0.1271 -0.7074  0.7837
14801TIP3    H165894   2.815   3.594   5.865  0.0210 -0.4214  0.4271
14801TIP3    H265895   2.951   3.595   5.933  0.3372 -1.1826 -0.1785
14802TIP3   OH265896   4.347   6.414   4.500 -0.6803 -0.1175  0.5425
14802TIP3    H165897   4.429   6.376   4.469 -0.3825  1.1052 -0.2088
14802TIP3    H265898   4.358   6.423   4.594  1.6345  3.7054 -0.0058
14803TIP3   OH265899   0.821   6.193   0.237  0.3315 -0.4336 -0.6719
14803TIP3    H165900   0.877   6.270   0.242 -0.8434  0.5033 -1.6423
14803TIP3    H265901   0.881   6.120   0.228  1.4504  0.3962 -0.0680
14804TIP3   OH265902   1.828   2.952  10.532 -0.0743 -0.5672 -0.0034
14804TIP3    H165903   1.834   3.029  10.475  0.5273  0.6217  1.6262
14804TIP3    H265904   1.915   2.945  10.572 -0.5902 -1.1672  1.0438
14805TIP3   OH265905   5.772   6.425   4.722  0.4077  0.2784 -0.5565
14805TIP3    H165906   5.817   6.378   4.793 -0.3470 -1.0017 -0.9140
14805TIP3    H265907   5.823   6.505   4.710  1.3344 -0.1426  0.5069
14806TIP3   OH265908   2.957   4.693  15.504  0.8348 -0.3072  0.0296
14806TIP3    H165909   2.926   4.617  15.553 -2.6004  0.8136 -0.2432
14806TIP3    H265910   2.928   4.768  15.556  2.1295  0.8465 -0.8807
14807TIP3   OH265911   2.372   1.680  14.985  0.0165  0.0117  0.4055
14807TIP3    H165912   2.406   1.770  14.994  1.1560 -0.3622 -0.0423
14807TIP3    H265913   2.363   1.667  14.891 -2.4252  0.4654  0.5432
14808TIP3   OH265914   0.010   2.148  11.259  0.4008  0.6072 -0.2653
14808TIP3    H165915   0.095   2.107  11.242 -0.4665 -1.2098 -0.4065
14808TIP3    H265916  -0.031   2.153  11.173 -0.5737 -0.7153  0.1109
14809TIP3   OH265917   6.441   6.733  13.396  0.1987  0.0250 -0.2086
14809TIP3    H165918   6.417   6.727  13.489 -2.2212  0.1497 -0.7812
14809TIP3    H265919   6.457   6.827  13.382  0.8540 -0.0324  0.1469
14810TIP3   OH265920   2.196   0.239   0.566  0.2173 -0.5134 -0.2387
14810TIP3    H165921   2.205   0.214   0.474  0.9090  0.4721 -0.4421
14810TIP3    H265922   2.207   0.334   0.566  0.3960 -0.5336  0.8819
14811TIP3   OH265923   0.629   0.053  14.857  0.1861 -0.5326 -0.0262
14811TIP3    H165924   0.542   0.056  14.898 -0.0420 -1.0005 -0.4686
14811TIP3    H265925   0.635  -0.035  14.820  0.5864 -0.2820 -0.5631
14812TIP3   OH265926   6.498   2.788  14.666 -0.1774  0.5552  0.1145
14812TIP3    H165927   6.481   2.694  14.669 -1.8850  0.8177 -0.4291
14812TIP3    H265928   6.574   2.802  14.723  0.5205 -1.2342 -0.3719
14813TIP3   OH265929   6.319   2.348   3.193  0.2480  0.3281  0.4275
14813TIP3    H165930   6.239   2.334   3.243 -0.7240 -0.9814 -1.4160
14813TIP3    H265931   6.379   2.280   3.224 -0.9931 -1.6955 -1.3984
14814TIP3   OH265932   4.076   2.017   0.874 -0.3750  0.1560 -0.6033
14814TIP3    H165933   4.044   2.081   0.937  1.5653 -0.2840  0.8722
14814TIP3    H265934   4.044   1.933   0.905 -1.1846  0.1666 -1.3905
14815TIP3   OH265935   0.212   1.215   5.709 -0.0078 -0.4228  0.0214
14815TIP3    H165936   0.281   1.163   5.750 -0.3076 -0.5403  0.3858
14815TIP3    H265937   0.161   1.151   5.659  1.0781 -0.0969 -1.5504
14816TIP3   OH265938   5.353   0.242  16.947  0.3686 -0.2061  0.3720
14816TIP3    H165939   5.399   0.162  16.922  1.5327 -0.1890  2.3400
14816TIP3    H265940   5.370   0.303  16.875 -1.6074 -2.0975 -1.7791
14817TIP3   OH265941   2.289   1.826   4.060  0.3366  0.0760 -0.5097
14817TIP3    H165942   2.385   1.830   4.065  0.4742 -2.4078 -0.2617
14817TIP3    H265943   2.270   1.839   3.967  0.9731  0.0896 -0.6472
14818TIP3   OH265944   5.760   2.231   0.609  0.2741  0.1196  0.3671
14818TIP3    H165945   5.827   2.290   0.643  0.5878  0.6639 -1.1600
14818TIP3    H265946   5.684   2.287   0.592 -0.5768 -0.4829  2.0275
14819TIP3   OH265947   6.207   5.559   4.359  0.2540  0.5717  0.0188
14819TIP3    H165948   6.180   5.579   4.270 -1.9402 -2.0046  0.0702
14819TIP3    H265949   6.290   5.512   4.350  0.2756  0.7393 -0.6286
14820TIP3   OH265950   4.962   0.000  15.740  0.1983  0.4042 -0.3612
14820TIP3    H165951   4.978   0.061  15.668 -0.5166 -0.4033 -1.2080
14820TIP3    H265952   4.874   0.022  15.771  1.1605  1.8907  1.3979
14821TIP3   OH265953   3.470   5.689  16.005  0.1216  0.2425  0.1168
14821TIP3    H165954   3.478   5.677  16.100 -0.6353 -0.4309  0.1027
14821TIP3    H265955   3.376   5.701  15.990  0.1714 -0.2233 -0.6071
14822TIP3   OH265956   0.830   0.363  16.798 -0.5034  0.1113  0.0791
14822TIP3    H165957   0.813   0.415  16.877  1.0369  0.4178  0.2449
14822TIP3    H265958   0.841   0.429  16.729 -0.9146 -0.1063 -0.1861
14823TIP3   OH265959   3.656   2.924   3.214 -0.1390  0.2315  0.0979
14823TIP3    H165960   3.584   2.915   3.276  0.4670  1.5560  1.0253
14823TIP3    H265961   3.624   2.986   3.149 -0.8045 -1.2194 -0.9839
14824TIP3   OH265962   5.432   3.496   0.603  0.2523 -0.3760 -0.0079
14824TIP3    H165963   5.396   3.540   0.526  2.7170  1.3429 -0.2188
14824TIP3    H265964   5.399   3.546   0.677 -3.4842 -2.9977  0.2674
14825TIP3   OH265965   0.864   3.928   5.292 -0.2330 -0.0137  0.0369
14825TIP3    H165966   0.796   3.894   5.234  0.5820 -0.4007 -0.6959
14825TIP3    H265967   0.892   3.852   5.343  0.9608 -0.2578 -0.9721
14826TIP3   OH265968   1.281   2.013   2.807  0.3237 -0.1949 -0.4146
14826TIP3    H165969   1.310   1.976   2.891 -0.2329  0.0666 -0.1099
14826TIP3    H265970   1.341   1.974   2.743  0.2003 -1.0758 -0.0110
14827TIP3   OH265971   0.672   1.643  11.382  0.0171  0.0874 -0.0253
14827TIP3    H165972   0.590   1.596  11.394 -0.2580  0.6975  0.5688
14827TIP3    H265973   0.722   1.624  11.462  0.4222 -0.2160 -0.3485
14828TIP3   OH265974   2.210   2.920  12.748 -0.2338  0.3833 -0.0792
14828TIP3    H165975   2.192   3.007  12.784 -0.1641  1.2862 -2.1195
14828TIP3    H265976   2.150   2.862  12.794  0.0363  1.4377  1.6403
14829TIP3   OH265977   5.650   2.274   4.924  0.1726  0.4126 -0.0848
14829TIP3    H165978   5.730   2.223   4.937  1.3281  2.0213 -0.7032
14829TIP3    H265979   5.632   2.268   4.831  0.8660  1.8934 -0.3332
14830TIP3   OH265980   6.476   3.555  16.981 -0.7871 -0.4549  0.2377
14830TIP3    H165981   6.423   3.528  17.056  0.4258  0.4688  1.4531
14830TIP3    H265982   6.530   3.479  16.962 -0.1736 -0.2486  1.1397
14831TIP3   OH265983   5.776   5.590   3.638 -0.1085 -0.5351  0.0929
14831TIP3    H165984   5.810   5.501   3.627  1.3390  0.1191 -0.9323
14831TIP3    H265985   5.714   5.601   3.567 -0.2603 -0.7196  0.1980
14832TIP3   OH265986   4.964   5.069   4.999 -0.1041  0.2953 -0.3670
14832TIP3    H165987   5.052   5.090   5.028 -0.4819 -1.6954  2.4780
14832TIP3    H265988   4.908   5.089   5.075 -1.7371 -0.7934 -1.2475
14833TIP3   OH265989   6.302   4.827  15.745  0.9269  0.3838  0.3705
14833TIP3    H165990   6.249   4.752  15.774  1.0496  0.0049 -0.3866
14833TIP3    H265991   6.247   4.903  15.765  1.0306  0.1351  1.6569
14834TIP3   OH265992   4.181   0.123  16.386 -0.2509 -0.2781  0.1381
14834TIP3    H165993   4.124   0.175  16.329  0.4361  0.4014  0.0568
14834TIP3    H265994   4.125   0.053  16.419 -1.1120  0.3385  0.0011
14835TIP3   OH265995   3.281   0.784   2.951 -0.5340 -0.3711 -0.1846
14835TIP3    H165996   3.230   0.861   2.974  0.4410  0.3277 -0.3298
14835TIP3    H265997   3.230   0.740   2.883 -1.6123 -0.4382  0.6639
14836TIP3   OH265998   1.362   1.274  14.424 -0.0967 -0.0579  0.1923
14836TIP3    H165999   1.315   1.342  14.473  1.4946  0.9950  0.2917
14836TIP3    H266000   1.377   1.204  14.488 -0.0055  0.3478  0.6176
14837TIP3   OH266001   3.391   4.404  14.881  0.6100 -0.0063 -0.2137
14837TIP3    H166002   3.468   4.373  14.928  0.9661 -1.1387 -1.4872
14837TIP3    H266003   3.317   4.375  14.934  1.0455  0.1865  0.4929
14838TIP3   OH266004   4.809   6.792   5.935  0.0169 -0.0757  0.3282
14838TIP3    H166005   4.766   6.869   5.973 -0.4316 -0.4977  0.6798
14838TIP3    H266006   4.745   6.722   5.944  0.8359 -0.7388  0.9695
14839TIP3   OH266007   3.969   1.777   0.989  0.4417  0.3719  0.6195
14839TIP3    H166008   4.029   1.736   1.052  1.3325  1.5582  0.5631
14839TIP3    H266009   3.903   1.819   1.044 -1.5948 -2.7035  0.6545
14840TIP3   OH266010   6.422   0.283  17.241  0.2723  0.1040 -0.1311
14840TIP3    H166011   6.358   0.216  17.267  1.8234 -0.8147  1.4332
14840TIP3    H266012   6.502   0.259  17.288  1.0965  2.5951 -0.2172
14841TIP3   OH266013   6.684   5.894   1.043  0.5371 -0.2328  0.4991
14841TIP3    H166014   6.731   5.964   1.089  1.0907 -0.2898  0.0361
14841TIP3    H266015   6.594   5.924   1.039  0.6497  0.1636  0.8665
14842TIP3   OH266016   2.709   0.108  12.608  0.2869 -0.3719  0.2311
14842TIP3    H166017   2.615   0.095  12.623  0.2813  1.6229  2.2486
14842TIP3    H266018   2.722   0.086  12.516 -2.0795 -1.0783  0.0262
14843TIP3   OH266019   4.176   2.009   1.786  0.2919  0.0861  0.4539
14843TIP3    H166020   4.188   2.090   1.736  0.7790  0.3353  0.9771
14843TIP3    H266021   4.124   2.035   1.862  0.0351 -0.1879  0.3728
14844TIP3   OH266022   4.333   1.887  13.188  0.3281 -0.8448 -0.0905
14844TIP3    H166023   4.399   1.886  13.120  1.6453 -0.5734  1.1578
14844TIP3    H266024   4.332   1.977  13.220 -0.2782 -0.9662  0.2418
14845TIP3   OH266025   0.227   3.655   4.925 -0.2727  0.1183 -0.2696
14845TIP3    H166026   0.256   3.585   4.984 -0.5698  0.4888  0.3156
14845TIP3    H266027   0.193   3.722   4.983  0.8455  1.1419 -0.7741
14846TIP3   OH266028   6.043   4.731  13.703 -0.1762  0.1387  0.1666
14846TIP3    H166029   5.949   4.746  13.711  0.0765  2.1022 -0.2369
14846TIP3    H266030   6.052   4.636  13.697 -1.9663 -0.1818  2.1699
14847TIP3   OH266031   6.544   6.056  17.026  0.2406 -0.2712  0.0275
14847TIP3    H166032   6.636   6.077  17.046  0.9030 -1.4928 -1.6069
14847TIP3    H266033   6.547   5.966  16.993 -1.1944  0.5412 -2.4543
14848TIP3   OH266034   4.168   5.522  12.911  0.0019 -0.2782  0.1961
14848TIP3    H166035   4.224   5.473  12.850 -1.0913 -2.5072  0.9464
14848TIP3    H266036   4.158   5.464  12.986 -0.6523  1.4563  1.4621
14849TIP3   OH266037   5.631   3.525  12.737  0.3395  0.3560 -0.2129
14849TIP3    H166038   5.551   3.566  12.703 -0.5062 -0.3706  0.8884
14849TIP3    H266039   5.672   3.487  12.660  0.0235  1.4009 -0.9125
14850TIP3   OH266040   2.143   5.652   3.267  0.0582 -0.2093 -0.1273
14850TIP3    H166041   2.122   5.705   3.343  2.7159  2.0642 -0.9095
14850TIP3    H266042   2.080   5.680   3.200 -0.1634  0.1624  0.2401
14851TIP3   OH266043   3.180   4.409   4.687  0.2157 -0.2043  0.2522
14851TIP3    H166044   3.177   4.501   4.661  2.7822 -0.1863 -0.0883
14851TIP3    H266045   3.111   4.368   4.636  0.3716  1.1651 -1.0990
14852TIP3   OH266046   5.553   3.090  12.399  0.7083  0.4571  0.1984
14852TIP3    H166047   5.552   3.011  12.453 -1.2850 -0.7653 -1.5249
14852TIP3    H266048   5.624   3.075  12.336  0.2685 -0.0236 -0.1906
14853TIP3   OH266049   3.732   6.767  11.868 -0.1126  0.3098  0.3420
14853TIP3    H166050   3.741   6.713  11.790  0.7533  0.7110  0.1604
14853TIP3    H266051   3.818   6.763  11.910  0.0280  1.7710  0.1891
14854TIP3   OH266052   2.611   5.898   3.564  0.7038  0.6934 -0.0238
14854TIP3    H166053   2.587   5.818   3.611 -0.8137  1.6416  0.8590
14854TIP3    H266054   2.542   5.909   3.499  2.2571 -0.0581 -1.8659
14855TIP3   OH266055   0.482   1.294  16.054  0.5231 -0.2711  0.0767
14855TIP3    H166056   0.398   1.336  16.074 -0.2917 -1.5056 -0.6499
14855TIP3    H266057   0.510   1.257  16.138 -0.8686 -1.9183 -0.1521
14856TIP3   OH266058   4.802   5.390  10.808  0.2802 -0.0785  0.6884
14856TIP3    H166059   4.841   5.329  10.745 -0.0330  0.3961  0.0215
14856TIP3    H266060   4.731   5.432  10.759  1.7737  2.3020  0.4709
14857TIP3   OH266061   5.176   4.630  12.995 -0.6785 -0.3185 -0.2760
14857TIP3    H166062   5.217   4.609  12.912 -2.2077 -2.5962 -0.5067
14857TIP3    H266063   5.171   4.546  13.042 -0.8070  0.7324  1.6736
14858TIP3   OH266064   1.985   5.163  11.284 -0.4289 -0.1901  0.6976
14858TIP3    H166065   2.011   5.224  11.352  1.4949 -1.5536  1.2424
14858TIP3    H266066   1.948   5.088  11.331 -1.5896 -0.0168  0.0972
14859TIP3   OH266067   4.950   6.581   3.641  0.0326 -0.4664  0.3971
14859TIP3    H166068   5.011   6.585   3.715 -0.8430 -3.8853  1.3587
14859TIP3    H266069   4.864   6.576   3.682 -1.0035  3.8274 -0.9602
14860TIP3   OH266070   1.056   0.545  16.981  0.3345  0.0109  0.4856
14860TIP3    H166071   1.076   0.548  16.887 -1.2717 -0.5476  0.1133
14860TIP3    H266072   0.960   0.548  16.985  0.4236  1.1394  2.1551
14861TIP3   OH266073   0.534   1.532   0.361 -0.4606 -0.2483  0.6318
14861TIP3    H166074   0.466   1.593   0.333 -0.8081 -0.7998  0.2796
14861TIP3    H266075   0.598   1.534   0.290  0.3548  0.9761  1.3844
14862TIP3   OH266076   2.770   0.010   4.256  0.0631 -0.4796 -0.4668
14862TIP3    H166077   2.713  -0.062   4.285  1.5847 -1.2428  0.6903
14862TIP3    H266078   2.777  -0.002   4.161  1.2206 -2.5526 -0.1473
14863TIP3   OH266079   0.967   5.883   3.661  0.4031 -0.0789  0.6614
14863TIP3    H166080   0.897   5.931   3.706 -0.8858 -0.0595 -1.2981
14863TIP3    H266081   0.929   5.858   3.577  2.8081  0.0640 -0.5191
14864TIP3   OH266082   5.868   1.487  12.361  0.2104 -0.0499  0.1211
14864TIP3    H166083   5.813   1.434  12.419 -1.3232  1.0046 -0.3085
14864TIP3    H266084   5.931   1.529  12.419  1.4785 -2.3608  0.4531
14865TIP3   OH266085   1.246   2.742   3.431  0.0226  0.5601  0.6992
14865TIP3    H166086   1.203   2.785   3.358  0.1891 -0.7781 -0.1984
14865TIP3    H266087   1.176   2.721   3.492 -0.5414 -1.1380 -0.5163
14866TIP3   OH266088   1.114   4.005   0.333  0.2659  0.4436 -0.2428
14866TIP3    H166089   1.081   4.037   0.417  0.5124  0.8472 -0.3033
14866TIP3    H266090   1.036   3.970   0.289  0.2186 -0.2507  0.3682
14867TIP3   OH266091   1.283   4.319   2.399  0.4803 -0.5627  0.4462
14867TIP3    H166092   1.344   4.251   2.428  1.5223  0.8274  1.6026
14867TIP3    H266093   1.336   4.398   2.395 -1.1492  0.5855  1.0608
14868TIP3   OH266094   5.040   4.707  16.431 -0.6128  0.2927 -0.1195
14868TIP3    H166095   5.077   4.688  16.517  0.1398  0.5731 -0.3848
14868TIP3    H266096   5.067   4.797  16.412 -1.2851  0.4448 -0.3831
14869TIP3   OH266097   2.822   6.003  10.967  0.7118  0.2941  0.3026
14869TIP3    H166098   2.734   6.021  10.933  0.2700  0.0402  1.3181
14869TIP3    H266099   2.855   5.933  10.910  0.2898  0.4388 -0.1273
14870TIP3   OH266100   3.124   4.901  11.865  0.8320  0.0971  0.0218
14870TIP3    H166101   3.084   4.982  11.898  0.4724 -0.0604 -0.0286
14870TIP3    H266102   3.096   4.896  11.774  0.5149 -0.2994  0.1399
14871TIP3   OH266103   0.164   6.721   2.071 -0.5828 -0.1146 -0.4049
14871TIP3    H166104   0.094   6.733   2.006 -0.8351 -1.7990 -0.4582
14871TIP3    H266105   0.224   6.658   2.031 -0.1961 -0.3769  0.5701
14872TIP3   OH266106   1.156   4.792   6.251 -0.4647  0.0501 -0.4623
14872TIP3    H166107   1.227   4.855   6.245 -0.7657  0.4102 -0.2412
14872TIP3    H266108   1.142   4.780   6.345 -0.5456 -0.1898 -0.5038
14873TIP3   OH266109   2.120   6.023  15.720  0.3485  0.0379 -0.4294
14873TIP3    H166110   2.151   5.934  15.704  1.1784  0.1956  0.2706
14873TIP3    H266111   2.038   6.029  15.671  0.4353 -1.0155 -0.7138
14874TIP3   OH266112   4.171   4.738   4.890 -0.7874  0.6265  0.4256
14874TIP3    H166113   4.265   4.741   4.872 -0.3579 -0.1282  2.4154
14874TIP3    H266114   4.136   4.682   4.821  0.2280  0.8751 -0.3097
14875TIP3   OH266115   6.522   6.320   5.745  0.6902  0.3982 -0.6865
14875TIP3    H166116   6.555   6.278   5.665  2.5489  0.5115  0.0068
14875TIP3    H266117   6.505   6.410   5.719  0.2430  0.1660 -1.2254
14876TIP3   OH266118   4.382   1.739  12.087  0.1349 -0.0102  0.2240
14876TIP3    H166119   4.442   1.737  12.013 -0.2133 -0.2002 -0.0549
14876TIP3    H266120   4.296   1.722  12.049 -0.1445  0.5870  0.5727
14877TIP3   OH266121   6.660   1.684   2.751 -0.3859  0.0667  0.4478
14877TIP3    H166122   6.568   1.694   2.728 -0.2136  0.6101  0.0129
14877TIP3    H266123   6.702   1.653   2.671 -0.3128 -0.8737  0.8393
14878TIP3   OH266124   4.983   6.131   6.438 -0.6419  0.6428 -0.1853
14878TIP3    H166125   4.973   6.137   6.533 -1.0885  0.5807 -0.2257
14878TIP3    H266126   5.049   6.197   6.416  0.0168  0.1249  0.2588
14879TIP3   OH266127   5.851   2.147   5.073 -0.1075 -0.5820 -0.0857
14879TIP3    H166128   5.839   2.166   5.167 -2.2523 -0.5843 -0.3177
14879TIP3    H266129   5.799   2.068   5.058 -1.3805  0.5001 -1.6408
14880TIP3   OH266130   3.045   0.311  13.291 -0.0058  0.0267 -0.9229
14880TIP3    H166131   3.003   0.361  13.222 -0.2533  2.0010  0.5894
14880TIP3    H266132   3.022   0.220  13.273 -1.5210  0.6814 -2.4182
14881TIP3   OH266133   6.507   2.922   5.507 -0.5218  0.5367 -0.0996
14881TIP3    H166134   6.473   2.912   5.418 -0.4415  0.7655 -0.1571
14881TIP3    H266135   6.495   2.836   5.548  0.5436  0.0918 -0.7075
14882TIP3   OH266136   1.389   1.650   1.296 -0.6108  0.4926  0.1883
14882TIP3    H166137   1.439   1.694   1.228 -0.8483  0.1590 -0.2069
14882TIP3    H266138   1.455   1.608   1.351 -0.4473  0.2014 -0.2289
14883TIP3   OH266139   2.691   0.942   3.857 -0.2238 -0.2596 -0.0019
14883TIP3    H166140   2.766   0.962   3.801 -0.1261  0.9797  0.5370
14883TIP3    H266141   2.641   1.024   3.860  1.0498  0.4851  3.6516
14884TIP3   OH266142   5.983   5.776   3.350 -0.4180 -0.0907  0.1858
14884TIP3    H166143   5.889   5.758   3.345 -0.4693  0.6456 -1.4812
14884TIP3    H266144   6.015   5.762   3.261  0.9261  0.4162  0.5847
14885TIP3   OH266145   6.737   6.590  14.842 -0.1358 -0.4179  0.0086
14885TIP3    H166146   6.768   6.671  14.799  0.3172 -1.0627 -0.8949
14885TIP3    H266147   6.772   6.596  14.931  2.1941 -0.8746 -0.8394
14886TIP3   OH266148   3.456   4.276   0.134  0.6055 -0.1957  0.1689
14886TIP3    H166149   3.425   4.194   0.170  0.5956  0.1122  0.8690
14886TIP3    H266150   3.552   4.268   0.133  0.5597 -0.7971 -1.1689
14887TIP3   OH266151   2.120   1.015  14.640 -0.2625  0.0752  0.6610
14887TIP3    H166152   2.142   1.105  14.667  1.1565 -0.0039 -0.1964
14887TIP3    H266153   2.204   0.969  14.641 -0.3553 -0.2610 -2.6099
14888TIP3   OH266154   3.812   3.655  11.129  0.0704 -0.0194  0.4313
14888TIP3    H166155   3.826   3.615  11.043  2.3914 -0.9787  1.2177
14888TIP3    H266156   3.762   3.589  11.177  1.1134 -0.6408  0.6807
14889TIP3   OH266157   1.545   6.090   3.001  0.6608  0.8885 -0.9952
14889TIP3    H166158   1.453   6.098   2.974  0.1250 -0.1624  0.4722
14889TIP3    H266159   1.561   6.167   3.055  0.1038  0.1573  0.2292
14890TIP3   OH266160   5.008   2.952  17.289  0.0951 -0.2005  0.1281
14890TIP3    H166161   5.100   2.928  17.280  0.2544  0.7595 -0.9648
14890TIP3    H266162   4.994   3.018  17.221 -1.0776  0.5949  1.1218
14891TIP3   OH266163   6.689   0.655   2.899 -0.4960 -0.0445 -0.4960
14891TIP3    H166164   6.761   0.662   2.836 -0.6709  0.2064 -0.6711
14891TIP3    H266165   6.635   0.584   2.866  0.0762 -0.7361  0.0498
14892TIP3   OH266166   6.544   6.707  15.948 -0.2611  0.3284  0.3243
14892TIP3    H166167   6.488   6.728  15.873 -0.2479 -0.5652  0.0665
14892TIP3    H266168   6.614   6.652  15.912  0.6799  1.2686  0.6839
14893TIP3   OH266169   0.849   2.056  16.956  0.3488  0.3823  0.4610
14893TIP3    H166170   0.924   2.097  16.913  1.3319 -1.3163  0.5132
14893TIP3    H266171   0.773   2.094  16.912  1.2751  0.8781 -0.7578
14894TIP3   OH266172   2.882   5.579   4.524  0.1387 -0.5930  0.4013
14894TIP3    H166173   2.794   5.545   4.540 -0.0423  0.1018  0.9182
14894TIP3    H266174   2.868   5.672   4.504  0.6469 -0.7509 -0.7477
14895TIP3   OH266175   2.968   4.736   0.247  0.2915 -0.2972 -0.0114
14895TIP3    H166176   2.941   4.738   0.339  0.6491 -4.3793  0.2765
14895TIP3    H266177   2.890   4.710   0.199  0.8571 -1.1102 -0.5018
14896TIP3   OH266178   1.691   2.019   0.991 -0.3943 -0.8311  0.1543
14896TIP3    H166179   1.711   2.110   0.969 -1.7483 -0.6903 -0.5551
14896TIP3    H266180   1.776   1.978   1.001  0.2340  0.3867 -0.0748
14897TIP3   OH266181   5.219   2.074  16.369  0.0211  0.7863  0.3043
14897TIP3    H166182   5.140   2.064  16.317 -0.7055 -1.7975  1.8257
14897TIP3    H266183   5.189   2.111  16.452  0.3370 -0.6019  1.0459
14898TIP3   OH266184   3.780   4.872  16.602  0.6114  0.8309  0.3778
14898TIP3    H166185   3.823   4.957  16.595  0.6984  0.5928 -2.3248
14898TIP3    H266186   3.688   4.890  16.582  0.2003  0.6464  2.0375
14899TIP3   OH266187   6.194   6.782   4.451  0.3361 -0.0528 -0.6824
14899TIP3    H166188   6.200   6.808   4.543  0.1338  0.0992 -0.7125
14899TIP3    H266189   6.126   6.714   4.451  2.1466 -1.9224 -0.3055
14900TIP3   OH266190   3.699   1.266   4.620  0.0778 -0.0991  0.7223
14900TIP3    H166191   3.626   1.324   4.639  1.4206  1.4679  1.1942
14900TIP3    H266192   3.660   1.179   4.618 -2.2871  0.9332 -1.6640
14901TIP3   OH266193   4.298   0.537  16.491  0.2872  0.0226  0.0187
14901TIP3    H166194   4.350   0.456  16.488 -1.4382 -1.0773 -0.7391
14901TIP3    H266195   4.271   0.552  16.401 -0.7080  0.5848  0.3974
14902TIP3   OH266196   1.997   0.489  14.410  0.3736 -0.0898 -0.4491
14902TIP3    H166197   2.062   0.487  14.479  1.2430 -0.7413 -1.2777
14902TIP3    H266198   2.002   0.577  14.374 -0.2468  0.3231  0.4712
14903TIP3   OH266199   4.222   1.288   3.399  0.5094 -0.3091  0.8468
14903TIP3    H166200   4.165   1.287   3.476 -2.3517 -2.1223 -1.2148
14903TIP3    H266201   4.172   1.334   3.332  2.0618 -0.6354 -0.5813
14904TIP3   OH266202   1.400   6.574  13.702 -0.1466 -0.6854  0.1614
14904TIP3    H166203   1.326   6.607  13.651 -0.5121 -0.2880  0.9311
14904TIP3    H266204   1.468   6.555  13.637 -0.4036  0.3295 -0.4253
14905TIP3   OH266205   5.535   1.873  15.173 -0.3412  0.3007  0.4202
14905TIP3    H166206   5.536   1.879  15.077  0.2185  2.4652  0.5273
14905TIP3    H266207   5.453   1.915  15.199 -0.1087  0.4492  0.9272
14906TIP3   OH266208   2.829   2.611  14.912 -0.0800  0.0826  0.0333
14906TIP3    H166209   2.796   2.640  14.827 -1.9824  0.0456  0.7296
14906TIP3    H266210   2.806   2.518  14.916  0.2910  0.0052  0.4564
14907TIP3   OH266211   1.047   1.656  13.572  0.1739  0.4159 -0.0531
14907TIP3    H166212   1.116   1.590  13.583 -1.4078 -1.2736  0.0194
14907TIP3    H266213   1.022   1.680  13.661 -1.2120 -1.0220 -0.0336
14908TIP3   OH266214   6.698   1.036  14.126  0.4391  0.2018  0.1337
14908TIP3    H166215   6.671   1.126  14.109  1.1155 -0.0349 -2.2416
14908TIP3    H266216   6.728   1.037  14.217 -1.0336  1.9970  0.6344
14909TIP3   OH266217   4.486   1.335  11.657  0.0072 -0.3489 -0.5204
14909TIP3    H166218   4.403   1.321  11.612 -1.4200  2.2593  1.1725
14909TIP3    H266219   4.490   1.266  11.723 -0.2107 -1.2288 -1.4189
14910TIP3   OH266220   2.458   4.123  16.812 -0.3239  0.1672  0.5245
14910TIP3    H166221   2.498   4.045  16.774 -0.2027  0.0286  0.9408
14910TIP3    H266222   2.455   4.105  16.906 -0.0084  0.7961  0.6534
14911TIP3   OH266223   2.392   3.238  16.798  0.2015  0.1180 -0.4806
14911TIP3    H166224   2.468   3.222  16.742  0.6358 -0.0274  0.1556
14911TIP3    H266225   2.365   3.151  16.828  0.1085  0.2201 -0.2680
14912TIP3   OH266226   5.569   6.109   0.550  0.1757  1.1048  0.3200
14912TIP3    H166227   5.534   6.140   0.467  1.4582  0.8782 -0.3125
14912TIP3    H266228   5.549   6.180   0.612 -2.6525  0.3658  0.3189
14913TIP3   OH266229   2.656   1.452  14.018 -0.8729  0.0038  0.7514
14913TIP3    H166230   2.651   1.528  14.076 -1.0488  0.8424 -0.3585
14913TIP3    H266231   2.710   1.481  13.945  0.3319 -1.4240  1.0513
14914TIP3   OH266232   4.704   2.392  14.550 -0.2173  0.0878 -0.4732
14914TIP3    H166233   4.674   2.483  14.549 -0.4644 -0.0075 -1.8414
14914TIP3    H266234   4.687   2.360  14.462 -0.1276 -1.2918  0.0052
14915TIP3   OH266235   0.934   0.639   1.781 -0.3993  0.6711  0.3701
14915TIP3    H166236   0.855   0.586   1.769  0.9860 -0.8655 -2.2073
14915TIP3    H266237   0.949   0.636   1.876 -3.0882  0.5233  0.8497
14916TIP3   OH266238   2.239   2.195   2.801 -0.2501  0.1827  0.6622
14916TIP3    H166239   2.161   2.169   2.753 -0.4027  0.7959  0.5724
14916TIP3    H266240   2.303   2.216   2.732  0.4907 -1.7829  0.7368
14917TIP3   OH266241   5.729   4.192  11.403  0.4337 -0.0634 -0.3657
14917TIP3    H166242   5.701   4.165  11.316 -1.6239 -0.2300  0.3352
14917TIP3    H266243   5.709   4.285  11.407  0.3918 -0.0861 -0.0224
14918TIP3   OH266244   5.281   2.580   6.728  0.0586  0.0850 -0.1750
14918TIP3    H166245   5.193   2.561   6.695  0.1283  0.1095 -0.3741
14918TIP3    H266246   5.317   2.495   6.752  0.1881  0.0157 -0.6101
14919TIP3   OH266247   4.612   1.995   0.822 -0.2491 -0.2548  0.2507
14919TIP3    H166248   4.699   1.990   0.861  0.1533 -2.0718 -0.8128
14919TIP3    H266249   4.628   2.019   0.730 -0.9537  0.5592  0.3307
14920TIP3   OH266250   2.267   5.341  10.533 -0.6195 -0.7086 -0.1355
14920TIP3    H166251   2.362   5.343  10.523 -0.6564  0.9568 -0.2844
14920TIP3    H266252   2.243   5.249  10.522  0.9139 -1.0526 -0.6195
14921TIP3   OH266253   1.493   5.194   4.761 -0.1339  0.1071  0.0334
14921TIP3    H166254   1.443   5.227   4.686  1.2199 -2.4768 -2.1151
14921TIP3    H266255   1.489   5.099   4.752  0.9227 -0.2227  2.6959
14922TIP3   OH266256   2.398   6.787  11.918 -0.0466  0.0540  0.5691
14922TIP3    H166257   2.430   6.870  11.882  0.0510  1.2335  3.2166
14922TIP3    H266258   2.377   6.734  11.842  1.8623  1.7507 -1.1939
14923TIP3   OH266259   4.222   3.446   6.147 -0.9681  0.0877  0.1250
14923TIP3    H166260   4.221   3.519   6.085  2.1160  0.5231  0.5479
14923TIP3    H266261   4.220   3.487   6.233  0.6911 -0.3208  0.3676
14924TIP3   OH266262   2.867   0.592   4.345 -0.1324  0.6183  0.2265
14924TIP3    H166263   2.928   0.556   4.410  0.9803  1.4430 -0.3428
14924TIP3    H266264   2.923   0.639   4.283 -1.2656  0.5545 -0.8637
14925TIP3   OH266265   1.245   1.808   0.667 -0.2257 -0.0929  0.1193
14925TIP3    H166266   1.308   1.844   0.729  0.8431 -0.9731 -0.4400
14925TIP3    H266267   1.239   1.715   0.689 -0.9376 -0.1153 -0.1547
14926TIP3   OH266268   5.048   4.833   2.597 -0.4403  0.0953  0.1958
14926TIP3    H166269   5.054   4.927   2.619  0.1420  0.3130 -0.8779
14926TIP3    H266270   4.962   4.824   2.558 -0.3418  0.2583 -0.0601
14927TIP3   OH266271   0.259   6.002   1.227 -1.1052  0.2295  0.1078
14927TIP3    H166272   0.337   5.992   1.171 -1.1210  0.5417  0.0261
14927TIP3    H266273   0.196   6.048   1.172 -0.9465  0.9746  0.5419
14928TIP3   OH266274   6.791   1.412  12.174 -0.2865  0.0714  0.3261
14928TIP3    H166275   6.823   1.408  12.264  0.4048  0.1661  0.0848
14928TIP3    H266276   6.764   1.503  12.162  0.1471  0.1918  0.2565
14929TIP3   OH266277   4.199   3.698  14.920 -0.3267  0.3192 -0.0881
14929TIP3    H166278   4.245   3.664  14.843 -0.4938 -0.5228  0.1807
14929TIP3    H266279   4.129   3.634  14.936 -1.0024  1.0995  0.0739
14930TIP3   OH266280   0.019   1.089   4.201  0.2538 -0.3581 -0.1878
14930TIP3    H166281   0.045   1.082   4.293  1.3802 -0.7060 -0.5263
14930TIP3    H266282  -0.055   1.029   4.193 -0.5200  0.4495  0.7265
14931TIP3   OH266283   1.438   4.509  16.939 -0.6650  0.1151  0.4174
14931TIP3    H166284   1.350   4.489  16.906 -1.1182  0.7368  1.2344
14931TIP3    H266285   1.427   4.591  16.986  0.3556  0.1709  0.5529
14932TIP3   OH266286   0.052   1.403  12.458 -0.1889 -0.6272 -0.0801
14932TIP3    H166287   0.103   1.348  12.400 -1.1581 -0.0195 -1.5263
14932TIP3    H266288   0.093   1.489  12.453 -0.5225 -0.4741 -0.1679
14933TIP3   OH266289   5.895   4.201   5.110 -0.0009 -0.1717  0.5608
14933TIP3    H166290   5.801   4.215   5.124  0.0587  1.5147 -0.5229
14933TIP3    H266291   5.937   4.250   5.182  0.0438 -1.5333  1.4747
14934TIP3   OH266292   2.780   5.201   0.764 -0.1952 -0.5693  0.5973
14934TIP3    H166293   2.865   5.171   0.795 -0.8390 -0.2778  2.7790
14934TIP3    H266294   2.772   5.290   0.800 -0.5720  0.1758 -1.2825
14935TIP3   OH266295   6.517   1.355  12.259 -0.1756 -0.6733  0.1000
14935TIP3    H166296   6.534   1.389  12.347 -1.0852  0.9978 -0.3511
14935TIP3    H266297   6.603   1.335  12.224  0.2272 -0.8976  1.1868
14936TIP3   OH266298   2.525   2.404  14.698  0.6229 -0.1470  0.0612
14936TIP3    H166299   2.606   2.408  14.750  0.6668  0.4106 -0.0480
14936TIP3    H266300   2.460   2.367  14.758  0.7376  0.2558  0.4358
14937TIP3   OH266301   6.176   5.448  11.043 -0.2805  0.2065 -0.2254
14937TIP3    H166302   6.180   5.403  11.127  0.6872 -0.4548 -0.6174
14937TIP3    H266303   6.245   5.513  11.046  2.4097 -2.4190 -1.9627
14938TIP3   OH266304   2.633   0.840  11.491 -0.1971 -0.5760  0.6103
14938TIP3    H166305   2.686   0.831  11.570  2.6777 -1.4209 -1.3433
14938TIP3    H266306   2.649   0.929  11.461 -2.1243  0.1099  1.4860
14939TIP3   OH266307   2.102   5.295   1.479  0.0510  0.2530 -0.1517
14939TIP3    H166308   2.044   5.220   1.496  2.4771 -1.6641 -0.0464
14939TIP3    H266309   2.161   5.265   1.410  1.4445  1.8705  0.3069
14940TIP3   OH266310   1.969   5.728  15.455  0.4817  0.5906  0.8486
14940TIP3    H166311   1.989   5.820  15.440  3.6814  0.1177  1.8678
14940TIP3    H266312   1.932   5.698  15.372  2.0240  2.1464 -0.4411
14941TIP3   OH266313   2.545   5.148   4.793  0.0571 -0.1512  0.4102
14941TIP3    H166314   2.604   5.213   4.754  0.4914 -0.6350  0.2583
14941TIP3    H266315   2.540   5.173   4.885  2.2801 -1.4297  0.9041
14942TIP3   OH266316   1.560   2.023   0.672 -0.0832  0.5529  0.1164
14942TIP3    H166317   1.650   2.021   0.705  0.8443 -1.3705 -2.4028
14942TIP3    H266318   1.537   1.932   0.659 -1.7932  1.1155 -0.9265
14943TIP3   OH266319   2.842   3.749  16.614 -0.3183  0.3468  0.1831
14943TIP3    H166320   2.918   3.696  16.587 -0.3889  1.5775 -2.5747
14943TIP3    H266321   2.783   3.686  16.655 -0.1683 -1.6500 -2.5225
14944TIP3   OH266322   6.114   0.200   6.249  0.4941 -0.1865  0.4561
14944TIP3    H166323   6.175   0.129   6.230  2.8224  2.1098 -0.7902
14944TIP3    H266324   6.030   0.169   6.213  2.3616 -0.6103 -3.7498
14945TIP3   OH266325   5.835   3.974  12.976 -0.1396  0.4290 -0.2924
14945TIP3    H166326   5.740   3.985  12.975 -0.3067 -0.7423 -2.8902
14945TIP3    H266327   5.866   4.032  12.906  0.9857  0.3840  0.1691
14946TIP3   OH266328   2.756   2.886   5.450  0.2294  0.4356  0.0321
14946TIP3    H166329   2.807   2.905   5.371 -0.1279  1.5222  0.0507
14946TIP3    H266330   2.705   2.966   5.466 -1.7859 -0.7614 -0.2004
14947TIP3   OH266331   6.150   0.675  14.431  0.0007 -0.1947  0.5871
14947TIP3    H166332   6.067   0.665  14.478 -0.7537 -0.3175 -0.7438
14947TIP3    H266333   6.155   0.597  14.376  1.2756 -0.4555  1.0702
14948TIP3   OH266334   1.770   2.534  12.564 -0.2469 -0.0914 -0.6521
14948TIP3    H166335   1.703   2.588  12.524 -0.5652 -0.2577 -0.3410
14948TIP3    H266336   1.839   2.595  12.589 -0.7594  0.2121  0.0189
14949TIP3   OH266337   4.583   6.178  14.247 -0.4143 -0.1363  0.4282
14949TIP3    H166338   4.561   6.213  14.161  2.6737  0.2659 -0.2576
14949TIP3    H266339   4.515   6.113  14.264 -2.6100  1.6855 -1.0903
14950TIP3   OH266340   6.635   2.925   0.916 -0.3614  0.8097 -0.1774
14950TIP3    H166341   6.627   2.850   0.976  0.8206  1.5896  0.9770
14950TIP3    H266342   6.553   2.973   0.928 -1.1716 -0.3291 -0.9912
14951TIP3   OH266343   0.142   6.584   5.330 -0.3237 -0.8748 -0.2749
14951TIP3    H166344   0.177   6.498   5.306  2.9285  0.3636 -0.2558
14951TIP3    H266345   0.180   6.643   5.265 -1.1639  0.7729  0.7189
14952TIP3   OH266346   4.551   3.289  14.697 -0.5808  0.1138  0.5581
14952TIP3    H166347   4.614   3.247  14.638 -0.3493  0.5166  0.5224
14952TIP3    H266348   4.474   3.306  14.641 -0.3678  0.4817  0.3789
14953TIP3   OH266349   5.650   1.592  15.981 -0.5085 -0.6854  0.8746
14953TIP3    H166350   5.665   1.686  15.990  0.2584 -0.6821 -0.2685
14953TIP3    H266351   5.555   1.584  15.971 -0.5841 -0.0324  1.0535
14954TIP3   OH266352   1.621   2.471   4.479 -0.0359 -0.2390  0.1966
14954TIP3    H166353   1.667   2.499   4.400 -0.3198 -0.5848 -0.0891
14954TIP3    H266354   1.634   2.543   4.541  0.9118 -0.3362  0.1241
14955TIP3   OH266355   5.359   1.188   6.182  0.2094  0.2572 -0.6573
14955TIP3    H166356   5.448   1.197   6.216  0.2303 -1.0108 -0.3496
14955TIP3    H266357   5.361   1.110   6.127 -0.7267  0.1841 -0.6072
14956TIP3   OH266358   5.304   0.479  12.074 -0.3194  0.0670  0.1416
14956TIP3    H166359   5.398   0.487  12.090  0.0635 -3.2567  0.0926
14956TIP3    H266360   5.298   0.441  11.986 -1.7792  1.9910 -0.6111
14957TIP3   OH266361   4.961   0.507  15.076 -0.2435 -0.4117 -0.1145
14957TIP3    H166362   4.967   0.441  15.007 -1.0162 -1.1384  0.5060
14957TIP3    H266363   5.026   0.480  15.141  2.0682  1.4966 -1.5497
14958TIP3   OH266364   1.689   6.775  15.186  0.2888  0.0500  0.1637
14958TIP3    H166365   1.649   6.753  15.102  0.8194  1.2814 -0.4312
14958TIP3    H266366   1.640   6.851  15.217 -1.1180 -1.5150  1.8832
14959TIP3   OH266367   4.254   0.554  13.436 -0.1000  0.0940  0.1969
14959TIP3    H166368   4.306   0.634  13.431 -2.1924  1.5328  0.5511
14959TIP3    H266369   4.165   0.582  13.413 -1.3149 -1.6528  2.5169
14960TIP3   OH266370   3.355   4.957   5.896 -0.0509  0.2907  0.2741
14960TIP3    H166371   3.358   4.921   5.807  0.0434 -1.9008  1.1114
14960TIP3    H266372   3.261   4.966   5.914 -0.0505  1.5436 -0.3568
14961TIP3   OH266373   0.891   5.370  14.316 -0.6982 -0.2412  0.2114
14961TIP3    H166374   0.841   5.396  14.239  0.6365  0.6853 -0.3507
14961TIP3    H266375   0.969   5.327  14.282 -0.1100  0.1497  1.0391
14962TIP3   OH266376   3.134   5.995  10.728  0.4156  0.2515 -0.4046
14962TIP3    H166377   3.140   6.065  10.793 -0.9940  1.3673 -1.4469
14962TIP3    H266378   3.049   6.009  10.686  1.2549 -0.5461 -2.4059
14963TIP3   OH266379   0.547   4.290   5.991  0.3203  0.4000  0.5866
14963TIP3    H166380   0.582   4.205   5.963  0.0440  0.3326  0.4438
14963TIP3    H266381   0.481   4.268   6.057  0.0479  0.4870  0.3444
14964TIP3   OH266382   0.197   3.961   5.005 -0.0896  0.5360 -0.5242
14964TIP3    H166383   0.242   3.969   5.089 -0.1130 -0.6054 -0.3858
14964TIP3    H266384   0.135   4.034   5.004  0.0865  0.7060  0.3407
14965TIP3   OH266385   2.104   3.997   5.362 -0.8997  0.3458  0.3171
14965TIP3    H166386   2.124   3.908   5.332 -1.0456  0.2555  0.4874
14965TIP3    H266387   2.021   4.019   5.319 -0.0730  0.9937 -0.9515
14966TIP3   OH266388   5.309   0.872  11.150  0.1084  0.2200  0.1132
14966TIP3    H166389   5.371   0.892  11.080 -2.0163  0.8991 -1.6401
14966TIP3    H266390   5.334   0.785  11.181  0.6549 -0.3954 -2.0028
14967TIP3   OH266391   0.482   0.384  10.770  0.0687  0.1696  0.8349
14967TIP3    H166392   0.437   0.450  10.718  2.2137  1.1720  0.1932
14967TIP3    H266393   0.412   0.341  10.820 -2.0836 -0.9347 -2.9167
14968TIP3   OH266394   0.319   0.962  12.258 -0.3908  0.2311 -0.1635
14968TIP3    H166395   0.352   0.920  12.338 -0.1128 -0.5935 -0.7119
14968TIP3    H266396   0.275   0.892  12.210 -1.9645  1.0572  0.0061
14969TIP3   OH266397   0.765   5.329   5.113 -0.0540  0.1396 -0.3277
14969TIP3    H166398   0.804   5.247   5.082 -0.0827 -0.0928  0.2334
14969TIP3    H266399   0.819   5.354   5.188 -2.2538 -1.3193  1.8267
14970TIP3   OH266400   0.093   1.566  13.258 -0.3769  0.0918  0.6849
14970TIP3    H166401   0.175   1.595  13.300 -0.1475  0.3270  0.0719
14970TIP3    H266402   0.087   1.473  13.280  1.0293 -0.3845 -0.8280
14971TIP3   OH266403   0.865   3.075  14.678 -0.0398 -0.5250 -0.4670
14971TIP3    H166404   0.864   3.080  14.773  0.8091 -1.8396 -0.3671
14971TIP3    H266405   0.861   3.166  14.648  0.8882 -0.0483  0.8336
14972TIP3   OH266406   0.282   0.286  11.291  0.2136 -0.0680 -0.0601
14972TIP3    H166407   0.247   0.201  11.263 -0.5058  0.5534 -1.0196
14972TIP3    H266408   0.345   0.310  11.223 -1.1535  1.1923 -0.8865
14973TIP3   OH266409   0.955   3.554   5.613 -0.6663  0.3681  0.3614
14973TIP3    H166410   0.989   3.470   5.646 -0.8790  0.1955  0.1410
14973TIP3    H266411   0.877   3.571   5.666 -0.9970  0.1003 -0.0389
14974TIP3   OH266412   0.658   0.987  14.022  0.1381 -0.0859 -0.7537
14974TIP3    H166413   0.681   1.052  14.088 -1.7497  0.6760 -0.8048
14974TIP3    H266414   0.734   0.930  14.017  0.6814  0.4041  1.3987
14975TIP3   OH266415   0.009   4.234   2.780 -0.6702  0.1869 -0.8273
14975TIP3    H166416   0.007   4.329   2.788 -0.0652  0.1609 -0.3479
14975TIP3    H266417  -0.045   4.203   2.854  1.8089  0.0669  0.9977
14976TIP3   OH266418   4.758   3.928   1.429 -0.6204 -1.0120  0.0284
14976TIP3    H166419   4.714   3.970   1.355 -0.2235  0.9296  0.8567
14976TIP3    H266420   4.836   3.982   1.444  2.0072 -4.2871 -1.2983
14977TIP3   OH266421   1.327   4.320   5.946  0.4795 -0.2041 -0.1986
14977TIP3    H166422   1.325   4.279   6.032  1.0294  0.0366 -0.0692
14977TIP3    H266423   1.419   4.341   5.931  0.3579 -0.0534 -0.7529
14978TIP3   OH266424   6.245   0.506  12.090  0.0791  0.3576  0.2865
14978TIP3    H166425   6.253   0.501  12.185 -0.8046 -0.4684  0.3313
14978TIP3    H266426   6.272   0.419  12.060  0.1682  0.5550 -0.1988
14979TIP3   OH266427   0.784   6.094  11.983 -0.1068 -0.2027  0.0028
14979TIP3    H166428   0.799   6.007  11.945  0.2937 -1.1418  2.2468
14979TIP3    H266429   0.739   6.143  11.914  0.3775 -1.9329 -1.5779
14980TIP3   OH266430   4.775   5.582   4.046  0.2818 -0.2567 -0.5361
14980TIP3    H166431   4.866   5.568   4.071 -0.4783 -2.1799  1.2879
14980TIP3    H266432   4.759   5.517   3.977  0.7667  1.2467 -2.0865
14981TIP3   OH266433   6.119   6.612  15.077  0.1673 -0.1200 -0.3486
14981TIP3    H166434   6.062   6.544  15.042 -0.9598  1.7130 -2.1621
14981TIP3    H266435   6.059   6.676  15.115  1.1678  0.4413  0.3093
14982TIP3   OH266436   4.397   2.229  12.836 -0.4229  0.4298  0.0634
14982TIP3    H166437   4.474   2.211  12.891 -0.6902  0.3005  0.3906
14982TIP3    H266438   4.324   2.190  12.883 -0.5026 -0.6052 -0.9007
14983TIP3   OH266439   5.899   0.654  16.329 -0.1693  0.2988 -0.4888
14983TIP3    H166440   5.845   0.702  16.266 -2.0863 -0.4806  0.5185
14983TIP3    H266441   5.839   0.592  16.369  1.6140 -0.9277  0.3252
14984TIP3   OH266442   2.616   2.314   2.467  0.4370 -0.1781 -0.0435
14984TIP3    H166443   2.679   2.386   2.474 -0.8434  0.8819  0.8393
14984TIP3    H266444   2.649   2.247   2.526  0.4694  0.5761  0.8057
14985TIP3   OH266445   6.151   5.660  13.875 -0.3667  0.3398  0.5370
14985TIP3    H166446   6.214   5.596  13.842 -0.5754  0.6334 -0.4607
14985TIP3    H266447   6.138   5.636  13.967  0.3694 -0.3857  0.4569
14986TIP3   OH266448   6.291   0.598  13.336 -0.0999  0.3080  0.0210
14986TIP3    H166449   6.364   0.644  13.376  0.9186  0.4542 -1.9359
14986TIP3    H266450   6.332   0.534  13.277 -1.4710  2.5706 -3.5874
14987TIP3   OH266451   5.349   0.597  13.998 -0.5001  0.9105  0.0705
14987TIP3    H166452   5.278   0.534  13.993  0.4978 -0.1525 -0.8176
14987TIP3    H266453   5.420   0.558  13.948 -0.0429  2.9720 -0.9417
14988TIP3   OH266454   2.053   6.516  16.332  0.0931 -0.4154  0.2700
14988TIP3    H166455   2.040   6.535  16.425  1.2344 -0.3476  0.4204
14988TIP3    H266456   2.114   6.443  16.331 -1.1347 -1.4455 -0.4022
14989TIP3   OH266457   6.385   4.748   5.756  0.3720  0.2620 -0.2689
14989TIP3    H166458   6.417   4.671   5.805 -0.1024  0.8914  1.0690
14989TIP3    H266459   6.453   4.814   5.769 -0.3568  0.8530  0.6580
14990TIP3   OH266460   4.454   1.588  15.381  0.1611 -0.9961  0.2014
14990TIP3    H166461   4.377   1.551  15.425  1.3818 -1.9528  1.5808
14990TIP3    H266462   4.502   1.512  15.348  0.6961 -0.4273 -0.3462
14991TIP3   OH266463   3.838   4.525   3.176 -0.3869 -0.1986 -0.0362
14991TIP3    H166464   3.835   4.546   3.083  0.1160 -0.9920 -0.2344
14991TIP3    H266465   3.898   4.451   3.183  0.8603  0.8858  1.1148
14992TIP3   OH266466   4.907   2.080  13.866 -0.2011  0.0789  0.2103
14992TIP3    H166467   4.941   1.990  13.870  0.1968  0.2217  0.0506
14992TIP3    H266468   4.812   2.070  13.881 -0.0420 -0.2822  1.0036
14993TIP3   OH266469   6.502   3.310  16.707  0.5863 -0.1511  0.0083
14993TIP3    H166470   6.497   3.287  16.614  0.4108  0.3256 -0.1005
14993TIP3    H266471   6.594   3.327  16.723  0.4597  0.8833 -0.3464
14994TIP3   OH266472   6.156   1.967   6.811  0.3534 -0.5744  0.2587
14994TIP3    H166473   6.201   1.901   6.864 -0.5413 -1.8640 -0.5513
14994TIP3    H266474   6.160   1.932   6.722 -1.7118 -0.4333  0.0826
14995TIP3   OH266475   5.299   4.271   0.989  0.2088 -0.0342 -0.4557
14995TIP3    H166476   5.239   4.326   0.939 -0.2988 -1.8105 -1.8806
14995TIP3    H266477   5.363   4.240   0.924  0.4261 -1.1703  0.2793
14996TIP3   OH266478   1.050   4.688   4.935  1.0453  0.0632 -0.5353
14996TIP3    H166479   1.046   4.750   4.862 -0.5859 -0.2444 -0.7193
14996TIP3    H266480   0.981   4.625   4.917  2.7136 -1.8502 -0.3528
14997TIP3   OH266481   0.186   4.818  16.679 -0.0441 -0.3378 -0.1259
14997TIP3    H166482   0.246   4.868  16.623 -0.5482  2.1296  1.4311
14997TIP3    H266483   0.220   4.831  16.768 -0.1827 -2.8451  0.3143
14998TIP3   OH266484   6.592   1.022   0.093  0.3250  0.2031 -0.5394
14998TIP3    H166485   6.669   1.077   0.106  4.1329 -4.1531 -2.9736
14998TIP3    H266486   6.591   0.964   0.169 -0.2532 -0.0816 -0.7605
14999TIP3   OH266487   2.769   3.122  14.205 -0.2025  0.0318  0.2162
14999TIP3    H166488   2.774   3.134  14.110  0.6391 -0.7937  0.1475
14999TIP3    H266489   2.813   3.199  14.241 -1.4697  0.8932 -0.0197
15000TIP3   OH266490   4.969   0.584  13.003  0.0027  0.8193  0.3837
15000TIP3    H166491   5.050   0.629  12.981  0.9562 -1.2976 -0.6225
15000TIP3    H266492   4.921   0.578  12.921 -1.2477  2.1708  0.9967
15001TIP3   OH266493   1.437   2.900   5.296  0.0512 -0.9272 -0.5100
15001TIP3    H166494   1.385   2.820   5.295 -0.2537 -0.7272 -0.4605
15001TIP3    H266495   1.437   2.927   5.388 -1.0382 -0.0847 -0.7530
15002TIP3   OH266496   6.104   2.641   0.367 -0.0624  0.0439  0.4670
15002TIP3    H166497   6.025   2.603   0.329 -1.6398  0.6252  3.0199
15002TIP3    H266498   6.101   2.733   0.341  1.1529 -0.4701 -1.5729
15003TIP3   OH266499   0.390   5.071  13.706  0.2312  0.0777 -0.2381
15003TIP3    H166500   0.301   5.107  13.715  0.3792  0.6745 -1.0524
15003TIP3    H266501   0.406   5.071  13.611  1.4507  0.8418 -0.0424
15004TIP3   OH266502   2.575   5.655   5.907  0.3039  0.1633  0.2929
15004TIP3    H166503   2.489   5.672   5.944 -0.0317 -1.3893  0.2839
15004TIP3    H266504   2.605   5.575   5.951  1.0179 -0.2497 -0.8998
15005TIP3   OH266505   6.542   2.852   1.175  0.1660 -0.2456  0.5860
15005TIP3    H166506   6.591   2.813   1.247 -0.3461 -0.2767  0.9193
15005TIP3    H266507   6.482   2.783   1.148 -0.5647  0.2228  1.0095
15006TIP3   OH266508   3.612   6.159  13.993  0.2060  0.3749 -0.3866
15006TIP3    H166509   3.585   6.155  13.902 -0.3439 -0.8037 -0.1813
15006TIP3    H266510   3.532   6.142  14.043  0.2643  2.1010  0.3546
15007TIP3   OH266511   3.929   4.470   0.378  0.1833  0.1127  0.1063
15007TIP3    H166512   3.862   4.517   0.328 -2.0453 -2.4071  0.6504
15007TIP3    H266513   3.973   4.415   0.313 -0.3037 -0.4729  0.2670
15008TIP3   OH266514   2.397   6.610  11.693 -0.2629 -0.0904  0.1585
15008TIP3    H166515   2.412   6.517  11.677 -0.1825  0.0004 -0.3055
15008TIP3    H266516   2.482   6.651  11.680 -0.6929  0.3013 -1.5569
15009TIP3   OH266517   1.885   3.702  13.840 -0.4855  0.4855 -0.8428
15009TIP3    H166518   1.815   3.644  13.810  0.7352 -1.1847 -0.5402
15009TIP3    H266519   1.885   3.692  13.935  0.2454  0.3792 -0.8507
15010TIP3   OH266520   1.654   2.642   5.539  0.3044 -0.0760  0.2550
15010TIP3    H166521   1.732   2.606   5.581  0.0010  0.9946  1.7693
15010TIP3    H266522   1.582   2.587   5.569  0.0224  0.9685  1.5380
15011TIP3   OH266523   4.640   6.687  16.498  0.1918 -0.1403  0.0278
15011TIP3    H166524   4.646   6.755  16.431 -1.4217  0.0251  0.0198
15011TIP3    H266525   4.573   6.719  16.558 -0.4024 -1.6091  0.1628
15012TIP3   OH266526   0.982   6.616   3.219 -0.5458  0.3345  0.0891
15012TIP3    H166527   0.947   6.546   3.164 -0.4089 -0.3904  0.9232
15012TIP3    H266528   0.905   6.651   3.264 -0.2507 -1.0818  1.7206
15013TIP3   OH266529   4.343   5.086  15.696  0.1608  0.2210 -0.1866
15013TIP3    H166530   4.363   5.004  15.652 -0.8238 -0.1447  0.0436
15013TIP3    H266531   4.248   5.091  15.696  0.2363  1.9715 -1.2994
15014TIP3   OH266532   5.794   4.542   0.571 -0.4095  0.2280  0.0039
15014TIP3    H166533   5.884   4.534   0.603 -0.2280  0.3589 -0.4664
15014TIP3    H266534   5.741   4.553   0.650  0.1079  1.2196  0.2246
15015TIP3   OH266535   6.756   5.324   4.275  0.0230  0.0202 -0.3432
15015TIP3    H166536   6.823   5.257   4.261  1.1799  1.1202 -0.1603
15015TIP3    H266537   6.683   5.277   4.316  1.7284 -0.6604  1.9729
15016TIP3   OH266538   2.373   0.573  15.128  0.1168  0.7040 -0.2529
15016TIP3    H166539   2.386   0.488  15.088  1.4402  0.4963  0.5549
15016TIP3    H266540   2.325   0.555  15.209  0.3674  0.7135 -0.1000
15017TIP3   OH266541   6.568   0.315   4.074  0.4087  0.0147  0.1451
15017TIP3    H166542   6.636   0.305   4.140  0.8034  2.9213  0.2296
15017TIP3    H266543   6.486   0.314   4.123  0.6772  1.6952  0.6474
15018TIP3   OH266544   6.549   4.301  10.661  0.3433 -0.3007  0.6927
15018TIP3    H166545   6.473   4.285  10.717  0.2865  0.2444  0.7700
15018TIP3    H266546   6.517   4.287  10.572 -0.1461  1.0850  0.6492
15019TIP3   OH266547   1.568   6.226   2.162  0.0671  0.5574  0.0117
15019TIP3    H166548   1.517   6.217   2.081 -0.6870 -0.9828  0.6401
15019TIP3    H266549   1.648   6.271   2.134  0.0965 -0.4916 -1.7330
15020TIP3   OH266550   3.594   4.027   5.713 -0.2251  0.1768 -0.1908
15020TIP3    H166551   3.674   3.976   5.723 -0.3152 -0.3689 -2.1753
15020TIP3    H266552   3.578   4.029   5.619 -2.7299  0.0166  0.2126
15021TIP3   OH266553   4.830   3.989   0.752 -0.1328 -0.2294  0.3033
15021TIP3    H166554   4.794   4.053   0.814  0.4154 -0.4753  0.8760
15021TIP3    H266555   4.897   3.943   0.801  1.6062  0.8312 -1.0166
15022TIP3   OH266556   1.966   3.639  13.529  0.1901 -0.4614  0.0642
15022TIP3    H166557   1.947   3.730  13.506 -0.2362 -0.2739  1.1414
15022TIP3    H266558   1.905   3.619  13.600 -1.3227 -2.3235 -1.6980
15023TIP3   OH266559   0.103   5.538  11.554 -0.3125 -0.6548 -0.1028
15023TIP3    H166560   0.131   5.603  11.490 -1.5663  1.2834  1.2644
15023TIP3    H266561   0.016   5.511  11.523 -0.7835  0.0521  0.5660
15024TIP3   OH266562   3.061   5.072  15.472 -0.0644 -0.0988 -0.5039
15024TIP3    H166563   3.154   5.048  15.468 -0.0941  0.1311 -3.0399
15024TIP3    H266564   3.062   5.167  15.487  0.0592 -0.4382  1.9356
15025TIP3   OH266565   3.475   0.316   2.561  0.4862  0.6621  0.2437
15025TIP3    H166566   3.466   0.221   2.570  2.7879  0.3415 -0.5436
15025TIP3    H266567   3.414   0.338   2.490  1.1899 -0.5111 -0.7675
15026TIP3   OH266568   3.806   5.761  15.659 -0.7890  0.4114  0.5925
15026TIP3    H166569   3.850   5.691  15.708  0.4546  0.4154 -0.4829
15026TIP3    H266570   3.809   5.837  15.717 -0.7164 -0.0063  1.1323
15027TIP3   OH266571   1.130   2.741  15.499  0.0570  0.0694 -0.2143
15027TIP3    H166572   1.049   2.760  15.452  1.1671  0.8061 -1.8692
15027TIP3    H266573   1.200   2.762  15.437  1.5273 -0.5752  1.1731
15028TIP3   OH266574   3.279   1.653  13.160  0.0674 -0.1451 -0.1751
15028TIP3    H166575   3.252   1.655  13.069  0.8238 -0.0553 -0.3967
15028TIP3    H266576   3.338   1.727  13.170 -0.9717  0.5893  0.6972
15029TIP3   OH266577   3.926   0.040  11.379  0.8531  0.3046 -0.5299
15029TIP3    H166578   3.913  -0.041  11.429 -0.8892  0.8406 -0.1000
15029TIP3    H266579   4.021   0.051  11.378  1.1667 -1.9982 -1.0088
15030TIP3   OH266580   1.585   1.187   0.782  0.3805 -0.2760  0.2139
15030TIP3    H166581   1.515   1.198   0.719 -0.0889  0.9014  0.9175
15030TIP3    H266582   1.648   1.256   0.761  1.0949 -1.0125 -0.1013
15031TIP3   OH266583   5.294   2.288  17.043  0.1344 -0.5355 -0.0338
15031TIP3    H166584   5.334   2.265  16.959  1.5792  2.8479 -0.3551
15031TIP3    H266585   5.331   2.225  17.105  0.9200 -1.5409 -1.4773
15032TIP3   OH266586   1.332   5.334  15.369 -0.1376  0.6101 -0.1289
15032TIP3    H166587   1.417   5.290  15.382 -0.3042 -0.2191 -1.6751
15032TIP3    H266588   1.349   5.400  15.302 -0.6736  0.5708 -0.3054
15033TIP3   OH266589   6.134   0.027  16.873  0.2100 -0.1889  0.3802
15033TIP3    H166590   6.158  -0.004  16.960 -1.8129  1.1917  1.4751
15033TIP3    H266591   6.038   0.023  16.872  0.0895  2.1799 -0.8688
15034TIP3   OH266592   0.581   5.243   0.662 -0.2131  0.0361 -0.1281
15034TIP3    H166593   0.512   5.228   0.598  2.1332  1.0264 -2.9744
15034TIP3    H266594   0.560   5.327   0.702 -0.3367  0.6479 -1.4567
15035TIP3   OH266595   0.495   3.171   4.620 -0.5217 -0.1411  0.8387
15035TIP3    H166596   0.460   3.185   4.707 -1.1441 -0.5999  0.6676
15035TIP3    H266597   0.590   3.181   4.630 -0.3662 -2.4923  2.0321
15036TIP3   OH266598   2.072   6.108   1.253  0.1615 -0.4703 -0.0870
15036TIP3    H166599   2.130   6.180   1.229  0.2049 -0.0230  1.3456
15036TIP3    H266600   2.124   6.030   1.238  1.0532 -0.0846  0.9678
15037TIP3   OH266601   2.474   1.126   2.393 -0.2607  0.2717  0.4145
15037TIP3    H166602   2.410   1.100   2.326  0.6510 -0.8992 -0.0215
15037TIP3    H266603   2.481   1.049   2.449  1.1448  0.2180  0.1683
15038TIP3   OH266604   2.735   6.669   5.024  0.1405  0.1413 -0.1380
15038TIP3    H166605   2.657   6.632   4.983  0.4704 -0.4559 -0.2237
15038TIP3    H266606   2.728   6.763   5.009 -0.5230  0.0806 -0.2157
15039TIP3   OH266607   3.888   1.410   3.515  0.1307 -0.5510 -0.2896
15039TIP3    H166608   3.892   1.360   3.433 -0.4722 -1.6600  0.3447
15039TIP3    H266609   3.973   1.394   3.557  0.5804  0.3067 -0.8496
15040TIP3   OH266610   6.565   6.629   4.218  0.3214 -0.2423 -0.0879
15040TIP3    H166611   6.638   6.687   4.243  0.3489 -0.9024  1.4450
15040TIP3    H266612   6.504   6.635   4.292 -1.3229  0.4988 -1.4804
15041TIP3   OH266613   4.064   4.282   0.223 -0.1946  0.0723 -0.1465
15041TIP3    H166614   4.036   4.200   0.182  3.1058 -0.8912 -0.6201
15041TIP3    H266615   4.159   4.275   0.229 -0.0778  2.7497  2.2970
15042TIP3   OH266616   6.754   4.584  15.149 -0.4124  0.1680 -0.1193
15042TIP3    H166617   6.742   4.678  15.133 -0.4914  0.3400  0.8886
15042TIP3    H266618   6.703   4.567  15.228 -1.1674 -0.9263 -0.8299
15043TIP3   OH266619   2.669   5.914   1.771  0.4190 -0.2735 -0.2336
15043TIP3    H166620   2.680   5.964   1.690 -0.9255  0.3918 -0.0255
15043TIP3    H266621   2.580   5.879   1.765  0.2793 -0.1329  0.9969
15044TIP3   OH266622   5.129   1.283   0.632 -0.8093  0.0994  0.3901
15044TIP3    H166623   5.211   1.298   0.585 -0.1467  1.4709  1.9241
15044TIP3    H266624   5.132   1.191   0.656  0.1828  0.0818  0.2362
15045TIP3   OH266625   3.233   3.463   1.892  0.1572 -0.0624 -0.1381
15045TIP3    H166626   3.137   3.455   1.890  0.0702 -1.4039  4.2466
15045TIP3    H266627   3.250   3.557   1.884 -1.5238  0.1813 -0.9782
15046TIP3   OH266628   3.656   6.590  11.671  0.1667 -0.2996 -0.0268
15046TIP3    H166629   3.654   6.501  11.705 -0.4543  0.1016  1.0138
15046TIP3    H266630   3.572   6.628  11.698  0.4214  0.5980 -0.4722
15047TIP3   OH266631   4.860   1.650   0.656 -0.4016 -0.1203  0.5985
15047TIP3    H166632   4.924   1.582   0.638 -0.0059  0.4281 -0.0910
15047TIP3    H266633   4.891   1.692   0.736 -0.7944 -0.9154  1.1817
15048TIP3   OH266634   3.580   3.520  14.752  0.3483 -0.2052  0.3602
15048TIP3    H166635   3.567   3.528  14.847  2.7207  0.3524  0.6543
15048TIP3    H266636   3.532   3.595  14.716  0.3242  0.1955  1.1920
15049TIP3   OH266637   4.260   5.133   2.679 -0.4329 -0.1353 -0.1377
15049TIP3    H166638   4.255   5.067   2.749 -1.3723 -1.2913 -1.2759
15049TIP3    H266639   4.221   5.211   2.719 -1.3657 -0.9104  0.5141
15050TIP3   OH266640   3.442   5.781   4.421 -0.4625  0.4263 -0.3331
15050TIP3    H166641   3.524   5.831   4.416 -0.2520  0.1217 -0.0030
15050TIP3    H266642   3.382   5.837   4.471 -0.0751  0.1526  0.4559
15051TIP3   OH266643   0.348   3.951  13.945  0.2553 -0.3701  0.0659
15051TIP3    H166644   0.426   3.930  13.894  2.2060 -2.5250  3.7126
15051TIP3    H266645   0.315   3.867  13.975 -1.7166  0.7294  1.1381
15052TIP3   OH266646   4.320   2.764  14.347 -0.1923  0.0392 -0.1869
15052TIP3    H166647   4.407   2.794  14.322  0.5706 -1.7075  0.2912
15052TIP3    H266648   4.267   2.773  14.267  0.4753  0.8696 -0.5388
15053TIP3   OH266649   2.658   0.394  15.205  0.3481 -0.0913 -0.0498
15053TIP3    H166650   2.753   0.390  15.196  0.4041  1.1055 -0.1461
15053TIP3    H266651   2.644   0.448  15.284 -0.2516  2.0044 -1.5338
15054TIP3   OH266652   4.439   3.737  15.375 -0.1515 -0.3144 -0.3212
15054TIP3    H166653   4.422   3.806  15.439  1.6095 -0.4784  0.3436
15054TIP3    H266654   4.456   3.784  15.293 -0.4182 -0.0250 -0.2127
15055TIP3   OH266655   1.810   1.699  14.771  0.6526  0.0027  0.3137
15055TIP3    H166656   1.754   1.624  14.792  1.3316 -0.0253  2.1016
15055TIP3    H266657   1.834   1.686  14.679 -3.3343  0.7203 -0.9029
15056TIP3   OH266658   2.320   0.201   2.088 -0.1855 -0.3393  0.3116
15056TIP3    H166659   2.362   0.193   2.173 -0.3338 -0.1035  0.4075
15056TIP3    H266660   2.390   0.185   2.025 -0.0458 -0.3702  0.4756
15057TIP3   OH266661   6.345   4.632   0.948  0.1394 -0.5316  0.3272
15057TIP3    H166662   6.260   4.629   0.993  0.6252 -0.2814  1.2697
15057TIP3    H266663   6.408   4.650   1.018  0.9838 -0.8430 -0.3537
15058TIP3   OH266664   4.362   4.720   1.371 -0.4214 -0.0019 -0.2074
15058TIP3    H166665   4.309   4.658   1.320 -0.4882  0.2865 -0.4902
15058TIP3    H266666   4.387   4.671   1.449  1.0831 -1.0158 -1.2917
15059TIP3   OH266667   4.231   6.407  15.493 -0.0362 -0.0461  0.4941
15059TIP3    H166668   4.219   6.453  15.410 -2.3097 -0.0663  0.7977
15059TIP3    H266669   4.199   6.468  15.560 -0.3463 -0.9270  1.1598
15060TIP3   OH266670   5.109   6.342   0.534 -0.4351  0.0864  0.4714
15060TIP3    H166671   5.141   6.430   0.515  1.3050 -0.8014 -0.8863
15060TIP3    H266672   5.032   6.330   0.479  0.8779 -0.1742 -1.3481
15061TIP3   OH266673   6.079   3.431  10.498 -0.5525  0.0020  0.2145
15061TIP3    H166674   6.052   3.354  10.448  1.9270 -1.6007  1.2671
15061TIP3    H266675   6.155   3.465  10.452  0.0970  0.1263  1.3569
15062TIP3   OH266676   6.741   6.059  15.279 -0.5444  0.1681 -0.0052
15062TIP3    H166677   6.676   5.990  15.289 -0.1104 -0.3312 -0.6088
15062TIP3    H266678   6.703   6.118  15.213 -0.1842 -0.3672 -0.6954
15063TIP3   OH266679   1.364   4.276   4.501 -0.1920 -0.3022 -0.0227
15063TIP3    H166680   1.423   4.221   4.553  0.1941  0.1811  0.0550
15063TIP3    H266681   1.417   4.301   4.425 -0.7293 -0.9493 -0.6094
15064TIP3   OH266682   0.652   4.683   4.854 -0.4229 -0.9158  0.7345
15064TIP3    H166683   0.649   4.777   4.873 -0.6227 -0.3766 -1.7829
15064TIP3    H266684   0.563   4.652   4.873 -0.9894 -0.1281 -0.5236
15065TIP3   OH266685   6.239   2.046   5.149 -0.2649 -0.3304  0.1838
15065TIP3    H166686   6.155   2.076   5.114 -0.8137  0.1416  1.8929
15065TIP3    H266687   6.293   2.126   5.152  0.5390 -0.7728 -1.6770
15066TIP3   OH266688   5.065   0.994   0.696  0.9284  0.1572 -0.6333
15066TIP3    H166689   4.970   1.001   0.703  0.7243 -2.9574  0.7397
15066TIP3    H266690   5.080   0.924   0.631  2.2379  0.0067 -0.1978
15067TIP3   OH266691   3.931   3.972  14.094 -0.5806 -0.4973 -0.0784
15067TIP3    H166692   3.913   3.878  14.084  0.3488 -0.5870 -1.0754
15067TIP3    H266693   3.960   3.999  14.007  2.7249 -0.0696  1.1063
15068TIP3   OH266694   6.612   4.658   3.327  0.0805  0.1604 -0.4412
15068TIP3    H166695   6.566   4.725   3.377  0.6232 -0.2204  0.5680
15068TIP3    H266696   6.664   4.610   3.391 -1.2813 -2.0584 -0.9246
15069TIP3   OH266697   0.899   0.868  12.881  0.5777 -0.3526 -0.3572
15069TIP3    H166698   0.949   0.888  12.960  1.3862 -1.1289 -0.6727
15069TIP3    H266699   0.811   0.847  12.912  0.6456  0.2661  0.2552
15070TIP3   OH266700   1.973   0.915  16.027  0.4169 -0.3740 -0.1731
15070TIP3    H166701   2.034   0.862  15.976 -1.3294 -0.1475 -2.6180
15070TIP3    H266702   2.008   1.004  16.023  1.4636 -0.7236  0.9372
15071TIP3   OH266703   5.648   3.250   4.789  0.8119  0.4921  0.8944
15071TIP3    H166704   5.594   3.291   4.857  0.6933  0.4797  0.8069
15071TIP3    H266705   5.628   3.298   4.709 -1.8987 -1.8775  0.0487
15072TIP3   OH266706   1.988   6.084  13.162 -0.1796  0.5214  0.3994
15072TIP3    H166707   1.899   6.050  13.166 -0.5892  1.5576  0.3094
15072TIP3    H266708   2.042   6.008  13.139 -0.9454 -0.2526  1.1308
15073TIP3   OH266709   3.559   2.707   6.532  0.1118 -0.3457  0.8568
15073TIP3    H166710   3.477   2.749   6.508  0.5728 -0.0729 -0.3159
15073TIP3    H266711   3.622   2.779   6.535  0.4619 -0.6574  0.9745
15074TIP3   OH266712   6.673   0.987  14.787 -0.3502 -0.6217  0.4505
15074TIP3    H166713   6.735   0.931  14.740  1.5561  1.1507  0.7570
15074TIP3    H266714   6.636   1.043  14.719  0.0595 -0.1802  0.5881
15075TIP3   OH266715   3.345   1.228  12.715  0.2100  0.3170  0.2009
15075TIP3    H166716   3.438   1.213  12.730 -0.0438  0.5870  2.0614
15075TIP3    H266717   3.305   1.142  12.729 -0.1948  0.8599  2.4823
15076TIP3   OH266718   2.954   5.153  11.614 -0.1726 -0.4591  0.0434
15076TIP3    H166719   2.975   5.066  11.648  0.2982  0.1864  1.4507
15076TIP3    H266720   3.013   5.164  11.539  1.6298 -0.3326  1.4383
15077TIP3   OH266721   6.793   0.043   6.273  0.5382  0.4891  0.1446
15077TIP3    H166722   6.712   0.043   6.324  0.5000 -1.1142  0.1310
15077TIP3    H266723   6.863   0.049   6.339  0.3931  2.5955  0.1086
15078TIP3   OH266724   3.681   3.873   2.729  0.1450 -0.1626 -0.1974
15078TIP3    H166725   3.706   3.783   2.707  1.5180  0.5843 -1.7735
15078TIP3    H266726   3.629   3.903   2.654 -2.0172 -0.2975  1.2137
15079TIP3   OH266727   3.186   5.122  13.849 -0.6771  0.4273  0.2277
15079TIP3    H166728   3.246   5.076  13.909 -0.4950  1.7053  1.0589
15079TIP3    H266729   3.133   5.177  13.907 -1.2546  0.8544 -0.7055
15080TIP3   OH266730   1.034   3.607   3.156  0.6700  0.3057 -0.5506
15080TIP3    H166731   0.954   3.554   3.159 -0.0601  1.3755 -0.4537
15080TIP3    H266732   1.101   3.549   3.121 -0.0471 -0.7470 -0.1867
15081TIP3   OH266733   3.288   3.730  13.281  0.0588 -0.0381  0.1610
15081TIP3    H166734   3.294   3.683  13.198 -1.7555  0.6763 -0.3998
15081TIP3    H266735   3.348   3.804  13.270  0.1694 -0.1956 -0.3265
15082TIP3   OH266736   2.480   2.788   0.497  0.1322  0.1442 -0.2255
15082TIP3    H166737   2.501   2.746   0.581  0.7475 -0.1732 -0.5359
15082TIP3    H266738   2.453   2.715   0.440  0.6473  0.2376 -0.5908
15083TIP3   OH266739   0.442   1.027  15.588  0.1783 -0.0016 -0.5036
15083TIP3    H166740   0.466   0.937  15.566  0.7999 -0.4903  2.0088
15083TIP3    H266741   0.525   1.068  15.614 -0.5638  0.3084  1.5273
15084TIP3   OH266742   0.895   6.714   5.780 -0.1708 -0.0966 -0.4510
15084TIP3    H166743   0.957   6.659   5.827 -1.1223 -1.2540 -0.5356
15084TIP3    H266744   0.945   6.794   5.759  0.8378 -0.3918  0.7692
15085TIP3   OH266745   1.043   2.485  14.937 -0.2521 -0.6418  0.2875
15085TIP3    H166746   1.126   2.487  14.890 -0.6176 -0.8411 -0.3711
15085TIP3    H266747   0.977   2.499  14.870 -0.8518 -2.1120  0.5589
15086TIP3   OH266748   2.353   2.923  11.855  0.1007  0.4999 -0.1599
15086TIP3    H166749   2.318   2.839  11.886 -0.3967  0.4799 -0.7579
15086TIP3    H266750   2.447   2.908  11.847  0.0616  0.1041  0.0749
15087TIP3   OH266751   6.091   6.361   3.117 -0.0330  0.0511  0.3607
15087TIP3    H166752   6.072   6.407   3.199 -3.1349  0.9307 -0.8018
15087TIP3    H266753   6.078   6.426   3.049 -1.2375 -1.6486 -1.0943
15088TIP3   OH266754   3.275   3.199   1.180 -0.3026  0.4179  0.1554
15088TIP3    H166755   3.291   3.105   1.188 -0.4202  0.4867  1.2937
15088TIP3    H266756   3.302   3.235   1.264  0.2217  1.4765 -0.4564
15089TIP3   OH266757   0.601   0.925  11.053 -0.0040 -0.7367 -0.4435
15089TIP3    H166758   0.553   0.985  10.997 -1.9748 -1.8044  0.0719
15089TIP3    H266759   0.558   0.840  11.041 -0.4725 -1.0008  2.6061
15090TIP3   OH266760   0.635   0.838   3.192 -0.1361  0.1180 -0.1833
15090TIP3    H166761   0.612   0.797   3.109 -0.5398  0.5832 -0.3019
15090TIP3    H266762   0.698   0.906   3.168 -0.3992  0.3807 -0.1335
15091TIP3   OH266763   1.382   3.996   0.375 -0.3138 -0.3964 -0.7386
15091TIP3    H166764   1.422   3.961   0.296 -0.4122  0.5794 -1.2257
15091TIP3    H266765   1.294   3.958   0.376  0.0244 -1.1828 -0.5716
15092TIP3   OH266766   4.132   3.284   1.294 -0.3874 -0.1362  0.8295
15092TIP3    H166767   4.045   3.282   1.332 -0.6830 -0.6232  0.1223
15092TIP3    H266768   4.158   3.192   1.287 -0.6144 -0.0739 -0.7910
15093TIP3   OH266769   0.008   3.233  16.052 -0.4554  0.3131 -0.4256
15093TIP3    H166770   0.056   3.177  16.113  0.6075  0.2926 -1.2834
15093TIP3    H266771  -0.050   3.285  16.109  1.5292  1.2940  0.7530
15094TIP3   OH266772   4.638   3.642  13.875 -0.4055 -0.1359  0.3398
15094TIP3    H166773   4.596   3.559  13.897  0.1517 -0.5912 -0.2831
15094TIP3    H266774   4.644   3.689  13.958  2.7130 -2.2958  1.4687
15095TIP3   OH266775   1.527   6.096  12.711 -0.1431  0.2468  0.2244
15095TIP3    H166776   1.612   6.052  12.720 -0.4195 -0.2786  0.2680
15095TIP3    H266777   1.464   6.035  12.750 -0.5168  0.7219  0.3695
15096TIP3   OH266778   5.595   6.194   0.983 -0.4108  0.2702  0.1171
15096TIP3    H166779   5.689   6.190   1.002  0.2616  1.2657 -2.7318
15096TIP3    H266780   5.572   6.105   0.956  0.1172  0.4365 -0.8928
15097TIP3   OH266781   1.854   1.561  10.982  0.1737  0.4079  0.0661
15097TIP3    H166782   1.804   1.642  10.987 -1.6294 -0.7125  0.4909
15097TIP3    H266783   1.865   1.546  10.888  1.0891  1.4714 -0.0080
15098TIP3   OH266784   1.650   3.632  11.708  0.0640  0.2001  0.1494
15098TIP3    H166785   1.679   3.566  11.771  0.6509  0.1972 -0.1190
15098TIP3    H266786   1.709   3.620  11.633  1.9069  2.7295  1.1185
15099TIP3   OH266787   6.197   6.273  14.863 -0.0685 -0.1768  0.7868
15099TIP3    H166788   6.266   6.209  14.882  0.3922 -0.0257 -0.3473
15099TIP3    H266789   6.225   6.352  14.909  1.1630  0.2540 -0.6531
15100TIP3   OH266790   1.287   0.908  13.577  0.3460  0.4017  0.3383
15100TIP3    H166791   1.283   0.872  13.489 -0.2048 -0.7730  0.8334
15100TIP3    H266792   1.310   1.000  13.565 -0.6286  0.4689 -1.0710
15101TIP3   OH266793   6.458   4.260  10.409 -0.0719 -0.4373 -0.0381
15101TIP3    H166794   6.431   4.169  10.399 -1.6803  0.3261 -3.5678
15101TIP3    H266795   6.514   4.278  10.333  0.0383  1.5402  0.4658
15102TIP3   OH266796   2.906   4.052   1.940 -0.0222 -0.2260 -0.5493
15102TIP3    H166797   2.936   4.113   2.007  0.2900 -1.0276  0.0499
15102TIP3    H266798   2.974   4.056   1.873  0.7451 -1.0123  0.1709
15103TIP3   OH266799   4.960   1.554   2.327 -0.8528 -0.0617  0.5753
15103TIP3    H166800   4.999   1.621   2.383  0.7338 -0.2942 -0.2331
15103TIP3    H266801   4.866   1.564   2.340 -0.6354  2.1441  0.6730
15104TIP3   OH266802   4.764   5.392   1.247  0.5068 -0.2821  0.0997
15104TIP3    H166803   4.787   5.460   1.309  0.3850  2.6487 -2.9321
15104TIP3    H266804   4.827   5.402   1.175 -0.8726 -1.9349 -1.3985
15105TIP3   OH266805   5.103   6.093  11.600  0.4158 -0.1545 -0.1452
15105TIP3    H166806   5.071   6.147  11.672 -0.0335 -1.0364  0.3242
15105TIP3    H266807   5.123   6.156  11.530 -0.0749  0.6200  0.3991
15106TIP3   OH266808   3.414   5.735  15.430 -0.3901 -0.6034  0.3341
15106TIP3    H166809   3.355   5.692  15.367  2.3563 -1.7144 -1.5563
15106TIP3    H266810   3.374   5.821  15.445 -2.0948 -1.0339 -1.4888
15107TIP3   OH266811   6.312   0.286  13.341 -0.5086 -0.1772 -0.0570
15107TIP3    H166812   6.356   0.309  13.260 -0.2854 -0.4529 -0.0138
15107TIP3    H266813   6.221   0.315  13.328 -0.1256  1.1595  0.1860
15108TIP3   OH266814   3.271   1.542   4.885 -0.7469  0.2893  0.3085
15108TIP3    H166815   3.274   1.630   4.921  1.6047  1.2456 -2.0562
15108TIP3    H266816   3.237   1.553   4.797  0.2785 -1.0563 -0.2788
15109TIP3   OH266817   0.262   0.486   2.923 -0.1597  0.0297 -1.0011
15109TIP3    H166818   0.198   0.470   2.993 -0.0696  1.5793 -0.5604
15109TIP3    H266819   0.213   0.532   2.855 -0.0454 -0.7595 -1.6270
15110TIP3   OH266820   0.550   4.076   1.438 -0.1808  0.5154  0.4017
15110TIP3    H166821   0.531   3.984   1.425 -0.7278  0.5566  0.8727
15110TIP3    H266822   0.469   4.113   1.474 -0.3441  1.4085 -0.8337
15111TIP3   OH266823   6.802   2.595  14.369 -0.5202 -0.1774  0.1514
15111TIP3    H166824   6.752   2.518  14.344 -0.1669 -0.4830  0.3753
15111TIP3    H266825   6.782   2.661  14.302 -0.6658 -0.5281 -0.1474
15112TIP3   OH266826   6.190   1.598  14.708 -0.5937 -0.1944 -0.6177
15112TIP3    H166827   6.252   1.614  14.637  3.6435 -1.2846  2.5769
15112TIP3    H266828   6.164   1.506  14.697  0.8580 -0.6658 -0.2361
15113TIP3   OH266829   3.851   3.034   4.509  0.1116  0.4285 -0.2139
15113TIP3    H166830   3.891   3.046   4.423 -0.9017  0.2952 -0.7058
15113TIP3    H266831   3.833   2.940   4.515  0.5371  0.3757  0.3078
15114TIP3   OH266832   2.192   3.391  14.106  0.6276  0.2487 -0.1876
15114TIP3    H166833   2.162   3.325  14.169 -3.8924  1.8682 -0.4595
15114TIP3    H266834   2.272   3.426  14.145  0.6985 -2.2729  2.1097
15115TIP3   OH266835   0.472   4.356  12.630  0.7254 -0.1609 -0.3659
15115TIP3    H166836   0.419   4.435  12.644 -0.0675 -0.6978 -0.3321
15115TIP3    H266837   0.525   4.349  12.709  0.8582  0.3840 -0.3999
15116TIP3   OH266838   5.469   6.359   2.530 -0.2901  0.0703  0.4553
15116TIP3    H166839   5.432   6.309   2.458 -0.9520  0.0001  0.8469
15116TIP3    H266840   5.397   6.372   2.590 -0.5055  2.8028 -0.3442
15117TIP3   OH266841   5.681   0.827   3.612 -0.0261 -0.7013  1.0129
15117TIP3    H166842   5.647   0.783   3.690 -0.8322  0.0765  1.1070
15117TIP3    H266843   5.642   0.779   3.539 -3.0772  1.5037  1.1301
15118TIP3   OH266844   4.838   3.860   5.844  0.2621  0.1117  0.3104
15118TIP3    H166845   4.814   3.948   5.872  0.0051 -0.0395  0.5797
15118TIP3    H266846   4.898   3.828   5.913  1.0412  0.3950 -0.2312
15119TIP3   OH266847   3.448   4.654   2.653  0.5436  0.1360  0.1027
15119TIP3    H166848   3.478   4.742   2.676  3.5978 -1.3922  2.4103
15119TIP3    H266849   3.467   4.646   2.560  1.5644  1.4578  0.1722
15120TIP3   OH266850   0.688   4.657  14.103 -0.1480  0.6888 -0.5064
15120TIP3    H166851   0.726   4.577  14.141  0.6369  0.0577 -2.5543
15120TIP3    H266852   0.760   4.720  14.103 -0.8826  1.5711  1.5033
15121TIP3   OH266853   2.793   6.378  14.947  0.3630 -0.2700 -0.7161
15121TIP3    H166854   2.855   6.329  14.893  2.7911  2.0685 -0.1853
15121TIP3    H266855   2.796   6.334  15.032 -0.9528 -1.9353 -1.5048
15122TIP3   OH266856   0.967   1.597  17.002  0.8722 -0.4269 -0.0409
15122TIP3    H166857   1.060   1.600  17.026  0.9067  0.5388 -0.2701
15122TIP3    H266858   0.965   1.628  16.912  0.1329  1.3075  0.5528
15123TIP3   OH266859   2.415   3.424  14.363 -0.8812  0.0974  0.1752
15123TIP3    H166860   2.430   3.491  14.296  0.1672 -0.7418 -0.4630
15123TIP3    H266861   2.437   3.342  14.318 -0.7187 -0.5231  1.3847
15124TIP3   OH266862   4.745   2.718  16.187  0.1423  0.0959 -0.1560
15124TIP3    H166863   4.668   2.771  16.169  0.8660  1.1724 -0.1537
15124TIP3    H266864   4.712   2.644  16.237 -0.9614  0.2813 -0.6010
15125TIP3   OH266865   5.022   5.909   0.667  0.4122  0.0288 -0.1312
15125TIP3    H166866   5.026   5.992   0.713  0.9953  0.3457 -0.7387
15125TIP3    H266867   5.107   5.903   0.622 -0.1040 -0.3317 -1.0579
15126TIP3   OH266868   3.558   0.187  14.937 -0.1928  0.3501  0.7091
15126TIP3    H166869   3.613   0.203  15.014  2.3494  1.8892 -1.3493
15126TIP3    H266870   3.589   0.103  14.903  0.4095  0.8528 -0.0127
15127TIP3   OH266871   3.340   0.768  13.235 -1.0639  0.0963 -0.2021
15127TIP3    H166872   3.345   0.706  13.163  1.7535  1.0386 -0.8658
15127TIP3    H266873   3.348   0.715  13.314 -1.2975 -0.6438 -0.6777
15128TIP3   OH266874   4.095   5.284   6.407 -0.0538  0.1073  0.1224
15128TIP3    H166875   4.185   5.297   6.376  0.2035 -0.8554  0.4380
15128TIP3    H266876   4.046   5.356   6.368  0.9866  1.0414  0.5034
15129TIP3   OH266877   5.988   2.023  12.868  0.2143  0.3622 -0.3411
15129TIP3    H166878   6.062   1.962  12.874 -1.1052 -1.2317  0.3337
15129TIP3    H266879   6.008   2.091  12.932  1.4461  0.3332 -0.6914
15130TIP3   OH266880   6.786   0.821   6.111  0.1482 -0.2144 -0.0604
15130TIP3    H166881   6.875   0.856   6.112 -0.3615  1.3499 -3.0779
15130TIP3    H266882   6.734   0.890   6.152  0.1160 -0.5113  0.4010
15131TIP3   OH266883   4.782   3.947  14.031  0.1255  0.1976  0.1421
15131TIP3    H166884   4.849   4.015  14.027 -1.6761  1.9781 -0.8060
15131TIP3    H266885   4.702   3.993  14.058 -1.4761 -1.2290 -2.0016
15132TIP3   OH266886   1.894   3.551  16.316  0.1048 -0.0302 -0.0274
15132TIP3    H166887   1.984   3.571  16.344 -0.5200  0.5126  1.6197
15132TIP3    H266888   1.899   3.461  16.283  1.8453  0.9471 -2.6277
15133TIP3   OH266889   2.242   6.324   2.408 -0.4844  1.0792  0.2589
15133TIP3    H166890   2.257   6.271   2.330  0.5445  1.3054  0.2952
15133TIP3    H266891   2.158   6.367   2.392 -0.2835  1.1261 -0.7317
15134TIP3   OH266892   1.016   0.968  16.768 -0.4019 -0.4226  0.0771
15134TIP3    H166893   0.973   1.011  16.693 -0.9234  2.4247  1.9243
15134TIP3    H266894   0.948   0.965  16.836  1.4679  1.6264  2.1177
15135TIP3   OH266895   4.145   5.689   6.178 -0.1210  0.4863  0.0383
15135TIP3    H166896   4.113   5.656   6.262 -1.1355 -0.2090 -0.6047
15135TIP3    H266897   4.092   5.643   6.113  1.4135  0.1788 -1.0220
15136TIP3   OH266898   5.602   5.360   1.430 -0.3823 -0.2848  0.2235
15136TIP3    H166899   5.549   5.349   1.508  0.2739  2.1304  1.0720
15136TIP3    H266900   5.691   5.377   1.463  0.4807 -2.0127 -1.1138
15137TIP3   OH266901   4.531   1.727   5.641 -0.2842 -0.2164  0.3272
15137TIP3    H166902   4.610   1.779   5.628  0.1241 -0.0241  3.1867
15137TIP3    H266903   4.478   1.744   5.563  1.2511  1.9052 -0.3032
15138TIP3   OH266904   5.377   0.175  16.299  0.2676 -0.4386  0.9404
15138TIP3    H166905   5.354   0.101  16.243  0.8920 -1.5040  2.0671
15138TIP3    H266906   5.418   0.238  16.240 -1.5432 -0.3656 -0.2995
15139TIP3   OH266907   0.458   3.117  13.513 -0.2989  0.2790 -0.7947
15139TIP3    H166908   0.487   3.039  13.559 -0.5955 -0.5131 -1.9214
15139TIP3    H266909   0.369   3.133  13.547 -0.2416  0.1278 -0.5723
15140TIP3   OH266910   3.354   2.124  13.568  0.9586  0.3291  0.0333
15140TIP3    H166911   3.441   2.122  13.529  1.3076 -2.3646  0.8475
15140TIP3    H266912   3.325   2.033  13.568 -2.3598  1.2878 -1.2604
15141TIP3   OH266913   5.383   0.291  10.971  0.1596  0.0430  0.5574
15141TIP3    H166914   5.472   0.284  11.005 -0.6843 -1.1409  2.6417
15141TIP3    H266915   5.383   0.237  10.892  1.4590  0.6078  0.1693
15142TIP3   OH266916   4.444   0.750  13.448 -0.2532 -0.6674 -0.1159
15142TIP3    H166917   4.484   0.816  13.390  0.9085 -1.6649 -0.4651
15142TIP3    H266918   4.462   0.782  13.536  0.0211 -0.3612 -0.2809
15143TIP3   OH266919   6.594   2.774  17.230 -0.5143 -0.1021  0.1011
15143TIP3    H166920   6.543   2.693  17.229 -0.3543 -0.2009 -0.0150
15143TIP3    H266921   6.668   2.756  17.287  0.7130 -0.7661 -1.6668
15144TIP3   OH266922   0.034   0.656  12.931 -0.2723 -0.1889 -0.2955
15144TIP3    H166923   0.049   0.657  12.836 -0.3137  0.8867 -0.2978
15144TIP3    H266924   0.089   0.727  12.964 -1.9606  0.9088  0.2259
15145TIP3   OH266925   5.557   5.222  11.856  0.1721 -0.6177 -0.3684
15145TIP3    H166926   5.586   5.132  11.871  0.3937 -0.5399 -0.3243
15145TIP3    H266927   5.614   5.275  11.912  0.5322 -0.3861 -0.9448
15146TIP3   OH266928   3.708   2.536  11.752  0.1779  0.1505 -0.4976
15146TIP3    H166929   3.644   2.526  11.681  0.1557 -1.1698 -0.3090
15146TIP3    H266930   3.659   2.576  11.823 -0.3043 -0.3712 -0.5360
15147TIP3   OH266931   2.060   3.235   5.059  0.0624  0.2592  0.0287
15147TIP3    H166932   1.979   3.262   5.016  0.9795 -0.5374 -2.2812
15147TIP3    H266933   2.108   3.316   5.073 -0.9896  0.6993  1.0954
15148TIP3   OH266934   1.130   3.186  14.288  0.1713  0.2780  0.1258
15148TIP3    H166935   1.180   3.133  14.226 -1.1168  0.4438 -1.0934
15148TIP3    H266936   1.125   3.133  14.367  0.4895 -0.6062 -0.4419
15149TIP3   OH266937   2.195   4.002   3.606 -0.3290  0.2257  0.0747
15149TIP3    H166938   2.116   3.980   3.557  0.5527  0.4067 -1.4365
15149TIP3    H266939   2.163   4.054   3.681 -1.7246 -0.5217  0.0123
15150TIP3   OH266940   1.782   3.997  15.243  0.4067 -0.0220  0.0492
15150TIP3    H166941   1.817   3.958  15.163  1.2628  0.6742  0.0903
15150TIP3    H266942   1.858   4.024  15.294 -0.1564  1.5324  0.1184
15151TIP3   OH266943   3.994   5.420   1.333  0.4689  0.1642  0.5164
15151TIP3    H166944   4.036   5.476   1.398  0.5791  1.2349 -0.4641
15151TIP3    H266945   3.998   5.470   1.252  1.7364 -1.8222 -0.6834
15152TIP3   OH266946   1.066   2.766   4.709 -0.5637  0.1652  0.5601
15152TIP3    H166947   1.078   2.833   4.776  0.0589  0.8893 -0.2579
15152TIP3    H266948   0.999   2.802   4.650  0.5364  0.5530 -0.4781
15153TIP3   OH266949   3.754   5.500   0.399  0.3556 -0.2806 -0.3207
15153TIP3    H166950   3.703   5.534   0.326 -1.9156  0.1418  1.4159
15153TIP3    H266951   3.785   5.414   0.369 -0.2812  0.0203 -1.8820
15154TIP3   OH266952   0.790   2.637  12.377 -0.2419  0.3509 -0.0695
15154TIP3    H166953   0.837   2.640  12.460 -0.6202 -1.6757  0.2350
15154TIP3    H266954   0.727   2.709  12.382 -1.4519 -0.8082  2.1353
15155TIP3   OH266955   3.692   0.925   0.700 -0.3733 -0.3196 -0.5044
15155TIP3    H166956   3.736   1.006   0.724 -0.8506 -0.0177 -0.6465
15155TIP3    H266957   3.599   0.948   0.695 -0.5836 -1.0175  0.0788
15156TIP3   OH266958   2.713   6.478  12.303 -0.4592  0.2019  0.0922
15156TIP3    H166959   2.704   6.485  12.208 -3.8749  1.3452  0.4076
15156TIP3    H266960   2.703   6.385  12.321  1.6955 -0.2200 -0.7536
15157TIP3   OH266961   2.938   2.858  14.411 -0.4677  0.2716 -0.3981
15157TIP3    H166962   2.980   2.891  14.491 -2.1272 -0.4216  0.7893
15157TIP3    H266963   2.971   2.915  14.342  1.6001  0.4031  0.6464
15158TIP3   OH266964   1.326   5.026  14.410  0.7828  0.0981 -0.0633
15158TIP3    H166965   1.420   5.010  14.420  0.5490 -0.5733  1.1645
15158TIP3    H266966   1.314   5.117  14.437  0.8904 -0.2128  1.0443
15159TIP3   OH266967   0.336   5.350   2.162 -0.1186  0.2962 -0.2252
15159TIP3    H166968   0.375   5.359   2.249 -0.5770 -2.1102  0.2931
15159TIP3    H266969   0.249   5.313   2.180  0.3700 -1.7007 -1.7532
15160TIP3   OH266970   5.815   5.383  13.780  0.4991 -0.2590 -0.2274
15160TIP3    H166971   5.780   5.457  13.731  2.2656  1.7107  1.4304
15160TIP3    H266972   5.908   5.383  13.760  0.6928 -1.3702  0.6396
15161TIP3   OH266973   3.601   3.538  15.029  0.0482 -0.7387  0.2416
15161TIP3    H166974   3.596   3.477  15.102 -1.4748  0.4765  1.2002
15161TIP3    H266975   3.598   3.625  15.070  0.7261 -0.0277 -1.1700
15162TIP3   OH266976   5.791   6.621  12.835 -0.4387  0.3992  0.0805
15162TIP3    H166977   5.739   6.667  12.901 -0.0565  2.5652 -1.0903
15162TIP3    H266978   5.732   6.613  12.760 -0.5404 -1.1935  0.3004
15163TIP3   OH266979   2.719   1.139   6.256  0.1265  0.1886 -0.3514
15163TIP3    H166980   2.644   1.110   6.308  1.0666 -1.3480  0.1727
15163TIP3    H266981   2.737   1.227   6.287 -1.9862  0.9131 -1.0792
15164TIP3   OH266982   3.317   3.634  10.359 -0.2916 -0.0405 -0.6566
15164TIP3    H166983   3.401   3.597  10.335  0.3932  1.3712 -0.5073
15164TIP3    H266984   3.277   3.569  10.417  1.0495 -0.3477 -0.0684
15165TIP3   OH266985   1.070   6.187   0.500 -0.0869  0.3383 -1.2025
15165TIP3    H166986   1.027   6.114   0.456 -1.4174 -1.2195  2.4579
15165TIP3    H266987   1.001   6.253   0.509 -0.2932 -0.0346  0.0090
15166TIP3   OH266988   4.092   2.513   5.810  0.1183 -0.3548  0.1523
15166TIP3    H166989   3.997   2.510   5.808  0.0671  1.1891 -0.3728
15166TIP3    H266990   4.115   2.586   5.752  1.6513 -1.3277 -0.5021
15167TIP3   OH266991   5.750   2.547   1.383 -0.0369  0.3309  0.3419
15167TIP3    H166992   5.761   2.581   1.471  0.7146  2.0553 -0.3917
15167TIP3    H266993   5.821   2.586   1.333 -0.5245 -0.5265 -1.0667
15168TIP3   OH266994   1.184   1.574  11.957  0.2641 -0.4140  0.0972
15168TIP3    H166995   1.172   1.483  11.982  0.0388  0.0087  1.5802
15168TIP3    H266996   1.232   1.570  11.874 -0.3465 -1.8819 -0.2039
15169TIP3   OH266997   5.850   3.487  12.340  0.0215 -0.3382  0.0684
15169TIP3    H166998   5.867   3.395  12.321 -1.0570 -0.4046 -0.6034
15169TIP3    H266999   5.824   3.487  12.433  0.6225 -0.6239  0.2410
15170TIP3   OH267000   3.781   1.648  15.450 -0.3592  0.4969  0.0143
15170TIP3    H167001   3.733   1.641  15.532  1.2196  0.8858  0.9787
15170TIP3    H267002   3.743   1.724  15.406  0.9084  2.2266  1.8229
15171TIP3   OH267003   6.053   0.796   4.576 -0.2171 -0.3688 -0.1443
15171TIP3    H167004   6.069   0.753   4.492 -1.6952 -0.1014 -0.5755
15171TIP3    H267005   5.976   0.851   4.561  0.3420  0.7602  1.0020
15172TIP3   OH267006   4.010   6.253  14.777 -0.1250 -0.1773 -0.2927
15172TIP3    H167007   4.105   6.261  14.776 -0.1878  0.4862 -0.5792
15172TIP3    H267008   3.980   6.306  14.703 -0.8276  1.0599  0.8568
15173TIP3   OH267009   5.273   5.945  15.640  0.4632  0.2606 -0.1132
15173TIP3    H167010   5.281   6.010  15.709  1.1244 -1.4056  1.4351
15173TIP3    H267011   5.364   5.929  15.612  0.2007  0.8881 -1.3209
15174TIP3   OH267012   3.235   4.348   0.816  0.8689 -0.2424 -0.1600
15174TIP3    H167013   3.272   4.306   0.893  1.6630  0.1856 -0.3003
15174TIP3    H267014   3.206   4.276   0.760  0.4265 -0.5558  0.4709
15175TIP3   OH267015   1.111   2.810   5.897  0.8159  0.2676  0.2854
15175TIP3    H167016   1.127   2.803   5.991 -0.8385 -1.3719  0.4623
15175TIP3    H267017   1.083   2.723   5.871  0.2116  0.9871 -1.5335
15176TIP3   OH267018   0.113   0.141  16.742 -0.0871  0.0009  0.1878
15176TIP3    H167019   0.133   0.219  16.691 -0.2852 -1.1370 -1.6861
15176TIP3    H267020   0.094   0.174  16.830  2.0596  1.8422  0.0315
15177TIP3   OH267021   1.346   3.067  14.183  0.4654 -0.1025  0.0566
15177TIP3    H167022   1.379   3.003  14.120  0.6764  1.2792 -1.2717
15177TIP3    H267023   1.423   3.095  14.232  0.5007 -0.3122  0.1180
15178TIP3   OH267024   3.459   0.261  12.917  0.0141 -0.4195 -0.2556
15178TIP3    H167025   3.390   0.241  12.853 -0.7066  0.9921  0.0694
15178TIP3    H267026   3.413   0.260  13.002  0.6627 -0.7711  0.0946
15179TIP3   OH267027   1.976   4.400  15.356  0.0475  0.1401  0.5213
15179TIP3    H167028   2.010   4.374  15.441 -1.1086 -3.3008 -0.0085
15179TIP3    H267029   1.889   4.359  15.351 -0.1663  0.8041 -2.0598
15180TIP3   OH267030   2.191   3.689   3.803 -0.1946  0.0880  0.4925
15180TIP3    H167031   2.171   3.731   3.720  1.2049 -0.9490 -0.3773
15180TIP3    H267032   2.164   3.753   3.869 -1.1581  0.9839 -0.7466
15181TIP3   OH267033   5.850   2.251  15.362  0.4897 -0.5698 -0.8986
15181TIP3    H167034   5.833   2.201  15.282  1.3313 -0.4908 -1.1315
15181TIP3    H267035   5.770   2.242  15.413  0.5137 -1.8974 -1.0809
15182TIP3   OH267036   1.967   3.830   0.490 -0.2556 -0.0638  0.7835
15182TIP3    H167037   1.928   3.775   0.422  1.6046 -0.9475  0.4065
15182TIP3    H267038   1.940   3.919   0.467  0.2954 -0.3662 -1.0660
15183TIP3   OH267039   2.564   2.126   3.080  0.2534  0.6227 -0.2896
15183TIP3    H167040   2.579   2.192   3.148  2.5438 -0.6040  0.4507
15183TIP3    H267041   2.627   2.057   3.099  1.1057  0.3258 -3.8056
15184TIP3   OH267042   1.845   6.141   1.093 -0.1838  0.2596 -0.4709
15184TIP3    H167043   1.917   6.129   1.154  0.2767 -0.4177 -1.1351
15184TIP3    H267044   1.804   6.223   1.119 -0.7799 -0.6348  1.5527
15185TIP3   OH267045   0.654   5.380   4.813 -0.4795  0.3736  0.0007
15185TIP3    H167046   0.679   5.413   4.899  3.1513 -1.4234 -0.2842
15185TIP3    H267047   0.716   5.422   4.753  0.0030 -1.9149 -1.1361
15186TIP3   OH267048   4.988   0.806  15.561  0.2247 -0.0134 -0.7350
15186TIP3    H167049   4.904   0.843  15.586 -0.0098 -0.2409 -1.1739
15186TIP3    H267050   4.968   0.748  15.487  0.8312  0.2989 -1.1548
15187TIP3   OH267051   1.735   0.022   1.095  0.6616 -0.4385  0.2578
15187TIP3    H167052   1.829   0.005   1.083  0.7847  1.8680 -2.2933
15187TIP3    H267053   1.728   0.049   1.187  2.4623 -0.6446  0.4804
15188TIP3   OH267054   0.082   4.516   2.459  0.2151  0.2500 -0.7531
15188TIP3    H167055   0.004   4.469   2.489  0.0465  1.9294  1.5169
15188TIP3    H267056   0.138   4.448   2.422 -0.9087 -1.4428  0.5959
15189TIP3   OH267057   1.544   4.771   2.650 -0.9662  0.3208 -0.6573
15189TIP3    H167058   1.498   4.712   2.709 -2.1434  0.8013 -1.0689
15189TIP3    H267059   1.593   4.714   2.591 -4.5769 -0.4224 -3.0745
15190TIP3   OH267060   0.967   4.758   2.456  0.3197 -0.8715  0.0435
15190TIP3    H167061   0.960   4.845   2.497 -0.5814 -1.6803  1.6634
15190TIP3    H267062   1.061   4.745   2.445  0.4836  0.1840  0.0675
15191TIP3   OH267063   0.831   5.491  11.853  0.2665  0.7821 -0.4090
15191TIP3    H167064   0.902   5.455  11.907  0.9534 -0.0412 -1.8289
15191TIP3    H267065   0.871   5.562  11.803 -0.5365  2.0070  0.6586
15192TIP3   OH267066   3.556   2.547  10.997  0.1129 -0.2302 -0.0419
15192TIP3    H167067   3.528   2.637  10.978  0.5360  0.0764  0.7621
15192TIP3    H267068   3.643   2.557  11.037  0.5366 -1.0525 -0.7428
15193TIP3   OH267069   4.125   2.003   1.262 -0.2900  0.7015  0.5764
15193TIP3    H167070   4.143   1.977   1.352  0.3243 -1.5245 -0.1571
15193TIP3    H267071   4.203   2.052   1.235  0.2332 -0.0331  0.7438
15194TIP3   OH267072   3.962   4.664  16.812 -0.4254 -0.5604  0.0502
15194TIP3    H167073   3.915   4.741  16.782 -2.2214 -1.1970  1.1286
15194TIP3    H267074   4.027   4.698  16.874 -0.9779  0.1193  0.2614
15195TIP3   OH267075   1.255   6.567  16.460  0.3531 -0.0448  0.0148
15195TIP3    H167076   1.249   6.623  16.382 -1.8090 -1.3396 -0.7721
15195TIP3    H267077   1.229   6.480  16.430 -0.0263 -0.6746  2.0815
15196TIP3   OH267078   2.633   4.486   3.128 -0.1633  0.6086 -0.2244
15196TIP3    H167079   2.711   4.470   3.181 -0.4623 -2.1687 -0.5299
15196TIP3    H267080   2.667   4.507   3.041  0.2618  0.2812 -0.1366
15197TIP3   OH267081   5.045   3.524  16.761 -0.0614  0.0283 -0.2047
15197TIP3    H167082   4.977   3.470  16.721 -0.0989 -0.0667 -0.0139
15197TIP3    H267083   5.119   3.518  16.701  0.0724 -0.5534  0.0104
15198TIP3   OH267084   6.167   0.262   5.481 -0.7784  0.0983 -0.2338
15198TIP3    H167085   6.159   0.312   5.399  0.0073  0.4246 -0.1208
15198TIP3    H267086   6.090   0.288   5.532 -0.3441  1.2582 -0.1474
15199TIP3   OH267087   1.890   1.386   1.596 -0.2097 -0.2210 -0.4018
15199TIP3    H167088   1.982   1.360   1.601 -0.2237 -0.2040 -0.0102
15199TIP3    H267089   1.890   1.467   1.545 -0.0017 -0.1969 -0.3631
15200TIP3   OH267090   5.201   4.114   0.324  0.0905  0.0126  0.1564
15200TIP3    H167091   5.148   4.058   0.267  1.1007 -0.9427  0.1212
15200TIP3    H267092   5.147   4.191   0.339 -0.0531  0.4480 -2.3899
15201TIP3   OH267093   2.853   0.876  14.907 -0.3457 -0.2267 -0.3300
15201TIP3    H167094   2.916   0.899  14.838  1.1380 -0.9726  0.7411
15201TIP3    H267095   2.801   0.805  14.871 -0.3033  0.1244 -1.0817
15202TIP3   OH267096   0.312   3.324   1.265  0.1811 -0.3084 -0.3062
15202TIP3    H167097   0.394   3.371   1.283  1.1340 -0.0814 -4.5912
15202TIP3    H267098   0.324   3.238   1.305  2.7113 -0.3873 -1.1419
15203TIP3   OH267099   3.584   6.012  11.776  0.2285 -0.9540 -0.2807
15203TIP3    H167100   3.659   6.025  11.834 -0.3770 -1.5191  0.6574
15203TIP3    H267101   3.611   5.944  11.715  0.5326 -1.0581 -0.0299
15204TIP3   OH267102   2.333   3.482  12.849 -0.1261  0.3907  0.2378
15204TIP3    H167103   2.396   3.436  12.793 -2.3005 -1.5605 -0.6646
15204TIP3    H267104   2.329   3.570  12.812  1.3317  0.2666 -0.2800
15205TIP3   OH267105   0.755   5.009   3.981  0.5665 -0.7422 -0.0675
15205TIP3    H167106   0.684   5.023   3.919  1.3774  0.8163 -0.6631
15205TIP3    H267107   0.747   5.081   4.044  0.6782 -1.4479  0.7682
15206TIP3   OH267108   6.774   6.107   6.902 -0.5130  0.0040 -0.5645
15206TIP3    H167109   6.729   6.151   6.975 -1.5721 -0.7911 -0.7465
15206TIP3    H267110   6.852   6.069   6.943 -1.7839 -1.5920  0.4493
15207TIP3   OH267111   3.874   2.211   0.961 -0.4067 -0.3644  0.1965
15207TIP3    H167112   3.801   2.158   0.931  0.8167 -3.1396  1.8685
15207TIP3    H267113   3.847   2.242   1.048  0.1683 -0.9766  0.6004
15208TIP3   OH267114   1.804   1.248   2.217  0.1963  0.1153  0.4741
15208TIP3    H167115   1.792   1.228   2.124  1.9258  1.6304 -0.1117
15208TIP3    H267116   1.717   1.273   2.248 -0.1820  0.7776 -1.0575
15209TIP3   OH267117   5.647   5.047   5.114 -0.5736  0.3759  0.0293
15209TIP3    H167118   5.742   5.062   5.118  0.0352 -3.1821  0.7327
15209TIP3    H267119   5.616   5.063   5.203 -0.2201 -0.6174  0.3464
15210TIP3   OH267120   5.898   5.322   4.838  0.2671  0.3969 -0.5521
15210TIP3    H167121   5.906   5.236   4.880  1.2431 -0.9247 -3.2932
15210TIP3    H267122   5.953   5.380   4.890  0.0179 -0.7559  1.0247
15211TIP3   OH267123   1.055   5.609  16.589  0.7348  0.0213 -0.1918
15211TIP3    H167124   1.089   5.524  16.618 -1.3943 -1.9766 -3.1919
15211TIP3    H267125   1.128   5.649  16.542  1.5184 -0.4449  0.6005
15212TIP3   OH267126   1.262   5.661  12.648 -0.2743  0.2441 -0.6402
15212TIP3    H167127   1.198   5.593  12.667  1.5284 -0.9135  1.6245
15212TIP3    H267128   1.342   5.613  12.627  0.5499  1.6660 -0.7742
15213TIP3   OH267129   6.034   1.311  13.139 -0.1061  0.2615 -0.3548
15213TIP3    H167130   6.115   1.361  13.136  0.5501 -0.7478  0.0652
15213TIP3    H267131   5.969   1.367  13.098  1.1891  0.3779 -2.3064
15214TIP3   OH267132   3.891   1.865  14.688 -0.4662  0.3074  0.0528
15214TIP3    H167133   3.900   1.820  14.604 -0.6564  0.0769  0.1537
15214TIP3    H267134   3.814   1.825  14.728 -1.1848  1.3538 -0.2550
15215TIP3   OH267135   5.891   4.087  14.909  0.4358 -0.1252 -0.6935
15215TIP3    H167136   5.960   4.092  14.975 -2.3991  0.6887  2.3548
15215TIP3    H267137   5.856   3.998  14.918  0.3248 -0.1556 -1.4142
15216TIP3   OH267138   1.374   5.928  13.696 -0.4708  0.5777 -0.0433
15216TIP3    H167139   1.466   5.921  13.673 -0.3565  1.9892 -0.0797
15216TIP3    H267140   1.327   5.913  13.613 -0.3287 -1.3227  0.2094
15217TIP3   OH267141   3.156   3.743  14.633  0.4350  0.1124  0.3798
15217TIP3    H167142   3.129   3.750  14.541 -0.2301 -0.0537  0.5631
15217TIP3    H267143   3.110   3.665  14.665  1.2917 -0.2967  0.6318
15218TIP3   OH267144   3.859   6.689   3.356 -0.7113 -0.0429  0.0207
15218TIP3    H167145   3.817   6.684   3.271  0.0890  0.6193 -0.4202
15218TIP3    H267146   3.788   6.672   3.419 -1.1384 -1.3730 -0.7874
15219TIP3   OH267147   5.631   3.461   2.733 -0.0563  0.2422 -0.4913
15219TIP3    H167148   5.579   3.501   2.663  0.5520  2.6896  0.4089
15219TIP3    H267149   5.569   3.449   2.805 -0.0357  0.3787 -0.4513
15220TIP3   OH267150   0.811   0.672  15.237  0.0335  0.1725  0.3036
15220TIP3    H167151   0.740   0.657  15.299 -0.9075  1.2381 -0.4681
15220TIP3    H267152   0.811   0.594  15.181 -0.1582 -0.0903  0.6705
15221TIP3   OH267153   3.529   2.532   6.311  0.2050 -0.1408 -0.1431
15221TIP3    H167154   3.546   2.587   6.387 -0.0010  0.9875 -0.8984
15221TIP3    H267155   3.437   2.547   6.290 -0.2591 -1.8837  0.5001
15222TIP3   OH267156   6.423   0.166   0.398  0.2476  0.0517  0.2595
15222TIP3    H167157   6.432   0.256   0.430  1.0186 -0.0583  0.3568
15222TIP3    H267158   6.510   0.143   0.366  0.1929 -0.8583  0.7494
15223TIP3   OH267159   3.240   1.771  11.768  0.9297 -0.3236  0.0764
15223TIP3    H167160   3.317   1.814  11.805  2.0861  0.4572 -3.0737
15223TIP3    H267161   3.193   1.841  11.723 -1.4767 -0.8737  1.6403
15224TIP3   OH267162   3.661   4.098   3.258  0.0841  0.3573 -0.0919
15224TIP3    H167163   3.702   4.113   3.173 -0.1804  1.4024 -0.0432
15224TIP3    H267164   3.719   4.142   3.320 -1.5401  2.6188 -0.1122
15225TIP3   OH267165   5.863   6.791  14.623 -0.1483  0.0624 -0.5420
15225TIP3    H167166   5.908   6.767  14.542  0.4768 -0.1681 -0.1299
15225TIP3    H267167   5.924   6.848  14.669 -0.4745  0.1442 -0.2060
15226TIP3   OH267168   3.329   0.148   1.497  0.5164 -0.1681 -0.4011
15226TIP3    H167169   3.375   0.150   1.413 -1.3249 -0.1794 -1.4216
15226TIP3    H267170   3.281   0.230   1.501 -0.1944 -0.6009  0.1881
15227TIP3   OH267171   3.757   3.887  16.897  0.5883  0.5793 -0.6305
15227TIP3    H167172   3.822   3.934  16.950 -0.8256  0.8239  0.9465
15227TIP3    H267173   3.688   3.952  16.882 -1.0429 -0.7429  0.9310
15228TIP3   OH267174   5.570   3.830   1.134  0.1223  0.6148 -0.5276
15228TIP3    H167175   5.635   3.794   1.195 -1.0751 -1.6219 -0.5199
15228TIP3    H267176   5.579   3.774   1.056 -1.7363  0.3318 -0.5431
15229TIP3   OH267177   2.874   3.886   0.895 -0.1245 -0.2601  0.1728
15229TIP3    H167178   2.846   3.801   0.929 -1.9740 -0.2421 -1.2350
15229TIP3    H267179   2.898   3.869   0.804  2.6655  0.1249  0.7760
15230TIP3   OH267180   3.450   0.258   1.261 -0.3628 -0.3013 -0.6171
15230TIP3    H167181   3.376   0.278   1.203 -0.0991  1.0058 -0.5235
15230TIP3    H267182   3.453   0.333   1.321  2.0056  0.4473 -1.6283
15231TIP3   OH267183   5.825   3.999   6.402  0.4420  0.0648 -0.0491
15231TIP3    H167184   5.863   3.911   6.413  1.5585  0.4864 -0.4908
15231TIP3    H267185   5.900   4.058   6.402 -0.3674  1.1408  1.2875
15232TIP3   OH267186   5.274   3.043  13.818  0.0836 -0.5545  0.1148
15232TIP3    H167187   5.230   2.980  13.875 -1.4749  0.7873  0.4113
15232TIP3    H267188   5.238   3.025  13.731  0.7031 -1.0130 -0.0524
15233TIP3   OH267189   0.748   2.592  16.570 -0.2955  0.3212  0.3888
15233TIP3    H167190   0.736   2.617  16.478 -0.4847  0.4421  0.4483
15233TIP3    H267191   0.662   2.603  16.610 -0.2772  0.0097  0.5192
15234TIP3   OH267192   6.602   2.576  13.850 -0.1905  0.2614  0.5236
15234TIP3    H167193   6.686   2.585  13.895  1.5740 -1.0981 -2.3427
15234TIP3    H267194   6.576   2.665  13.828  0.7059  0.6489  1.0459
15235TIP3   OH267195   6.011   2.308   0.393 -0.2566 -0.2675  0.4355
15235TIP3    H167196   6.003   2.361   0.314 -0.8414 -3.2468 -1.5931
15235TIP3    H267197   5.999   2.370   0.465 -1.4335  2.2328 -1.8219
15236TIP3   OH267198   3.957   5.814  16.693 -0.4470 -0.2049 -0.0144
15236TIP3    H167199   3.909   5.774  16.620 -0.3677 -0.3926  0.0352
15236TIP3    H267200   4.044   5.774  16.690  0.2807  1.4098 -1.1780
15237TIP3   OH267201   3.547   4.617   5.162 -0.1279 -0.3278  0.3864
15237TIP3    H167202   3.526   4.593   5.071 -3.4606 -1.4639  1.3935
15237TIP3    H267203   3.485   4.687   5.182  0.3031 -0.3836  1.9308
15238TIP3   OH267204   6.056   0.486   0.885  0.1099 -0.0343 -0.3915
15238TIP3    H167205   6.022   0.428   0.817 -1.8143 -1.2014  1.4776
15238TIP3    H267206   6.018   0.572   0.865 -1.8967 -0.7495  0.1276
15239TIP3   OH267207   3.005   3.555   1.570 -0.3736 -0.5352 -0.1620
15239TIP3    H167208   2.951   3.634   1.566  1.3139  0.7172  0.9471
15239TIP3    H267209   2.998   3.526   1.661  0.6208 -0.4941 -0.0642
15240TIP3   OH267210   4.080   3.238  16.820  0.3908  0.0765 -0.0649
15240TIP3    H167211   4.122   3.275  16.742  0.0893  1.2305  0.3058
15240TIP3    H267212   4.006   3.297  16.837  0.9364  0.2959  1.5796
15241TIP3   OH267213   4.246   1.494   1.476 -0.6814  0.1362  0.7004
15241TIP3    H167214   4.275   1.415   1.521 -0.3578  1.0033  2.0353
15241TIP3    H267215   4.183   1.463   1.412 -1.3404 -1.0904  1.9157
15242TIP3   OH267216   5.458   1.741   5.153 -0.2466 -0.2522  0.3607
15242TIP3    H167217   5.468   1.687   5.075  1.0668  1.3959 -0.6366
15242TIP3    H267218   5.363   1.752   5.163 -0.3986  0.4170 -1.6409
15243TIP3   OH267219   4.729   2.342  11.434 -0.0069  0.1091  0.6269
15243TIP3    H167220   4.647   2.292  11.436 -0.9005  1.5727  1.7464
15243TIP3    H267221   4.744   2.366  11.526  1.3081  0.4302  0.3258
15244TIP3   OH267222   3.815   5.077   4.302  0.0044  0.5621  0.0033
15244TIP3    H167223   3.863   5.144   4.350 -0.9135  1.5667 -0.4342
15244TIP3    H267224   3.842   5.090   4.211 -0.1722  0.3356 -0.0808
15245TIP3   OH267225   6.521   3.475  10.910  0.4617  0.6873  0.1361
15245TIP3    H167226   6.529   3.568  10.888  1.1068  0.8088  0.8338
15245TIP3    H267227   6.610   3.450  10.936  0.5302 -0.4158 -1.1424
15246TIP3   OH267228   2.160   3.802  13.247 -0.2788 -0.0331 -0.1318
15246TIP3    H167229   2.078   3.842  13.277  0.2865  1.5686 -0.6672
15246TIP3    H267230   2.199   3.765  13.327 -0.1405  1.7352  0.6601
15247TIP3   OH267231   6.709   4.786   5.698  0.2089  0.4583  0.1068
15247TIP3    H167232   6.632   4.829   5.734  0.8286  1.0202  0.7812
15247TIP3    H267233   6.735   4.841   5.623 -0.5260 -0.1913 -0.6366
15248TIP3   OH267234   4.141   0.514   5.342  0.7008  0.2870 -0.1865
15248TIP3    H167235   4.212   0.528   5.279 -1.0172  0.3137 -2.1637
15248TIP3    H267236   4.139   0.420   5.356 -0.0290  0.0811 -1.5549
15249TIP3   OH267237   5.640   6.649  16.262 -0.0262 -1.0742 -0.3517
15249TIP3    H167238   5.641   6.720  16.326  0.3596 -0.5138 -0.9761
15249TIP3    H267239   5.560   6.664  16.211 -0.4191 -1.6133  0.0864
15250TIP3   OH267240   4.835   2.289   3.630 -0.1875 -0.1267  0.3292
15250TIP3    H167241   4.832   2.377   3.666 -2.2480  0.4129 -1.0673
15250TIP3    H267242   4.923   2.282   3.592 -0.5288  1.9307 -0.9481
15251TIP3   OH267243   1.333   0.789  16.007  0.2408 -0.4869  0.4987
15251TIP3    H167244   1.351   0.828  16.093  1.9934  0.0972 -0.1175
15251TIP3    H267245   1.301   0.862  15.954  2.1273 -0.1662 -0.2304
15252TIP3   OH267246   3.325   5.756  14.945  0.1118 -0.6574 -0.0578
15252TIP3    H167247   3.410   5.754  14.988 -0.4362 -2.4089  1.0314
15252TIP3    H267248   3.311   5.848  14.922  1.5655 -0.0937  1.2264
15253TIP3   OH267249   1.083   1.058  15.370 -0.6337 -0.0335 -0.5119
15253TIP3    H167250   1.094   0.964  15.361 -0.2504  0.2311 -3.0727
15253TIP3    H267251   1.140   1.096  15.303 -0.8332  2.0181  0.4324
15254TIP3   OH267252   5.663   5.505  15.331  0.5719 -0.0745 -0.1280
15254TIP3    H167253   5.632   5.471  15.247  1.8419 -1.1687 -0.1771
15254TIP3    H267254   5.646   5.434  15.393  0.6567  0.2996  0.3227
15255TIP3   OH267255   5.214   6.167  16.129  0.2853  0.4717 -0.2090
15255TIP3    H167256   5.193   6.167  16.222  1.2784 -1.8853  0.0627
15255TIP3    H267257   5.300   6.208  16.123  0.6768 -0.3004  0.0494
15256TIP3   OH267258   2.619   0.566   3.002 -0.7613 -0.6136 -0.4177
15256TIP3    H167259   2.596   0.481   2.965 -1.4582 -1.2192  1.3596
15256TIP3    H267260   2.711   0.578   2.980 -0.6893 -1.7666 -0.7817
15257TIP3   OH267261   6.088   0.296   4.149  0.0813 -0.3088 -0.0496
15257TIP3    H167262   6.139   0.301   4.229  0.0282 -0.7182  0.0091
15257TIP3    H267263   6.036   0.216   4.158 -0.1834 -0.1709 -0.3370
15258TIP3   OH267264   3.255   6.017  13.467  0.0567  0.4489 -0.0481
15258TIP3    H167265   3.293   5.950  13.409 -0.1064 -0.8727  1.3321
15258TIP3    H267266   3.297   6.098  13.440 -0.6052  0.0029 -2.5657
15259TIP3   OH267267   6.186   3.977   4.025 -1.2546  0.3351  0.0954
15259TIP3    H167268   6.108   4.030   4.012 -0.2420  2.3251  1.8036
15259TIP3    H267269   6.257   4.041   4.032  0.3868 -1.3913 -0.5156
15260TIP3   OH267270   3.954   6.457   3.966  0.1969 -0.4080 -0.4604
15260TIP3    H167271   3.886   6.414   3.914  0.8260 -0.9825 -0.8147
15260TIP3    H267272   4.037   6.430   3.925  0.6191  0.9156 -0.5250
15261TIP3   OH267273   2.638   6.112   0.162  0.2229  0.6192 -0.1619
15261TIP3    H167274   2.679   6.155   0.087  0.3928 -0.5976 -0.7868
15261TIP3    H267275   2.590   6.182   0.206 -1.2017  1.0844 -2.3167
15262TIP3   OH267276   4.514   1.956  16.660 -0.0567  0.7103 -0.0795
15262TIP3    H167277   4.582   1.994  16.716  0.6344  0.3002 -0.6367
15262TIP3    H267278   4.450   1.920  16.722  0.2179  1.1191  0.4466
15263TIP3   OH267279   1.205   3.336   3.590 -0.2778 -0.0993  0.4742
15263TIP3    H167280   1.204   3.331   3.686  3.9681 -3.3438  0.5021
15263TIP3    H267281   1.207   3.245   3.561  0.2364  0.8499 -2.6339
15264TIP3   OH267282   1.347   6.019  13.083 -0.1589 -0.0007  0.2535
15264TIP3    H167283   1.389   5.993  13.165  0.2345 -0.0212  0.0480
15264TIP3    H267284   1.354   5.941  13.028  0.5094  0.3543 -0.1633
15265TIP3   OH267285   1.916   4.512  11.736 -0.0995 -0.4574  0.2141
15265TIP3    H167286   1.823   4.524  11.717  0.0858  4.1821  1.6431
15265TIP3    H267287   1.921   4.505  11.831  1.1753  1.1933  0.2757
15266TIP3   OH267288   4.170   3.116  15.191 -0.3879 -0.5988 -0.2028
15266TIP3    H167289   4.243   3.055  15.199  0.2615  0.2442  0.3922
15266TIP3    H267290   4.196   3.192  15.243 -1.3909 -0.0070 -0.5453
15267TIP3   OH267291   0.631   0.049  11.152  0.1260  0.0530 -0.4202
15267TIP3    H167292   0.575   0.041  11.230 -1.9938  1.2887 -1.7519
15267TIP3    H267293   0.683  -0.031  11.152 -1.3962 -0.9897  1.0973
15268TIP3   OH267294   2.814   2.827  17.099  0.3393  0.5507  0.0090
15268TIP3    H167295   2.891   2.885  17.095  0.4899  0.5771  2.6299
15268TIP3    H267296   2.840   2.757  17.159 -2.1205  1.2534  1.9877
15269TIP3   OH267297   5.006   1.826   4.643  0.6599  0.4426 -0.4064
15269TIP3    H167298   4.939   1.835   4.574  0.7912  3.7242 -0.2087
15269TIP3    H267299   4.955   1.824   4.724  0.6664 -0.2518 -0.4151
15270TIP3   OH267300   5.872   4.070   2.418 -0.2899  0.6125 -0.1648
15270TIP3    H167301   5.877   4.087   2.512  0.9755  0.7587 -0.2603
15270TIP3    H267302   5.819   4.142   2.383 -3.7376 -1.2668  0.8957
15271TIP3   OH267303   2.356   1.097  13.799  0.1949  0.1353 -1.2080
15271TIP3    H167304   2.330   1.093  13.707 -0.5175  0.0098 -1.0100
15271TIP3    H267305   2.450   1.112  13.797  0.1364  0.4597 -1.9585
15272TIP3   OH267306   6.731   6.175   3.949  0.2353 -0.4047  0.1130
15272TIP3    H167307   6.708   6.262   3.981  0.6410  0.2630 -1.3389
15272TIP3    H267308   6.789   6.139   4.017  0.8572  0.8529  0.2690
15273TIP3   OH267309   5.920   4.538   2.968  0.3011  0.7511 -0.1309
15273TIP3    H167310   5.899   4.603   3.035 -0.6893 -0.1595  0.4575
15273TIP3    H267311   5.835   4.508   2.936  0.7452 -0.2122 -0.4389
15274TIP3   OH267312   4.903   3.906  16.301 -0.7304 -0.1209  0.3733
15274TIP3    H167313   4.826   3.963  16.303 -0.9120 -0.3947  4.3795
15274TIP3    H267314   4.947   3.922  16.385  2.6560 -1.2820 -1.0837
15275TIP3   OH267315   2.385   6.214  15.056 -0.5069 -0.5503  0.2901
15275TIP3    H167316   2.317   6.150  15.078  0.4280 -1.2052  1.4076
15275TIP3    H267317   2.340   6.298  15.056 -1.4137 -1.0252  0.5734
15276TIP3   OH267318   0.238   5.881   5.314  0.6100  0.0535 -0.4863
15276TIP3    H167319   0.172   5.864   5.381 -0.3636 -2.7185 -2.0938
15276TIP3    H267320   0.201   5.951   5.261 -0.1149 -0.0847 -0.1619
15277TIP3   OH267321   5.785   2.803  14.396 -0.9969 -0.6938 -0.4205
15277TIP3    H167322   5.789   2.890  14.435 -1.2887 -0.5703 -0.6654
15277TIP3    H267323   5.877   2.776  14.388 -0.9404 -0.7297  0.3684
15278TIP3   OH267324   5.174   5.413   5.169  0.4766 -0.0536  0.2437
15278TIP3    H167325   5.189   5.440   5.260 -1.1301  0.7140  0.2892
15278TIP3    H267326   5.171   5.318   5.173  0.5108 -0.0319  0.9756
15279TIP3   OH267327   6.062   4.147   4.519 -0.8986  0.6966  0.4051
15279TIP3    H167328   6.094   4.057   4.505 -1.7495  0.5356 -0.5538
15279TIP3    H267329   5.996   4.138   4.587 -0.3528  0.7280  0.9418
15280TIP3   OH267330   5.637   5.524   5.538  0.4995 -0.5633  0.1076
15280TIP3    H167331   5.643   5.566   5.452  1.0226 -0.9317 -0.0387
15280TIP3    H267332   5.582   5.446   5.523 -0.6836  0.1965  0.4333
15281TIP3   OH267333   1.028   5.679  11.776 -0.1224 -0.4880  0.6711
15281TIP3    H167334   1.047   5.762  11.820 -2.2823 -0.1623  1.0507
15281TIP3    H267335   1.107   5.626  11.790  0.8679  1.1188  1.3269
15282TIP3   OH267336   2.924   5.502  11.458  0.2841  0.2690  0.5402
15282TIP3    H167337   2.866   5.545  11.395 -1.2986 -2.2107  0.2288
15282TIP3    H267338   2.896   5.536  11.543  0.7565  1.7406  0.1214
15283TIP3   OH267339   6.468   0.400   3.304 -0.1138 -0.0012  0.3790
15283TIP3    H167340   6.513   0.440   3.379 -1.5994 -1.2818  1.9847
15283TIP3    H267341   6.451   0.310   3.331  0.3487 -0.8204 -1.9666
15284TIP3   OH267342   5.862   6.621   5.129 -0.6291  0.6556  0.5868
15284TIP3    H167343   5.769   6.609   5.108 -1.1433  1.5790  2.2276
15284TIP3    H267344   5.900   6.534   5.121 -1.3185  0.5440 -1.6008
15285TIP3   OH267345   4.864   1.350  14.613 -0.2992 -0.4225 -0.2195
15285TIP3    H167346   4.860   1.444  14.628 -0.0017 -0.1413 -1.7861
15285TIP3    H267347   4.957   1.328  14.620 -0.3450 -0.5666 -0.0585
15286TIP3   OH267348   2.989   2.148  13.072  0.6279  0.8119  0.8517
15286TIP3    H167349   3.028   2.065  13.045 -0.1464  0.3551  1.1374
15286TIP3    H267350   2.901   2.146  13.036  1.3547  2.5196 -1.1317
15287TIP3   OH267351   5.759   4.841  11.318  0.5171  0.2869  0.4846
15287TIP3    H167352   5.841   4.798  11.291  0.5239 -0.0490  1.0264
15287TIP3    H267353   5.780   4.934  11.317  0.9566  0.1967  0.7508
15288TIP3   OH267354   1.163   6.716  13.854  0.7176  0.8109  0.5693
15288TIP3    H167355   1.253   6.747  13.857  0.4269  1.6214  1.2600
15288TIP3    H267356   1.138   6.707  13.946  0.0723  0.6651  0.3814
15289TIP3   OH267357   2.017   4.390   6.069  0.0628  0.5293 -0.4526
15289TIP3    H167358   2.021   4.295   6.063 -1.4690  0.4845 -0.9219
15289TIP3    H267359   1.925   4.410   6.086  0.6380  1.8462  1.2469
15290TIP3   OH267360   0.266   1.231   4.778 -0.1804  0.3664  0.6078
15290TIP3    H167361   0.177   1.266   4.765 -0.2872 -0.5862 -1.3646
15290TIP3    H267362   0.255   1.162   4.843 -1.0665 -0.4153 -0.3478
15291TIP3   OH267363   2.044   4.030  11.299  1.2236  0.0034  0.2805
15291TIP3    H167364   2.124   4.070  11.332  0.2562  1.3467  1.0519
15291TIP3    H267365   1.985   4.028  11.374  0.7416 -1.5933 -0.1046
15292TIP3   OH267366   1.773   3.940  12.970  0.3562  0.5085 -0.1267
15292TIP3    H167367   1.703   3.989  12.925 -1.0064 -0.1017  1.2597
15292TIP3    H267368   1.740   3.930  13.059  1.2488 -1.7141 -0.0280
15293TIP3   OH267369   1.383   5.760   3.719 -0.5820  0.0818 -0.9780
15293TIP3    H167370   1.337   5.836   3.685 -0.1381  1.0281  0.5105
15293TIP3    H267371   1.371   5.764   3.814 -0.0695 -1.3828 -0.8304
15294TIP3   OH267372   5.225   2.894  13.090 -0.2803 -0.3657  0.2346
15294TIP3    H167373   5.288   2.908  13.161 -0.2842  1.5342 -0.1073
15294TIP3    H267374   5.249   2.960  13.024 -2.3471  0.1064 -0.0860
15295TIP3   OH267375   1.577   3.196  14.348  0.1726  0.1756  0.3577
15295TIP3    H167376   1.588   3.137  14.423  1.2765 -0.2968 -0.1647
15295TIP3    H267377   1.666   3.217  14.321 -0.2109 -0.1306 -1.1871
15296TIP3   OH267378   5.442   4.007   4.655  0.1002 -0.3210 -0.0692
15296TIP3    H167379   5.472   4.083   4.705 -0.8660 -0.0209  0.0567
15296TIP3    H267380   5.374   3.968   4.710  0.5708 -1.2604 -0.1468
15297TIP3   OH267381   5.924   6.544  12.157  0.2389  0.4873 -0.1980
15297TIP3    H167382   5.886   6.472  12.207  1.2868  0.9369  1.2770
15297TIP3    H267383   5.905   6.523  12.066 -2.5709  0.1508  0.4182
15298TIP3   OH267384   3.507   6.422   0.151 -0.6046 -0.0692  0.1693
15298TIP3    H167385   3.455   6.362   0.205  0.9350 -0.4957  1.2160
15298TIP3    H267386   3.477   6.509   0.177 -1.1074 -0.3242  0.4422
15299TIP3   OH267387   0.684   0.141   6.376  0.5301  0.2816 -0.0951
15299TIP3    H167388   0.763   0.189   6.351 -1.5924  3.9120 -0.1913
15299TIP3    H267389   0.672   0.161   6.469 -1.1817  1.1456 -0.4811
15300TIP3   OH267390   5.373   1.715   5.574 -0.5123 -0.4433 -0.4586
15300TIP3    H167391   5.328   1.783   5.524 -0.7465 -0.3069 -0.0679
15300TIP3    H267392   5.450   1.694   5.523 -0.0738  0.6163 -0.2450
15301TIP3   OH267393   0.425   5.100  12.422  0.2488 -0.1245 -0.4920
15301TIP3    H167394   0.430   5.050  12.504 -2.1103 -0.9222 -0.8197
15301TIP3    H267395   0.403   5.189  12.450  0.5511 -0.1369 -0.2010
15302TIP3   OH267396   4.779   6.275   3.342 -0.4692 -0.4008  0.0711
15302TIP3    H167397   4.787   6.181   3.328 -0.4308 -0.3279 -0.4197
15302TIP3    H267398   4.701   6.300   3.291 -0.4255 -0.1542  0.1228
15303TIP3   OH267399   0.018   5.040  12.875 -0.0841 -0.0493 -0.2901
15303TIP3    H167400  -0.012   5.131  12.882  1.3791  0.3561  1.2150
15303TIP3    H267401  -0.052   4.989  12.916 -0.0305  0.6027  0.6369
15304TIP3   OH267402   0.326   0.858  15.786 -0.2724  0.4501 -0.1891
15304TIP3    H167403   0.344   0.936  15.734 -1.2347 -0.1415 -1.4341
15304TIP3    H267404   0.230   0.853  15.789 -0.2302 -1.1335 -0.8331
15305TIP3   OH267405   1.165   0.449   0.793 -0.5975 -0.0245 -0.1838
15305TIP3    H167406   1.152   0.371   0.739 -2.8270 -1.0801  1.7905
15305TIP3    H267407   1.166   0.522   0.731  1.3472 -1.5673 -2.0273
15306TIP3   OH267408   4.331   3.883   6.135  0.2232 -0.1424  0.5529
15306TIP3    H167409   4.353   3.976   6.132 -3.4943  0.7942 -0.2364
15306TIP3    H267410   4.287   3.873   6.220 -1.3514 -0.6668 -0.3092
15307TIP3   OH267411   0.419   1.135  14.391  0.5162  0.0197  0.2955
15307TIP3    H167412   0.371   1.052  14.393  1.2819 -0.4842 -1.0771
15307TIP3    H267413   0.511   1.109  14.387  0.7521  0.9217 -0.2661
15308TIP3   OH267414   1.426   5.875  12.208 -0.2312 -0.0828 -0.1589
15308TIP3    H167415   1.476   5.915  12.279  0.3267 -0.8051 -0.1323
15308TIP3    H267416   1.370   5.811  12.251 -0.5620  0.1247 -0.2781
15309TIP3   OH267417   0.114   6.466  16.477 -0.0764  0.6670 -0.8612
15309TIP3    H167418   0.033   6.456  16.527 -0.0212  2.1084 -0.4562
15309TIP3    H267419   0.182   6.435  16.536 -0.3103 -0.4548 -1.1672
15310TIP3   OH267420   3.283   2.253  16.357 -0.2575  0.0071  0.2545
15310TIP3    H167421   3.331   2.181  16.318 -1.4314 -0.3968 -0.4656
15310TIP3    H267422   3.351   2.314  16.387  0.6669  0.2013 -2.1352
15311TIP3   OH267423   1.221   5.121  16.329 -0.0825  0.1002  0.4956
15311TIP3    H167424   1.233   5.057  16.400 -0.2247 -0.1318  0.3133
15311TIP3    H267425   1.246   5.205  16.367  2.3263 -0.3962  0.0627
15312TIP3   OH267426   1.157   4.723  14.097  0.3625 -0.2084 -1.0859
15312TIP3    H167427   1.216   4.662  14.051 -0.5295 -1.3943 -0.6903
15312TIP3    H267428   1.213   4.796  14.122  1.6994 -1.3606 -0.6431
15313TIP3   OH267429   2.284   4.865   0.357  0.1000  0.0266 -0.2224
15313TIP3    H167430   2.366   4.870   0.406 -0.2123 -0.1155  0.3185
15313TIP3    H267431   2.303   4.907   0.274  0.8890 -0.5241 -0.3240
15314TIP3   OH267432   2.947   3.471   5.393 -0.3739  0.3828 -0.0736
15314TIP3    H167433   2.894   3.532   5.445  0.7415  2.4475 -1.2963
15314TIP3    H267434   2.997   3.422   5.457 -0.9801  1.0488  0.9279
15315TIP3   OH267435   0.089   1.562   3.681  0.0609  0.8244 -0.0999
15315TIP3    H167436   0.008   1.514   3.695  0.6040 -0.0756  0.0192
15315TIP3    H267437   0.123   1.529   3.598  0.2328  1.2980 -0.2178
15316TIP3   OH267438   4.047   1.281   2.754  1.0032  0.5650 -0.2996
15316TIP3    H167439   4.130   1.271   2.801  0.3323 -0.5343  0.6599
15316TIP3    H267440   4.048   1.210   2.689  0.3241 -0.1581  0.4635
15317TIP3   OH267441   4.589   1.181   0.696  0.2444 -0.3455  0.0552
15317TIP3    H167442   4.572   1.248   0.762  0.1916 -1.3155  1.0618
15317TIP3    H267443   4.664   1.213   0.647  1.5819 -0.5368  1.9274
15318TIP3   OH267444   5.793   4.236  14.546 -0.8419  0.3206  0.1746
15318TIP3    H167445   5.711   4.193  14.568 -0.9985  0.8032  0.5366
15318TIP3    H267446   5.843   4.235  14.628 -0.5263  0.1161 -0.0198
15319TIP3   OH267447   6.209   5.866   0.762 -0.3408 -0.0451 -0.1336
15319TIP3    H167448   6.158   5.832   0.689 -1.3058  0.9296  0.0714
15319TIP3    H267449   6.298   5.832   0.748 -1.4913 -3.6501  0.7024
15320TIP3   OH267450   4.640   6.521   4.072  0.7171  0.7533 -0.1537
15320TIP3    H167451   4.698   6.465   4.124  0.3277 -1.1364 -1.6859
15320TIP3    H267452   4.564   6.535   4.128  1.1262  0.3191  0.5213
15321TIP3   OH267453   5.705   4.149  11.135  0.1337 -0.3804  0.2350
15321TIP3    H167454   5.646   4.105  11.074  0.7616 -0.4237 -0.3451
15321TIP3    H267455   5.789   4.105  11.123  0.8112  1.0627 -0.4476
15322TIP3   OH267456   2.504   3.541  16.559  0.1278 -0.3186  0.3591
15322TIP3    H167457   2.429   3.537  16.617  0.5551  0.5271  0.9815
15322TIP3    H267458   2.573   3.493  16.605  0.0235 -0.9427 -0.1333
15323TIP3   OH267459   6.252   6.126   3.199  0.1951 -0.7862 -0.5662
15323TIP3    H167460   6.218   6.202   3.150  2.8986  1.3858  0.8084
15323TIP3    H267461   6.332   6.102   3.154  0.5279 -1.4153  0.3451
15324TIP3   OH267462   6.655   4.965   1.136  0.2169 -0.2735  0.3438
15324TIP3    H167463   6.745   4.998   1.128 -0.8998  3.1003  0.8735
15324TIP3    H267464   6.615   4.984   1.051 -0.6782  0.5213  0.9286
15325TIP3   OH267465   1.670   4.594   0.359  0.4483 -0.4663 -0.2276
15325TIP3    H167466   1.723   4.667   0.392 -0.1274 -0.0058 -0.3057
15325TIP3    H267467   1.591   4.596   0.413  0.4549 -1.0734 -0.1952
15326TIP3   OH267468   6.777   0.897  16.180 -0.2169  0.0198  0.2499
15326TIP3    H167469   6.686   0.879  16.159 -0.6471  2.7338 -0.4034
15326TIP3    H267470   6.774   0.971  16.241  1.5600  0.7965 -0.5690
15327TIP3   OH267471   0.697   1.482   3.584  0.6241 -0.5293  0.9352
15327TIP3    H167472   0.643   1.450   3.656 -1.4217  0.2544 -0.1987
15327TIP3    H267473   0.672   1.428   3.509 -1.6238  2.4584 -0.5914
15328TIP3   OH267474   0.927   1.466   2.852 -0.1292  0.1154  0.1018
15328TIP3    H167475   0.916   1.376   2.820 -0.2029  0.1458  0.0426
15328TIP3    H267476   0.839   1.493   2.877 -0.1689  0.3117 -0.2466
15329TIP3   OH267477   4.399   2.253   1.704  0.5198  0.0675 -0.1915
15329TIP3    H167478   4.345   2.331   1.692  0.3827 -0.0730 -0.4994
15329TIP3    H267479   4.464   2.257   1.634  0.9997  0.3137  0.2721
15330TIP3   OH267480   5.909   1.450  14.943  0.4565 -0.0229 -0.1705
15330TIP3    H167481   5.826   1.416  14.976  0.2811 -0.3817 -0.9835
15330TIP3    H267482   5.967   1.450  15.019  0.0168 -0.7349  0.1624
15331TIP3   OH267483   1.506   2.269   2.112  0.3420 -0.1076  0.3283
15331TIP3    H167484   1.460   2.199   2.065  0.6230  0.6513 -1.1346
15331TIP3    H267485   1.476   2.262   2.202 -0.9432 -1.0229 -0.1540
15332TIP3   OH267486   6.381   1.830  11.862  0.4587 -0.3034  0.3510
15332TIP3    H167487   6.376   1.823  11.766  0.0038 -0.3058  0.3748
15332TIP3    H267488   6.407   1.921  11.877 -0.2917 -0.0679  0.2456
15333TIP3   OH267489   0.798   5.927   5.862  0.5905 -0.0132 -0.5187
15333TIP3    H167490   0.764   5.869   5.793  1.4977  1.3914 -2.1753
15333TIP3    H267491   0.723   5.979   5.889 -0.1077 -1.5349  0.6058
15334TIP3   OH267492   6.797   0.599   3.219 -0.3726  0.0930  0.2217
15334TIP3    H167493   6.850   0.678   3.208 -1.0052  0.3258 -1.1813
15334TIP3    H267494   6.707   0.628   3.204 -0.5429 -1.0152 -0.9071
15335TIP3   OH267495   5.183   6.491  14.879  0.3611 -0.3749 -0.6714
15335TIP3    H167496   5.106   6.540  14.908  1.4256  0.8469  0.1305
15335TIP3    H267497   5.156   6.452  14.795 -1.4189 -0.7048  0.0260
15336TIP3   OH267498   5.465   1.640   4.900  0.5098 -0.6620 -0.9264
15336TIP3    H167499   5.509   1.719   4.870  0.9753 -1.3310 -2.0156
15336TIP3    H267500   5.372   1.654   4.880  0.5981 -0.4196 -1.1523
15337TIP3   OH267501   3.115   2.224  17.121 -0.0910 -0.0990 -0.2066
15337TIP3    H167502   3.189   2.170  17.089  1.1760  0.7768  1.1913
15337TIP3    H267503   3.046   2.209  17.057  0.0786 -3.7444  0.3489
15338TIP3   OH267504   5.975   6.751  11.595  0.5332 -0.1591 -0.1457
15338TIP3    H167505   5.957   6.659  11.612  0.3578  0.1475  1.3763
15338TIP3    H267506   5.965   6.760  11.500  0.6837 -1.7264 -0.3256
15339TIP3   OH267507   3.237   2.057  15.871 -0.1959 -0.3085  0.2686
15339TIP3    H167508   3.261   1.983  15.927 -0.3152 -0.5368  0.0173
15339TIP3    H267509   3.255   2.135  15.925 -0.4662 -0.5324  0.6802
15340TIP3   OH267510   4.406   0.515  14.194 -0.0953 -0.0381 -0.7297
15340TIP3    H167511   4.327   0.483  14.238  0.1043 -1.5761 -1.4314
15340TIP3    H267512   4.461   0.547  14.265  0.1492 -2.3503  0.1629
15341TIP3   OH267513   2.025   4.123  13.229  0.1234  0.1352 -0.2579
15341TIP3    H167514   2.118   4.116  13.250 -0.0764  1.2016  1.0510
15341TIP3    H267515   1.993   4.194  13.284 -1.2345  0.5335 -1.5262
15342TIP3   OH267516   4.183   2.529  17.197 -0.3766  0.4916  0.0348
15342TIP3    H167517   4.138   2.601  17.152  0.1573  0.6548 -0.2445
15342TIP3    H267518   4.141   2.524  17.283  0.9661  2.4945  0.8480
15343TIP3   OH267519   4.008   1.925   4.887 -0.5488 -0.2646 -0.4277
15343TIP3    H167520   3.975   1.953   4.802 -0.8853 -2.7975 -1.1827
15343TIP3    H267521   3.935   1.939   4.947 -0.7111  0.4142 -0.7767
15344TIP3   OH267522   3.242   4.561   1.720 -0.3876  0.0735 -0.2320
15344TIP3    H167523   3.164   4.614   1.709 -0.6445 -0.6507 -2.0445
15344TIP3    H267524   3.304   4.595   1.655  0.9091  0.7848  1.3209
15345TIP3   OH267525   5.502   1.603   2.958 -0.5167 -0.1030  0.1183
15345TIP3    H167526   5.480   1.641   2.873 -2.5979  0.6150  0.9519
15345TIP3    H267527   5.542   1.676   3.006  0.3450 -0.4175 -0.1114
15346TIP3   OH267528   2.814   2.012  13.339  0.1348  0.3251  0.1192
15346TIP3    H167529   2.756   1.964  13.398  0.3697  0.8304  0.7652
15346TIP3    H267530   2.874   1.945  13.305 -0.5619 -0.1256 -0.2411
15347TIP3   OH267531   1.453   2.549   4.987  0.3462 -0.1557 -0.6719
15347TIP3    H167532   1.495   2.483   4.931  0.7130  1.4617 -2.3745
15347TIP3    H267533   1.369   2.565   4.945 -2.1386 -3.4732  2.7988
15348TIP3   OH267534   2.424   0.231  11.823  0.2541 -0.5707  0.6406
15348TIP3    H167535   2.457   0.284  11.896 -0.5601  0.8270  0.0177
15348TIP3    H267536   2.343   0.275  11.797  0.5231 -1.0723 -1.0943
15349TIP3   OH267537   4.589   2.285  11.923  0.6849 -0.3131 -0.7256
15349TIP3    H167538   4.507   2.239  11.943  1.8062 -1.4919  1.4639
15349TIP3    H267539   4.657   2.224  11.953  2.3148  1.1304 -1.4559
15350TIP3   OH267540   6.038   5.034   5.627  0.8161 -0.2810  0.5735
15350TIP3    H167541   6.096   5.078   5.689  0.2597  0.8792  0.2923
15350TIP3    H267542   6.050   4.941   5.644  2.8619 -0.0643  0.4185
15351TIP3   OH267543   5.055   5.438  11.255 -0.1585 -0.9011  0.3501
15351TIP3    H167544   5.001   5.373  11.300  1.1655 -1.9210  0.5133
15351TIP3    H267545   5.027   5.432  11.163  1.6807 -3.5386 -0.0895
15352TIP3   OH267546   5.260   4.571  12.745  0.5816  0.5075  0.4243
15352TIP3    H167547   5.355   4.579  12.748  0.7449 -1.2617  0.1285
15352TIP3    H267548   5.244   4.480  12.721 -1.1881  0.9007  0.0659
15353TIP3   OH267549   5.811   0.723  14.257 -0.0243  0.7542 -0.0277
15353TIP3    H167550   5.832   0.799  14.312 -0.9624 -0.3992  2.0257
15353TIP3    H267551   5.790   0.654  14.320 -1.0181 -0.6714 -1.8760
15354TIP3   OH267552   3.336   3.391   5.712 -0.5057 -0.6426  0.4975
15354TIP3    H167553   3.380   3.459   5.762 -2.4926  1.1003 -0.0715
15354TIP3    H267554   3.407   3.341   5.671  0.9947  0.5131  1.6508
15355TIP3   OH267555   2.944   0.437  14.659 -0.5885 -0.6143 -0.3093
15355TIP3    H167556   3.031   0.398  14.670  0.4522  1.7502  0.1863
15355TIP3    H267557   2.887   0.386  14.717  0.6329 -1.6092  0.0458
15356TIP3   OH267558   1.432   3.232   1.152 -0.1219  0.0077  0.0547
15356TIP3    H167559   1.365   3.252   1.218  0.8968 -2.0675  1.7796
15356TIP3    H267560   1.443   3.137   1.156  0.4177 -0.0914 -2.7213
15357TIP3   OH267561   2.003   1.985   5.934  0.4455  1.3418 -0.1747
15357TIP3    H167562   1.989   1.963   6.026 -0.2247  2.1322 -0.0805
15357TIP3    H267563   2.013   2.080   5.933 -0.3461  1.4302 -1.0046
15358TIP3   OH267564   5.132   0.188  11.823  0.1188  0.2329 -0.5895
15358TIP3    H167565   5.055   0.207  11.876  0.9731 -0.1857  0.8274
15358TIP3    H267566   5.136   0.092  11.818  0.8938  0.2370 -0.1310
15359TIP3   OH267567   0.948   2.485   3.849  0.1112  0.1734  0.5603
15359TIP3    H167568   0.966   2.579   3.843  1.1704 -0.1296 -1.3919
15359TIP3    H267569   0.853   2.478   3.837  0.5516  0.6982 -3.9934
15360TIP3   OH267570   3.838   5.027   1.786  0.0809  0.5136  0.3657
15360TIP3    H167571   3.826   4.990   1.873  1.6084  0.8386  0.7152
15360TIP3    H267572   3.749   5.051   1.758 -0.6323 -1.1286  1.1281
15361TIP3   OH267573   5.421   2.981  13.258 -0.4400  0.8551  0.0365
15361TIP3    H167574   5.489   2.985  13.191  0.1500 -2.5837  0.3079
15361TIP3    H267575   5.446   3.046  13.323  1.0018  1.6222 -1.2797
15362TIP3   OH267576   1.585   6.532  13.518 -0.1978  0.2108  0.6678
15362TIP3    H167577   1.584   6.455  13.461 -0.9653 -0.2088  1.2320
15362TIP3    H267578   1.628   6.600  13.466 -0.7002 -0.2202 -0.3318
15363TIP3   OH267579   2.794   6.400   0.542  0.0548  0.1183 -0.3967
15363TIP3    H167580   2.768   6.344   0.615 -0.2203  0.1953 -0.4328
15363TIP3    H267581   2.843   6.343   0.483  1.3327  0.3338  0.4316
15364TIP3   OH267582   1.182   1.461   3.286 -0.2763 -0.2809  0.1847
15364TIP3    H167583   1.181   1.481   3.380  1.1253 -1.2208  0.4038
15364TIP3    H267584   1.089   1.461   3.261 -0.5456  2.1152  1.0928
15365TIP3   OH267585   4.485   3.866  15.935 -0.5286 -0.1664  0.0758
15365TIP3    H167586   4.427   3.935  15.905  0.7765  1.8308  1.9938
15365TIP3    H267587   4.573   3.895  15.910 -0.0887 -1.9074 -0.5233
15366TIP3   OH267588   2.421   5.001  13.620 -0.6153  0.6110  0.0265
15366TIP3    H167589   2.357   5.054  13.668 -0.0216  1.6115 -0.2805
15366TIP3    H267590   2.498   5.000  13.677 -0.0057  1.5700 -0.7727
15367TIP3   OH267591   3.779   6.089   3.455 -0.1487  0.2370 -0.0255
15367TIP3    H167592   3.752   6.040   3.533  1.8920  1.3742  1.4476
15367TIP3    H267593   3.839   6.030   3.410  0.8738  0.6444  0.7790
15368TIP3   OH267594   4.682   6.581   1.130  0.2654  0.0927  0.6407
15368TIP3    H167595   4.766   6.618   1.102  0.7243 -0.8490  0.7477
15368TIP3    H267596   4.635   6.655   1.169  1.9308  0.1768  2.5850
15369TIP3   OH267597   4.612   2.852   5.791  0.0235  0.0689  0.6187
15369TIP3    H167598   4.576   2.870   5.878 -0.3045 -0.1960  0.5393
15369TIP3    H267599   4.535   2.836   5.737  0.1671  1.3024  0.0326
15370TIP3   OH267600   0.533   5.095  13.028 -0.3966 -0.0278  0.2052
15370TIP3    H167601   0.445   5.057  13.022 -0.9991  1.4406 -0.5163
15370TIP3    H267602   0.518   5.188  13.040  1.0723  0.1513  0.7216
15371TIP3   OH267603   4.998   0.613   4.708  0.1077  0.0194 -0.2311
15371TIP3    H167604   5.011   0.705   4.686 -1.5049  0.6985  1.5598
15371TIP3    H267605   4.934   0.582   4.644 -0.5747  0.5770  0.1783
15372TIP3   OH267606   6.561   4.558   2.451 -0.0808  0.3828 -0.2263
15372TIP3    H167607   6.560   4.541   2.545 -0.4592 -0.9330 -0.4561
15372TIP3    H267608   6.602   4.644   2.442 -1.9106  1.4458  1.2917
15373TIP3   OH267609   0.568   5.739   1.889  0.0446 -0.0573 -0.7215
15373TIP3    H167610   0.596   5.799   1.958  0.8376 -2.8352  1.4248
15373TIP3    H267611   0.645   5.729   1.833  0.9255 -1.5331  0.7244
15374TIP3   OH267612   5.632   4.873  16.138  0.1649 -0.1433 -0.2974
15374TIP3    H167613   5.688   4.796  16.126 -0.7190 -0.8335 -0.0570
15374TIP3    H267614   5.643   4.924  16.058 -0.2383 -1.1672 -1.0108
15375TIP3   OH267615   3.356   3.786   1.102  0.4854 -0.5198  0.4166
15375TIP3    H167616   3.361   3.691   1.114  0.0192 -0.5081  0.7252
15375TIP3    H267617   3.271   3.811   1.139  0.5945  0.0149  0.3193
15376TIP3   OH267618   4.082   0.484  15.940  0.0882  0.3598 -0.0617
15376TIP3    H167619   4.066   0.575  15.965 -0.2597  0.0542  0.8503
15376TIP3    H267620   4.014   0.465  15.875 -0.5516  0.4119  0.5783
15377TIP3   OH267621   2.616   5.456  15.518  0.4037  0.5505  0.1378
15377TIP3    H167622   2.619   5.464  15.423 -0.1670  0.5737  0.1240
15377TIP3    H267623   2.667   5.377  15.536 -1.3404 -0.7199 -0.3538
15378TIP3   OH267624   2.362   3.114   2.890 -0.1820  0.1828 -0.2316
15378TIP3    H167625   2.292   3.049   2.880  1.8019 -1.7695 -1.7805
15378TIP3    H267626   2.376   3.120   2.984 -2.1220  0.2585  0.0704
15379TIP3   OH267627   2.221   5.132   4.710  0.5495 -0.0018 -0.1935
15379TIP3    H167628   2.295   5.135   4.771  1.0621  1.6927 -0.8511
15379TIP3    H267629   2.165   5.205   4.736 -0.9185 -1.2763  0.2997
15380TIP3   OH267630   1.056   1.273  15.058  0.0189  0.1517  0.7404
15380TIP3    H167631   1.038   1.340  15.124  0.8007  0.4342  0.6745
15380TIP3    H267632   1.139   1.234  15.086 -0.0692 -0.2967  0.3789
15381TIP3   OH267633   5.628   6.211   1.539  0.3158 -0.9093  0.9964
15381TIP3    H167634   5.589   6.296   1.522  1.9219 -0.1929  0.8361
15381TIP3    H267635   5.694   6.200   1.470  1.9102 -1.1290  2.5244
15382TIP3   OH267636   4.564   6.768  16.984  0.3593 -0.7833  0.4015
15382TIP3    H167637   4.586   6.770  17.077 -0.3182 -2.0155  0.5880
15382TIP3    H267638   4.486   6.713  16.978 -0.2315  0.1512 -0.7670
15383TIP3   OH267639   1.791   6.012   3.304  0.1140  0.1701 -0.2282
15383TIP3    H167640   1.799   5.969   3.390 -0.3543  0.9716  0.2247
15383TIP3    H267641   1.712   5.974   3.265  0.4886 -0.4064 -0.4274
15384TIP3   OH267642   1.273   4.117   0.670 -0.1557 -0.3636 -0.5383
15384TIP3    H167643   1.326   4.055   0.621 -0.3179 -0.2479 -0.8600
15384TIP3    H267644   1.323   4.134   0.750  0.3903 -0.0968 -0.9376
15385TIP3   OH267645   3.357   5.384  16.059  0.0976 -0.0452 -0.0424
15385TIP3    H167646   3.426   5.355  16.000  0.3091  2.9784 -1.4054
15385TIP3    H267647   3.402   5.442  16.121 -0.7575 -0.2127  0.7488
15386TIP3   OH267648   1.164   6.787   6.029 -0.2225 -0.8352  0.6206
15386TIP3    H167649   1.099   6.800   5.961  0.3600  0.3888  0.2713
15386TIP3    H267650   1.186   6.876   6.059  2.2797 -1.1132 -0.2349
15387TIP3   OH267651   1.661   2.356  12.112  0.4137  0.1755 -0.7386
15387TIP3    H167652   1.745   2.335  12.154 -0.3737 -1.6569 -0.0512
15387TIP3    H267653   1.595   2.334  12.177 -0.6960 -0.2552 -1.9875
15388TIP3   OH267654   1.788   4.921  13.695  0.5828 -0.5741  0.4828
15388TIP3    H167655   1.821   4.897  13.608  0.0658  1.2191 -0.2326
15388TIP3    H267656   1.702   4.960  13.678  0.1153 -0.9585  1.8923
15389TIP3   OH267657   4.191   4.452  13.524 -0.3600  0.2281  0.4034
15389TIP3    H167658   4.122   4.391  13.548 -0.7074  0.3994 -0.1495
15389TIP3    H267659   4.272   4.409  13.553 -0.6632 -0.1606  0.6750
15390TIP3   OH267660   2.245   0.259  16.491 -0.3657  0.2572 -0.5608
15390TIP3    H167661   2.307   0.186  16.486  0.2921  0.7405  0.3608
15390TIP3    H267662   2.202   0.248  16.576 -0.2566  0.9381 -0.4149
15391TIP3   OH267663   0.501   6.529  16.850 -0.5601 -0.2379  0.2991
15391TIP3    H167664   0.541   6.471  16.785 -0.2810 -1.7352  1.7691
15391TIP3    H267665   0.550   6.513  16.930 -0.5567  1.9735  0.7755
15392TIP3   OH267666   0.699   2.379   4.788  0.6042  0.2347  0.0098
15392TIP3    H167667   0.677   2.345   4.701  0.4669 -1.5544  0.7050
15392TIP3    H267668   0.614   2.393   4.830  0.6410 -2.9101  1.2983
15393TIP3   OH267669   3.316   1.176  15.590 -0.0334  0.1234  0.0715
15393TIP3    H167670   3.383   1.186  15.523  0.3774  0.2414  0.5006
15393TIP3    H267671   3.364   1.169  15.672 -0.4720 -1.5874  0.1962
15394TIP3   OH267672   5.627   0.135  14.487  0.4238 -0.0463  0.0977
15394TIP3    H167673   5.697   0.163  14.430 -1.1835  0.7478 -1.5260
15394TIP3    H267674   5.590   0.057  14.445 -0.4622  0.2637  0.2762
15395TIP3   OH267675   1.454   3.108   3.584 -0.1150 -0.2575 -0.1234
15395TIP3    H167676   1.533   3.059   3.561 -0.6941 -2.6340  2.6850
15395TIP3    H267677   1.389   3.078   3.520  0.4461 -0.5077 -0.5913
15396TIP3   OH267678   2.911   0.789  11.391  0.1220  0.9154 -0.0382
15396TIP3    H167679   2.947   0.871  11.359 -0.2415  0.9085 -0.4645
15396TIP3    H267680   2.824   0.784  11.351  0.2268  0.2243 -0.1784
15397TIP3   OH267681   4.833   4.990  12.920 -0.3057 -0.1233  0.3271
15397TIP3    H167682   4.901   5.037  12.968 -0.3034  1.6126 -1.2796
15397TIP3    H267683   4.751   5.017  12.962 -0.1262 -0.6853  1.0325
15398TIP3   OH267684   2.484   5.766  16.481 -0.4222  0.1695 -0.0324
15398TIP3    H167685   2.495   5.741  16.389 -0.6760 -2.5097  0.6261
15398TIP3    H267686   2.390   5.776  16.492 -0.6143 -1.9253  0.4897
15399TIP3   OH267687   6.462   5.076  14.293  0.2229  0.0680 -0.2357
15399TIP3    H167688   6.422   4.998  14.332  2.0649 -1.2801 -0.9547
15399TIP3    H267689   6.550   5.079  14.331  0.0845  1.9651 -0.0182
15400TIP3   OH267690   3.743   1.405   2.270 -0.0607 -0.0573  0.0550
15400TIP3    H167691   3.668   1.374   2.219  0.1840 -0.4718 -0.0559
15400TIP3    H267692   3.741   1.500   2.260 -0.7359 -0.0465  0.2822
15401TIP3   OH267693   2.728   6.749  13.653 -0.3417 -0.0831 -0.0471
15401TIP3    H167694   2.815   6.710  13.642 -0.0853  0.2858  0.6647
15401TIP3    H267695   2.709   6.789  13.568 -0.6927 -1.9169 -0.8480
15402TIP3   OH267696   4.879   3.492  13.213 -0.4214 -0.4107  0.1261
15402TIP3    H167697   4.901   3.403  13.185  0.8707 -0.0497  0.0031
15402TIP3    H267698   4.888   3.545  13.135  3.5007  0.6576  1.2245
15403TIP3   OH267699   3.804   4.491  16.933  0.1141  0.2850  0.2706
15403TIP3    H167700   3.718   4.513  16.896  0.5195  1.2247 -0.1252
15403TIP3    H267701   3.866   4.540  16.880  0.8425  0.2198  1.0579
15404TIP3   OH267702   0.167   6.801   3.293  0.3321 -0.2648  0.0044
15404TIP3    H167703   0.096   6.864   3.286  1.8224  1.4632  0.3055
15404TIP3    H267704   0.210   6.803   3.207 -1.2795 -2.9185 -0.9301
15405TIP3   OH267705   3.257   3.432   0.304 -0.8055  0.1698  0.1243
15405TIP3    H167706   3.222   3.475   0.382  0.2174  0.5686  0.3649
15405TIP3    H267707   3.255   3.499   0.236 -1.0544  0.0204 -0.0177
15406TIP3   OH267708   5.503   2.180   5.133  0.3705 -0.3745  1.3244
15406TIP3    H167709   5.539   2.216   5.052 -1.7848  2.2407  1.4348
15406TIP3    H267710   5.572   2.125   5.168  3.9415  3.6958  1.0702
15407TIP3   OH267711   3.225   2.988   2.264 -0.5484  0.5723  0.0638
15407TIP3    H167712   3.317   2.993   2.291 -0.1516 -1.9681 -0.7604
15407TIP3    H267713   3.181   2.952   2.340 -0.5882  0.1134 -0.1811
15408TIP3   OH267714   0.372   2.597  11.954 -0.3442 -0.3260  0.7106
15408TIP3    H167715   0.362   2.682  11.997 -0.4694 -0.2114  0.4586
15408TIP3    H267716   0.466   2.587  11.940 -0.4078  0.1581 -0.0398
15409TIP3   OH267717   6.592   5.138   6.041 -0.1000 -0.4266  0.5439
15409TIP3    H167718   6.677   5.171   6.013 -1.0376  1.1044 -0.6049
15409TIP3    H267719   6.570   5.192   6.118 -0.8432  0.4926 -0.2851
15410TIP3   OH267720   1.585   6.204  13.631 -0.3666  0.8765 -0.4443
15410TIP3    H167721   1.617   6.122  13.594 -1.0462  1.1997 -1.7676
15410TIP3    H267722   1.531   6.177  13.706  1.5376  0.2591  0.7477
15411TIP3   OH267723   2.668   1.253   0.652 -0.2975  0.4555  0.1631
15411TIP3    H167724   2.701   1.310   0.583 -0.0566 -2.5119 -2.2803
15411TIP3    H267725   2.737   1.187   0.665 -1.7284 -0.9546  0.8979
15412TIP3   OH267726   4.453   4.651   2.601  0.0858 -0.1481  0.6706
15412TIP3    H167727   4.397   4.580   2.570  0.1535 -0.0833  0.4031
15412TIP3    H267728   4.536   4.639   2.555 -1.5069  3.0518 -3.2589
15413TIP3   OH267729   4.354   2.377  12.611 -0.2019 -0.1225  0.3155
15413TIP3    H167730   4.260   2.382  12.631 -0.0419  0.0113  1.0486
15413TIP3    H267731   4.388   2.314  12.675  0.6980  1.9078  1.8644
15414TIP3   OH267732   4.241   6.583   3.234  0.1743  0.0092  0.2050
15414TIP3    H167733   4.170   6.528   3.201 -0.1335  0.3990  0.2121
15414TIP3    H267734   4.319   6.551   3.189  0.0589 -0.6650  0.4697
15415TIP3   OH267735   3.008   4.880   4.536  0.2058 -0.1431  0.0496
15415TIP3    H167736   2.990   4.965   4.494  0.7197 -0.4161 -0.7356
15415TIP3    H267737   2.946   4.876   4.609  0.4501  1.0891  0.3451
15416TIP3   OH267738   5.550   5.131  16.241  0.2407 -0.1584 -0.2068
15416TIP3    H167739   5.553   5.036  16.244 -1.0232 -0.1952 -0.2287
15416TIP3    H267740   5.543   5.152  16.147 -0.7275 -0.0716 -0.1128
15417TIP3   OH267741   1.895   4.560   6.336  0.8150  0.0081 -0.0433
15417TIP3    H167742   1.920   4.643   6.296  1.4137  0.0180  0.3418
15417TIP3    H267743   1.801   4.567   6.349  0.6057  0.0001 -1.4610
15418TIP3   OH267744   6.060   0.182  12.709 -0.1873 -0.0113 -0.0745
15418TIP3    H167745   6.147   0.143  12.703  1.4274  2.5903  4.1520
15418TIP3    H267746   6.011   0.122  12.765 -0.2399  0.0081 -0.0992
15419TIP3   OH267747   0.699   0.221  13.295  0.6256 -0.0616  0.1707
15419TIP3    H167748   0.792   0.222  13.270  0.7663 -0.0359  0.6812
15419TIP3    H267749   0.695   0.158  13.367 -0.6244 -3.9999 -3.1476
15420TIP3   OH267750   0.162   6.683  17.041 -0.1860  0.2418  0.0520
15420TIP3    H167751   0.183   6.600  17.083 -2.1497 -0.7447 -0.8602
15420TIP3    H267752   0.218   6.685  16.963  2.2186  1.3011  1.7418
15421TIP3   OH267753   2.439   0.076  15.269  0.2463 -0.1709  0.3070
15421TIP3    H167754   2.470   0.075  15.178  0.3328  1.4595  0.3113
15421TIP3    H267755   2.507   0.028  15.317 -0.3751 -2.0448 -0.6577
15422TIP3   OH267756   0.236   3.833   1.522  0.1543  0.0830  0.4127
15422TIP3    H167757   0.320   3.816   1.479 -0.0474 -0.2104  0.1296
15422TIP3    H267758   0.233   3.771   1.596 -1.2881 -2.3193 -1.5645
15423TIP3   OH267759   2.654   4.171   3.690  0.4561  0.3501  0.2173
15423TIP3    H167760   2.637   4.264   3.673 -0.6586  0.1866  0.4155
15423TIP3    H267761   2.595   4.125   3.630  3.2241 -0.2710 -2.1714
15424TIP3   OH267762   2.421   4.960  10.654  0.0729  0.4687  0.2155
15424TIP3    H167763   2.495   5.011  10.687  0.6991 -0.3130  0.0191
15424TIP3    H267764   2.422   4.879  10.705 -1.3700  0.9372  1.0482
15425TIP3   OH267765   6.604   5.687   6.733  0.5386 -0.1023 -1.4719
15425TIP3    H167766   6.681   5.658   6.782 -1.3642  2.6366  3.4600
15425TIP3    H267767   6.618   5.780   6.718 -0.6412 -0.1439 -3.0273
15426TIP3   OH267768   4.022   1.539   4.129  0.4762  0.5526 -0.0249
15426TIP3    H167769   3.941   1.587   4.110 -0.6573 -1.1184  0.5498
15426TIP3    H267770   4.044   1.564   4.219  2.8227  4.1220 -1.4767
15427TIP3   OH267771   3.606   0.899  16.528 -0.1737  0.0690  0.3947
15427TIP3    H167772   3.696   0.911  16.559 -0.3909 -0.6295  1.3512
15427TIP3    H267773   3.598   0.804  16.514 -0.5405  0.2109 -0.3820
15428TIP3   OH267774   0.396   6.817   0.422 -0.3165  0.7240 -0.3427
15428TIP3    H167775   0.418   6.842   0.332 -1.7283  1.1753 -0.5718
15428TIP3    H267776   0.415   6.895   0.474  3.0747 -0.3821  0.1886
15429TIP3   OH267777   0.929   5.500   2.701 -0.8780  0.0141 -0.2207
15429TIP3    H167778   0.983   5.565   2.655  0.8775 -0.4909  1.0554
15429TIP3    H267779   0.854   5.487   2.644 -0.4260  1.9092 -1.3149
15430TIP3   OH267780   5.673   1.350   5.609  0.1201 -0.6743  0.3244
15430TIP3    H167781   5.624   1.282   5.563  0.0180 -0.3365 -0.0646
15430TIP3    H267782   5.607   1.416   5.631  0.1955 -0.7556  0.8154
15431TIP3   OH267783   3.220   1.007   2.177 -0.0110  0.1148  0.1425
15431TIP3    H167784   3.199   1.092   2.139 -0.5187  0.6338  1.5896
15431TIP3    H267785   3.151   0.990   2.240  1.0958 -0.5235  1.2139
15432TIP3   OH267786   0.663   5.571  10.497  0.5129  0.5193  0.0981
15432TIP3    H167787   0.605   5.638  10.532 -0.7094 -0.2667 -0.3721
15432TIP3    H267788   0.626   5.488  10.529  1.5618  0.0151  0.0491
15433TIP3   OH267789   4.954   4.441  14.431  0.7367  0.0529 -0.4922
15433TIP3    H167790   4.951   4.433  14.527 -0.2781  0.5867 -0.4705
15433TIP3    H267791   4.883   4.502  14.410  1.5296  0.6307 -1.5148
15434TIP3   OH267792   2.550   6.411  12.540  0.3664  0.6140  0.3519
15434TIP3    H167793   2.458   6.434  12.523  0.3705  0.7823  0.5582
15434TIP3    H267794   2.600   6.472  12.487  0.3910  1.4819  1.3608
15435TIP3   OH267795   6.621   0.401   0.731  0.0128 -0.3319  0.5157
15435TIP3    H167796   6.527   0.399   0.711 -0.0541 -1.6821  0.9129
15435TIP3    H267797   6.636   0.322   0.782  1.7509 -1.1173 -1.1564
15436TIP3   OH267798   2.767   6.820   0.899  0.5068  0.1304 -0.4985
15436TIP3    H167799   2.781   6.817   0.805  0.4456 -1.0904 -0.4767
15436TIP3    H267800   2.730   6.734   0.921 -2.5102  1.5394  0.1674
15437TIP3   OH267801   5.712   3.246  12.833 -0.6103 -0.3868  0.7483
15437TIP3    H167802   5.651   3.294  12.888 -2.1001 -1.9625  0.5097
15437TIP3    H267803   5.793   3.244  12.883  0.0463  3.7968  0.0507
15438TIP3   OH267804   0.322   4.090   5.235  0.4737 -0.1594  0.0640
15438TIP3    H167805   0.388   4.075   5.304  0.5258  0.6104  0.1855
15438TIP3    H267806   0.364   4.153   5.176  1.2671 -2.3952 -1.8340
15439TIP3   OH267807   1.671   0.328  15.716 -0.2593  0.0172 -0.3029
15439TIP3    H167808   1.639   0.281  15.792 -0.8498 -1.6836 -1.5714
15439TIP3    H267809   1.761   0.298  15.704 -0.1116  0.4059 -0.1885
15440TIP3   OH267810   2.209   6.798  13.377  0.3971 -0.2217  0.3908
15440TIP3    H167811   2.184   6.716  13.335  0.2353 -0.7560  1.4945
15440TIP3    H267812   2.304   6.803  13.366  0.3082 -0.1838 -0.3399
15441TIP3   OH267813   2.001   4.989   5.734 -0.1093  0.3948  0.0580
15441TIP3    H167814   2.091   4.957   5.728 -0.4642 -0.6527  0.2646
15441TIP3    H267815   1.977   4.976   5.826 -0.9260 -0.5933 -0.2810
15442TIP3   OH267816   4.066   3.324  13.051 -0.1547  0.3340 -0.0680
15442TIP3    H167817   4.110   3.341  13.134 -0.1901 -0.4745  0.1144
15442TIP3    H267818   4.093   3.236  13.027 -1.5461 -0.1068 -0.0409
15443TIP3   OH267819   5.598   2.805   1.305  0.0618  0.2915 -0.2036
15443TIP3    H167820   5.647   2.775   1.229 -1.9652 -0.9796 -1.0779
15443TIP3    H267821   5.570   2.724   1.348 -1.2051  0.9786  0.2858
15444TIP3   OH267822   6.106   4.818   1.941 -0.0509 -0.0759  0.4133
15444TIP3    H167823   6.145   4.768   2.012 -1.1586 -1.1185  0.3128
15444TIP3    H267824   6.012   4.807   1.953 -0.2622  0.3171 -0.8019
15445TIP3   OH267825   6.013   1.994  13.189  0.3915  0.3171 -0.6339
15445TIP3    H167826   5.973   1.962  13.270 -1.5300  0.3649 -1.5319
15445TIP3    H267827   6.042   1.914  13.144  0.2251  0.1923 -0.5230
15446TIP3   OH267828   0.699   1.868  12.941  0.1077  0.6412 -0.7252
15446TIP3    H167829   0.695   1.777  12.971 -1.3686  1.4080  1.5078
15446TIP3    H267830   0.745   1.914  13.011 -0.6273  1.9180 -1.0698
15447TIP3   OH267831   5.742   6.287  11.992 -0.1384 -0.3298 -0.0928
15447TIP3    H167832   5.767   6.261  12.081 -2.1056 -0.9777  0.2975
15447TIP3    H267833   5.728   6.204  11.946 -2.7850 -0.0466  0.0957
15448TIP3   OH267834   0.592   5.024  16.333 -0.1901  0.2429  0.3394
15448TIP3    H167835   0.572   4.935  16.305  0.4266  0.2186 -0.0437
15448TIP3    H267836   0.574   5.078  16.256 -1.2553  0.5464  0.7929
15449TIP3   OH267837   0.383   6.688   1.280 -0.5918 -0.0637  0.4104
15449TIP3    H167838   0.427   6.751   1.337  0.2179 -2.0210  2.0186
15449TIP3    H267839   0.293   6.685   1.312 -0.9447  1.1535 -0.4487
15450TIP3   OH267840   3.911   4.352  14.143  0.1453  0.3282 -0.2781
15450TIP3    H167841   3.921   4.391  14.230 -0.3124  2.1703 -1.0319
15450TIP3    H267842   3.967   4.405  14.086  0.0613 -0.5571 -1.1943
15451TIP3   OH267843   5.151   0.719   0.527  0.4612  0.5056 -0.1683
15451TIP3    H167844   5.078   0.658   0.534  1.4155 -0.4818  1.7460
15451TIP3    H267845   5.164   0.731   0.433 -0.2230 -1.6945 -0.5747
15452TIP3   OH267846   4.904   3.415  13.927  0.2577 -0.5022  0.3506
15452TIP3    H167847   4.913   3.509  13.911  0.2706  0.0058  3.2175
15452TIP3    H267848   4.937   3.374  13.847 -0.7257  1.9328 -1.3458
15453TIP3   OH267849   1.412   5.748   5.196 -0.5725 -0.1391  0.5257
15453TIP3    H167850   1.474   5.813   5.229 -1.2241 -0.1359  1.7661
15453TIP3    H267851   1.467   5.676   5.164  0.0931  0.2455  0.8107
15454TIP3   OH267852   6.204   3.501  13.163 -0.7726  0.3004 -0.2423
15454TIP3    H167853   6.242   3.574  13.213  1.2322 -0.1295 -1.0812
15454TIP3    H267854   6.114   3.495  13.194 -0.4089  1.9187  1.2122
15455TIP3   OH267855   0.675   6.262   4.981  0.6627  0.2379 -0.1255
15455TIP3    H167856   0.686   6.309   5.063  1.5739  0.1525 -0.1988
15455TIP3    H267857   0.649   6.173   5.007  2.3592 -0.1931  0.1111
15456TIP3   OH267858   4.966   6.333   0.209 -0.3811  0.5272 -0.0270
15456TIP3    H167859   5.027   6.309   0.139  0.8822  0.9237  0.9260
15456TIP3    H267860   4.956   6.428   0.199 -1.3816  0.3726 -0.5955
15457TIP3   OH267861   4.183   3.416  13.320 -0.4265 -0.0569 -0.6670
15457TIP3    H167862   4.162   3.499  13.363 -1.6330 -0.0219 -1.2986
15457TIP3    H267863   4.166   3.350  13.387 -1.2739  0.0757 -0.7407
15458TIP3   OH267864   3.938   5.324   0.785 -0.3245  0.2239  0.5614
15458TIP3    H167865   3.979   5.360   0.864 -0.9065 -2.2595  2.0911
15458TIP3    H267866   3.906   5.400   0.737  0.1086  1.8147  2.7061
15459TIP3   OH267867   1.003   0.106  11.013  0.1914  0.3090  0.5081
15459TIP3    H167868   0.962   0.019  11.020 -0.0043  0.0921 -2.4048
15459TIP3    H267869   0.945   0.164  11.063 -0.7897 -0.8996  0.8060
15460TIP3   OH267870   2.169   3.697  13.830 -0.1597  0.1909 -0.2024
15460TIP3    H167871   2.156   3.788  13.802  0.5642  0.2809 -0.2430
15460TIP3    H267872   2.080   3.664  13.843 -0.4489  0.7158 -0.7873
15461TIP3   OH267873   4.462   0.495   4.292 -0.3333 -0.3041 -0.2295
15461TIP3    H167874   4.421   0.422   4.245 -0.2240  0.0129 -0.8184
15461TIP3    H267875   4.395   0.524   4.355 -1.1028  0.3507 -1.3280
15462TIP3   OH267876   2.604   0.383  16.279 -0.5994 -0.0312 -0.1976
15462TIP3    H167877   2.547   0.352  16.209 -0.8027 -0.1810  0.0348
15462TIP3    H267878   2.562   0.464  16.310 -0.1164  0.4345 -0.7422
15463TIP3   OH267879   4.010   4.758  13.765 -0.4319  0.5919  0.0074
15463TIP3    H167880   4.096   4.784  13.731 -0.6292 -0.4135 -1.2618
15463TIP3    H267881   3.999   4.812  13.844  1.3806  0.6888  0.2156
15464TIP3   OH267882   6.713   1.218   3.920  0.5507  0.0105  0.0712
15464TIP3    H167883   6.802   1.250   3.937  1.1237 -2.8117  2.9502
15464TIP3    H267884   6.656   1.291   3.945  1.9650  0.6096  1.6623
15465TIP3   OH267885   5.003   6.754  11.286 -0.1654 -0.5951  0.0739
15465TIP3    H167886   5.020   6.835  11.335 -0.0613 -0.2820 -0.4712
15465TIP3    H267887   4.908   6.748  11.282 -0.1741 -0.6083  0.2905
15466TIP3   OH267888   5.979   6.028  13.667  0.2617  0.3352 -0.3762
15466TIP3    H167889   5.925   5.953  13.689 -0.2378  0.4282 -1.2653
15466TIP3    H267890   5.971   6.037  13.572  1.7744  0.3966 -0.5104
15467TIP3   OH267891   0.411   2.423  12.794  0.0047  0.1879  0.1978
15467TIP3    H167892   0.359   2.439  12.873 -0.0921  0.2427  0.1223
15467TIP3    H267893   0.350   2.437  12.722  0.4425  1.4664  0.0646
15468TIP3   OH267894   3.606   4.985   3.448  0.1987 -0.1442 -0.4936
15468TIP3    H167895   3.550   5.017   3.377  0.0327  0.7375  0.0242
15468TIP3    H267896   3.558   5.008   3.528  1.4956  0.9833 -0.0368
15469TIP3   OH267897   2.600   1.497   1.600 -0.2930  0.1984 -0.1654
15469TIP3    H167898   2.632   1.448   1.523 -0.4373  0.2219 -0.2410
15469TIP3    H267899   2.595   1.432   1.670  2.7043  0.7831  0.6402
15470TIP3   OH267900   2.278   5.013  13.856 -0.2379  0.4475  0.0179
15470TIP3    H167901   2.239   5.093  13.891  1.0194  0.9345  0.3217
15470TIP3    H267902   2.309   4.965  13.933  2.0836  1.2889 -0.3662
15471TIP3   OH267903   4.658   0.087  13.875  0.4286 -0.1551 -0.2615
15471TIP3    H167904   4.636   0.147  13.804  0.5364 -1.3736 -1.3548
15471TIP3    H267905   4.643   0.137  13.955  0.8088  1.4177 -1.1524
15472TIP3   OH267906   4.105   4.011   0.063 -0.3340 -0.2725  0.2610
15472TIP3    H167907   4.078   3.925   0.034  1.3649 -0.5039 -0.7075
15472TIP3    H267908   4.149   3.995   0.147 -0.6892 -0.2510  0.4518
15473TIP3   OH267909   6.444   1.907   1.574 -0.2552 -1.1423 -0.0906
15473TIP3    H167910   6.493   1.982   1.608  0.0437 -1.0163 -0.8048
15473TIP3    H267911   6.353   1.925   1.599  0.0433 -1.3362  1.1623
15474TIP3   OH267912   3.740   0.246  14.590  0.0553  0.7370  0.4153
15474TIP3    H167913   3.645   0.262  14.594 -0.2860 -0.4980 -2.0407
15474TIP3    H267914   3.776   0.327  14.552  0.2654  2.0229  3.2417
15475TIP3   OH267915   1.234   1.471  13.660  0.2099 -0.1865  0.2756
15475TIP3    H167916   1.327   1.486  13.643 -0.4713  0.4314 -3.5345
15475TIP3    H267917   1.214   1.389  13.615 -1.3374  0.3598 -0.0953
15476TIP3   OH267918   0.145   5.627  15.967  0.0044 -0.0398 -0.2234
15476TIP3    H167919   0.214   5.608  15.903 -0.0363  1.0409 -0.6055
15476TIP3    H267920   0.182   5.694  16.023 -0.3829 -0.1627  0.1801
15477TIP3   OH267921   2.914   5.507  13.036 -0.3129 -0.4676 -0.0996
15477TIP3    H167922   2.825   5.471  13.039  0.6750 -2.9707  0.1409
15477TIP3    H267923   2.955   5.464  12.961  1.1206 -0.3012  0.5749
15478TIP3   OH267924   3.394   2.720  14.606 -0.0058  0.1442  0.2297
15478TIP3    H167925   3.399   2.814  14.591 -1.6729  0.4577  1.4959
15478TIP3    H267926   3.338   2.711  14.684  0.8663 -1.8381  0.6540
15479TIP3   OH267927   5.922   4.249   2.954 -0.0328 -0.2852 -0.6763
15479TIP3    H167928   6.009   4.221   2.982 -0.4362 -0.4722  0.3974
15479TIP3    H267929   5.923   4.344   2.961  0.2179 -0.2543 -1.0755
15480TIP3   OH267930   1.933   1.170  14.237  0.0348 -0.2322 -0.0415
15480TIP3    H167931   1.874   1.117  14.184 -2.0601  0.9841  1.0289
15480TIP3    H267932   1.876   1.228  14.287  2.1277  0.9274  1.0938
15481TIP3   OH267933   5.647   3.660   0.922  0.2752 -0.1302  0.3703
15481TIP3    H167934   5.683   3.602   0.989 -0.9287 -0.9020  0.3767
15481TIP3    H267935   5.648   3.608   0.842  0.8687  0.4770 -0.0215
15482TIP3   OH267936   3.676   6.627   3.878  0.0665  0.2714  0.1469
15482TIP3    H167937   3.663   6.543   3.833 -1.3783  0.1345  0.8030
15482TIP3    H267938   3.771   6.633   3.889  0.1512 -1.5982  0.6893
15483TIP3   OH267939   3.419   3.662   4.853  0.0717 -0.1321  0.0540
15483TIP3    H167940   3.345   3.714   4.885 -0.1712 -0.5256  0.1337
15483TIP3    H267941   3.445   3.610   4.929 -1.5344 -2.2614 -0.8060
15484TIP3   OH267942   5.041   3.726  14.457  0.0718  0.2748 -0.1647
15484TIP3    H167943   4.981   3.715  14.531  0.1262  1.7509  0.1085
15484TIP3    H267944   4.998   3.789  14.399  0.2902 -0.4443 -1.1156
15485TIP3   OH267945   5.139   4.226  10.962 -0.0383  0.1210  0.4932
15485TIP3    H167946   5.186   4.192  10.886 -2.8723 -1.4825 -0.6112
15485TIP3    H267947   5.093   4.303  10.928  1.9531  1.8814  1.6484
15486TIP3   OH267948   3.222   3.023  11.958 -0.1474  0.5029 -0.8364
15486TIP3    H167949   3.133   3.007  11.927 -0.2949 -0.9032  0.2549
15486TIP3    H267950   3.214   3.097  12.018 -1.0996 -1.3419  1.4300
15487TIP3   OH267951   1.059   5.320   3.083  0.1908 -0.5507  0.2670
15487TIP3    H167952   0.980   5.295   3.036 -0.6217  1.6219  0.4020
15487TIP3    H267953   1.029   5.341   3.171  1.0247 -0.4617  0.5310
15488TIP3   OH267954   6.140   0.888  12.563  0.1097 -0.1780  0.1833
15488TIP3    H167955   6.074   0.928  12.620 -0.7723  1.6203 -1.9960
15488TIP3    H267956   6.095   0.814  12.523 -0.2520  0.3719 -0.4428
15489TIP3   OH267957   6.128   2.866   3.890  0.0945  0.2678  0.4434
15489TIP3    H167958   6.050   2.853   3.944  0.1594 -2.4837 -0.0138
15489TIP3    H267959   6.094   2.877   3.801  0.1337  1.5814  0.5822
15490TIP3   OH267960   1.394   1.865   0.926  0.1901  0.3145 -0.1174
15490TIP3    H167961   1.411   1.959   0.914  1.5704 -0.0558 -1.2116
15490TIP3    H267962   1.475   1.831   0.963 -0.1019 -0.5432 -0.2621
15491TIP3   OH267963   0.939   2.252   2.935  0.0255 -0.3110 -0.0920
15491TIP3    H167964   0.897   2.331   2.970  0.1383  0.5499 -1.8326
15491TIP3    H267965   0.879   2.221   2.867 -0.3609 -2.1495  1.0607
15492TIP3   OH267966   0.197   3.489  16.008 -0.1480 -0.3299  0.2682
15492TIP3    H167967   0.167   3.452  15.925  1.2016 -0.3040 -0.2346
15492TIP3    H267968   0.254   3.422  16.045  0.2445  0.1829  0.5896
15493TIP3   OH267969   4.981   4.346   6.481 -0.3279  0.6514 -0.1557
15493TIP3    H167970   5.031   4.416   6.441  0.3680  0.7353  0.8243
15493TIP3    H267971   5.041   4.271   6.480 -1.2639 -0.0818 -1.6939
15494TIP3   OH267972   5.692   5.875  11.648 -0.1253  0.3336  0.0238
15494TIP3    H167973   5.737   5.931  11.585  0.5819  0.7930  0.9159
15494TIP3    H267974   5.753   5.803  11.665 -0.3629  0.1425  0.0801
15495TIP3   OH267975   5.763   4.920  16.658 -0.4305  0.2928  0.3702
15495TIP3    H167976   5.780   4.994  16.601  2.5371 -0.7873 -0.1839
15495TIP3    H267977   5.672   4.896  16.639  0.4190  0.0287 -3.8171
15496TIP3   OH267978   0.045   0.667   4.925 -0.1017 -0.3462  0.3140
15496TIP3    H167979   0.127   0.624   4.899  0.6830  0.8202  0.8494
15496TIP3    H267980   0.018   0.620   5.005  1.6313  1.1914  1.8525
15497TIP3   OH267981   0.479   4.677   2.251 -0.6500 -0.4835 -0.2562
15497TIP3    H167982   0.421   4.752   2.254 -0.7381 -0.5220 -0.8096
15497TIP3    H267983   0.455   4.623   2.326  0.1289  0.5577  0.7476
15498TIP3   OH267984   2.452   5.547  11.475 -0.1124 -0.4017  0.3566
15498TIP3    H167985   2.473   5.462  11.437  2.2672 -1.2089  3.3311
15498TIP3    H267986   2.515   5.607  11.434 -1.0902 -0.2092 -0.9265
15499TIP3   OH267987   1.312   0.866   0.708 -0.3124 -0.2084  0.2625
15499TIP3    H167988   1.239   0.900   0.759  0.8250  2.2007  0.3204
15499TIP3    H267989   1.279   0.784   0.672 -3.3072  1.1991 -0.3264
15500TIP3   OH267990   1.290   1.082  16.508 -0.0847  0.1962 -0.4589
15500TIP3    H167991   1.271   1.050  16.596  1.2471 -0.7799 -0.5082
15500TIP3    H267992   1.372   1.131  16.518 -0.7879  1.4821 -0.8558
15501TIP3   OH267993   1.336   5.792   0.161  0.5344  0.0605 -0.0157
15501TIP3    H167994   1.379   5.788   0.076 -1.2598  1.5374 -1.0335
15501TIP3    H267995   1.247   5.761   0.145  0.9055 -2.2003  1.8949
15502TIP3   OH267996   3.625   4.373   6.144 -0.0800 -0.4546  0.4285
15502TIP3    H167997   3.543   4.413   6.115  0.1068  0.1833  0.7638
15502TIP3    H267998   3.640   4.410   6.231 -0.1019 -1.5567  0.9059
15503TIP3   OH267999   0.937   3.854   0.214 -0.0523 -0.3666 -0.5643
15503TIP3    H168000   0.877   3.869   0.141 -3.2010 -1.8527  1.5779
15503TIP3    H268001   0.924   3.761   0.237  0.4794  0.1780  2.1721
15504TIP3   OH268002   3.801   1.552  14.016  0.8094 -0.5507 -0.3530
15504TIP3    H168003   3.777   1.459  14.012 -0.0663 -0.3757  0.7165
15504TIP3    H268004   3.721   1.596  14.043  2.1151  0.1078  2.6667
15505TIP3   OH268005   5.630   5.647   4.517 -0.2727 -0.3070 -0.2031
15505TIP3    H168006   5.623   5.703   4.439  0.2316 -0.4129 -0.3231
15505TIP3    H268007   5.541   5.644   4.552 -0.1529  1.2612  0.2733
15506TIP3   OH268008   3.130   2.699  13.738  0.0693 -0.3004  0.3326
15506TIP3    H168009   3.095   2.746  13.662  0.1035  0.3262  0.6979
15506TIP3    H268010   3.144   2.768  13.803  1.7148 -0.5704  0.2859
15507TIP3   OH268011   1.339   2.490   4.518 -0.2349  0.6306 -0.0764
15507TIP3    H168012   1.301   2.427   4.457  0.4449  0.5532 -0.4266
15507TIP3    H268013   1.431   2.465   4.525  0.2814  2.1805 -1.0051
15508TIP3   OH268014   0.941   6.610   5.163  0.2319 -0.4917  0.2197
15508TIP3    H168015   0.892   6.530   5.182 -0.3139 -0.2305 -0.0895
15508TIP3    H268016   0.987   6.590   5.081  0.5394 -0.6870  0.4373
15509TIP3   OH268017   6.689   4.010   0.772  0.0718  0.0724  0.2296
15509TIP3    H168018   6.742   3.956   0.830  0.3471  0.0780 -0.0163
15509TIP3    H268019   6.692   3.965   0.688 -0.2599  0.1086  0.1964
15510TIP3   OH268020   0.688   0.870  11.769  0.0155 -0.0307  0.2595
15510TIP3    H168021   0.609   0.816  11.768 -0.2906  0.4106  0.2140
15510TIP3    H268022   0.758   0.811  11.745 -0.4925 -0.1337 -1.0174
15511TIP3   OH268023   0.698   4.665  12.668 -0.1494  0.1260  0.4447
15511TIP3    H168024   0.782   4.623  12.684 -0.1358 -0.5698 -1.2815
15511TIP3    H268025   0.716   4.730  12.600 -0.7780  0.8204  0.9284
15512TIP3   OH268026   1.477   1.185   4.783 -0.6160 -0.3726  0.0096
15512TIP3    H168027   1.453   1.277   4.771 -0.0023 -0.3825 -1.3004
15512TIP3    H268028   1.490   1.177   4.878  1.4893  1.4430 -0.0670
15513TIP3   OH268029   2.343   4.572  13.986 -0.6844 -0.7157 -0.4716
15513TIP3    H168030   2.286   4.649  13.978  0.2903 -0.0042 -0.5861
15513TIP3    H268031   2.392   4.587  14.067  0.9003 -0.2786 -1.4908
15514TIP3   OH268032   6.223   6.068   4.718 -0.8167  0.0818  0.4579
15514TIP3    H168033   6.243   5.974   4.717  1.0367  0.4688  0.3205
15514TIP3    H268034   6.273   6.102   4.792  1.3590  1.5674 -1.6429
15515TIP3   OH268035   5.811   4.611  16.785  0.0466  0.0908 -0.6769
15515TIP3    H168036   5.742   4.548  16.763 -0.7904  0.6259  0.3664
15515TIP3    H268037   5.863   4.618  16.705  1.2296 -3.2730 -0.2874
15516TIP3   OH268038   1.935   5.457  15.252 -0.3321  0.2230 -0.2027
15516TIP3    H168039   1.981   5.539  15.233 -1.7240  0.5599 -2.3303
15516TIP3    H268040   1.864   5.483  15.312  1.2290 -0.0329  1.8130
15517TIP3   OH268041   4.012   3.405  16.152 -0.3578 -0.3252 -0.1983
15517TIP3    H168042   4.009   3.446  16.065  2.5311  1.7795  0.6307
15517TIP3    H268043   4.006   3.311  16.135 -0.4235  0.0913 -2.6217
15518TIP3   OH268044   6.620   1.134  16.938  0.5901  0.5408  0.6093
15518TIP3    H168045   6.561   1.134  16.863  0.0542 -0.0497  1.0345
15518TIP3    H268046   6.591   1.208  16.992 -0.1768 -0.1485  1.1450
15519TIP3   OH268047   4.364   4.846  15.527 -0.0293  0.1772  0.4561
15519TIP3    H168048   4.278   4.831  15.490  0.6125  1.0539 -1.4538
15519TIP3    H268049   4.404   4.759  15.532  0.3888  0.1699 -2.2797
15520TIP3   OH268050   3.135   0.024  14.436 -0.1317  0.1126 -0.4796
15520TIP3    H168051   3.204  -0.009  14.493 -0.4066  1.0718  0.4378
15520TIP3    H268052   3.110  -0.051  14.382  0.6097 -0.6310  0.1961
15521TIP3   OH268053   3.173   2.392   4.002  0.4767  1.2080  0.3601
15521TIP3    H168054   3.128   2.476   3.989  0.7960  1.8330  2.9174
15521TIP3    H268055   3.259   2.416   4.037  0.7698 -0.1666  0.6197
15522TIP3   OH268056   6.504   0.263   6.230  0.0984  0.2396  0.1083
15522TIP3    H168057   6.457   0.334   6.274 -0.3686 -0.0126  0.0229
15522TIP3    H268058   6.450   0.185   6.248  0.1798  0.0496 -0.4864
15523TIP3   OH268059   6.756   1.275  16.584 -0.5246  0.4709  0.0328
15523TIP3    H168060   6.747   1.328  16.662 -0.8610 -1.8896  1.6441
15523TIP3    H268061   6.850   1.256  16.579 -0.7436 -0.8605  0.8814
15524TIP3   OH268062   6.396   2.120   5.708  0.7893  0.2850  0.2200
15524TIP3    H168063   6.384   2.212   5.734 -0.9964 -0.0896  0.8194
15524TIP3    H268064   6.344   2.111   5.628  3.3587  0.5178 -1.5452
15525TIP3   OH268065   3.923   4.376   6.173  0.1406  0.2098 -0.4087
15525TIP3    H168066   3.857   4.331   6.119 -0.9909  0.4161  0.7914
15525TIP3    H268067   3.887   4.464   6.185  0.9723  0.5370 -0.3141
15526TIP3   OH268068   3.955   1.701   0.740  0.1771 -0.7285 -0.0141
15526TIP3    H168069   3.964   1.717   0.834 -0.6269  1.2008 -0.2481
15526TIP3    H268070   3.879   1.753   0.714 -1.6391 -3.7920 -1.1316
15527TIP3   OH268071   4.190   3.633  13.061  0.3360 -0.0141 -0.2627
15527TIP3    H168072   4.243   3.694  13.112  0.4652  0.0375 -0.4599
15527TIP3    H268073   4.172   3.561  13.122 -0.0049  0.3220  0.0390
15528TIP3   OH268074   3.063   6.704   4.166  0.0468  0.5579 -0.6153
15528TIP3    H168075   3.131   6.766   4.190 -1.5435  0.9744  3.0463
15528TIP3    H268076   3.001   6.756   4.113  0.3323  1.2751 -0.2515
15529TIP3   OH268077   3.900   1.648  16.462 -0.2544  0.3865 -0.0435
15529TIP3    H168078   3.962   1.597  16.514 -0.4404 -1.8881 -1.9658
15529TIP3    H268079   3.841   1.688  16.527 -1.0548 -3.0973  1.5092
15530TIP3   OH268080   2.686   1.338   4.155  0.2148 -0.4627  0.0580
15530TIP3    H168081   2.674   1.327   4.249  0.2820 -1.6767 -0.0588
15530TIP3    H268082   2.598   1.326   4.118  0.1942 -0.0265 -0.0289
15531TIP3   OH268083   6.777   0.288   4.328  0.1935 -0.2774 -0.1015
15531TIP3    H168084   6.845   0.346   4.293 -0.2331  0.8877  0.9821
15531TIP3    H268085   6.753   0.326   4.412  1.9313 -3.6217  2.0237
15532TIP3   OH268086   4.150   3.591  16.972  0.0686  0.4323 -0.2187
15532TIP3    H168087   4.207   3.515  16.985 -0.7610  0.0216  1.1637
15532TIP3    H268088   4.082   3.561  16.912 -0.8709 -0.2704  1.1682
15533TIP3   OH268089   3.282   4.681   4.309 -0.1573 -0.2502 -0.6250
15533TIP3    H168090   3.224   4.605   4.306 -0.9934  0.3665 -0.4880
15533TIP3    H268091   3.309   4.695   4.218  0.7959 -1.2984 -0.5157
15534TIP3   OH268092   2.882   4.608  11.846  0.2674 -0.8452 -0.5086
15534TIP3    H168093   2.833   4.555  11.784 -1.5524 -0.1775  0.3227
15534TIP3    H268094   2.862   4.698  11.822  1.6972 -0.5337 -0.6121
15535TIP3   OH268095   6.000   3.209  14.247  0.4521  0.3077  0.2209
15535TIP3    H168096   5.937   3.268  14.286  0.6484  0.7139 -0.0708
15535TIP3    H268097   5.954   3.171  14.172 -0.1436 -0.9558  1.2098
15536TIP3   OH268098   6.680   4.327  13.302 -0.1185 -0.1131  0.2623
15536TIP3    H168099   6.605   4.387  13.296 -0.1739 -0.3540 -1.6211
15536TIP3    H268100   6.756   4.383  13.286 -0.0534 -0.2684  0.0323
15537TIP3   OH268101   0.392   0.854   4.831 -0.3168  0.0802 -0.3609
15537TIP3    H168102   0.321   0.918   4.821 -1.5815 -1.2487  0.1048
15537TIP3    H268103   0.469   0.908   4.847 -1.5366  1.4756  0.9965
15538TIP3   OH268104   4.907   0.952   3.322 -0.0958  0.1393 -0.0207
15538TIP3    H168105   4.917   0.874   3.267  1.0537  0.7504 -0.6992
15538TIP3    H268106   4.926   1.025   3.263 -1.6212  0.9655  0.4910
15539TIP3   OH268107   6.257   1.041   6.022  0.0421  0.1450 -0.1836
15539TIP3    H168108   6.235   0.959   5.977 -1.5260 -1.0660  2.6286
15539TIP3    H268109   6.348   1.030   6.050 -0.0071 -0.4696 -0.2495
15540TIP3   OH268110   1.232   2.553   4.761  0.1191 -0.0498 -0.2491
15540TIP3    H168111   1.298   2.540   4.692  1.2602  1.7779  0.4735
15540TIP3    H268112   1.168   2.612   4.723  0.8474  1.1096  0.2985
15541TIP3   OH268113   4.299   5.242   1.321  0.1196 -0.1556  0.1800
15541TIP3    H168114   4.275   5.287   1.402  1.1417 -0.8639  0.8843
15541TIP3    H268115   4.386   5.276   1.300 -0.8129  1.2740 -1.5459
15542TIP3   OH268116   4.606   6.323   4.421 -0.1646  0.2828 -0.2089
15542TIP3    H168117   4.586   6.266   4.346  0.4149 -1.1492  0.7009
15542TIP3    H268118   4.689   6.365   4.397 -1.0936  1.5421 -1.3141
15543TIP3   OH268119   2.057   1.018   3.272  0.3612 -0.3603  0.7875
15543TIP3    H168120   2.114   0.981   3.339  0.3223  1.0968  1.6528
15543TIP3    H268121   2.059   1.112   3.289 -2.8003 -0.3237  1.2405
15544TIP3   OH268122   0.312   0.778   3.539  0.1233 -0.1548  0.1957
15544TIP3    H168123   0.288   0.730   3.618  0.0763  0.9150  0.8412
15544TIP3    H268124   0.405   0.799   3.551 -0.1293  0.8887  0.4528
15545TIP3   OH268125   4.688   3.371   2.738  0.4986  0.1736 -0.7186
15545TIP3    H168126   4.770   3.397   2.780 -0.1536  0.0472  0.6305
15545TIP3    H268127   4.691   3.415   2.652  0.7783  2.2875  0.3375
15546TIP3   OH268128   1.750   5.322  16.905  0.2153  0.1441  0.6032
15546TIP3    H168129   1.835   5.277  16.902 -0.0502 -0.2758 -0.8589
15546TIP3    H268130   1.770   5.409  16.942  1.1000 -0.3203  1.2426
15547TIP3   OH268131   6.404   2.963  17.256 -0.0320 -0.3030 -0.7005
15547TIP3    H168132   6.480   2.905  17.255  0.7034  0.6194  0.3831
15547TIP3    H268133   6.411   3.010  17.340 -1.2044  0.5602 -1.0727
15548TIP3   OH268134   1.600   0.452  11.982 -0.4664 -0.3686  0.3224
15548TIP3    H168135   1.667   0.497  11.931 -0.9055 -0.2021 -0.1050
15548TIP3    H268136   1.606   0.492  12.069 -0.8279  0.4845 -0.0418
15549TIP3   OH268137   1.252   3.537  15.618 -0.2977  0.1913 -0.1592
15549TIP3    H168138   1.294   3.561  15.535  0.5149  1.4983  0.6035
15549TIP3    H268139   1.320   3.492  15.667 -0.8016 -0.6472 -0.2323
15550TIP3   OH268140   6.367   0.632   2.922 -0.7952  0.2225 -0.2391
15550TIP3    H168141   6.415   0.692   2.865 -1.2121  0.5956 -0.1986
15550TIP3    H268142   6.305   0.588   2.863  0.5845 -1.3401 -0.5817
15551TIP3   OH268143   0.466   0.934  16.928 -0.3715  0.3746  0.3549
15551TIP3    H168144   0.406   0.873  16.972  0.6963 -0.6521  0.4074
15551TIP3    H268145   0.489   0.998  16.996 -0.3032 -0.0350  0.7145
15552TIP3   OH268146   1.077   2.558   1.279  0.0187  0.0456 -0.4302
15552TIP3    H168147   1.147   2.606   1.235  0.5684 -0.3615 -0.0134
15552TIP3    H268148   1.070   2.476   1.230  0.1409 -0.1028 -0.1995
15553TIP3   OH268149   6.735   1.445  16.809  0.1305  0.4596  0.0189
15553TIP3    H168150   6.657   1.500  16.816 -0.2191 -0.2023  1.3343
15553TIP3    H268151   6.802   1.493  16.859  0.3194  0.5730 -0.3407
15554TIP3   OH268152   2.370   4.469   2.035 -0.6818 -0.4396 -0.0056
15554TIP3    H168153   2.370   4.418   2.116  0.2384 -0.6398 -0.1245
15554TIP3    H268154   2.450   4.441   1.989 -0.7160  0.3448 -0.5510
15555TIP3   OH268155   4.597   4.918   0.163 -0.1441 -0.1330 -0.1234
15555TIP3    H168156   4.566   4.922   0.253  2.1683  0.4295  0.7047
15555TIP3    H268157   4.594   4.825   0.140 -1.8241 -0.1513  0.1154
15556TIP3   OH268158   2.458   2.445  16.217 -0.0647  0.4440 -0.1557
15556TIP3    H168159   2.398   2.483  16.282  1.0830  1.2026  0.4755
15556TIP3    H268160   2.461   2.352  16.239 -1.9062  0.1760 -0.9229
15557TIP3   OH268161   3.777   0.464   4.650  0.4651 -0.1982  0.3985
15557TIP3    H168162   3.779   0.387   4.707  0.8631  0.4373  1.2540
15557TIP3    H268163   3.848   0.519   4.682  1.1458 -0.1431 -1.1690
15558TIP3   OH268164   6.443   2.482   3.502  0.0425  0.4316 -0.0319
15558TIP3    H168165   6.500   2.552   3.533  1.4764 -0.7235  0.0381
15558TIP3    H268166   6.467   2.406   3.555 -0.4790 -0.4738 -1.0563
15559TIP3   OH268167   0.760   5.923  11.656 -0.5750 -0.1857 -0.2541
15559TIP3    H168168   0.836   5.979  11.637 -0.1347 -0.8888 -0.5987
15559TIP3    H268169   0.787   5.873  11.734 -1.1878  0.4881  0.4008
15560TIP3   OH268170   3.799   3.615   3.684  0.3531 -0.1598 -0.2768
15560TIP3    H168171   3.878   3.600   3.632 -0.8587 -0.4092 -2.0590
15560TIP3    H268172   3.730   3.633   3.620 -1.2974 -1.0596  1.1929
15561TIP3   OH268173   0.600   5.012   1.916 -0.5920  0.2577 -0.4699
15561TIP3    H168174   0.591   5.083   1.979  2.0296  0.9897 -0.8733
15561TIP3    H268175   0.532   4.950   1.940 -0.0303  0.8053  2.7006
15562TIP3   OH268176   3.598   3.101  16.828  0.2988  0.1942  0.0118
15562TIP3    H168177   3.533   3.170  16.819 -1.0120 -1.0005  0.1094
15562TIP3    H268178   3.597   3.079  16.921 -0.0737 -0.6934 -0.1948
15563TIP3   OH268179   1.298   6.226  15.866  0.1604 -0.3366 -0.2444
15563TIP3    H168180   1.350   6.192  15.793  0.3476  0.7191 -0.6197
15563TIP3    H268181   1.208   6.199  15.846 -0.0385  1.3657 -1.7402
15564TIP3   OH268182   1.549   4.911   4.656  0.1189 -0.4579  0.3636
15564TIP3    H168183   1.628   4.902   4.710  0.9223  0.8303 -0.5824
15564TIP3    H268184   1.494   4.837   4.683  2.0217 -1.9210  0.3802
15565TIP3   OH268185   1.265   4.117  10.940  0.1351 -0.6507 -0.1160
15565TIP3    H168186   1.206   4.187  10.912  0.1331 -0.7133 -0.2666
15565TIP3    H268187   1.307   4.087  10.860 -0.9304 -1.8129 -0.2462
15566TIP3   OH268188   4.174   4.272  12.955  0.2491  0.5931 -0.5813
15566TIP3    H168189   4.138   4.185  12.966  2.8279 -0.3204  1.0632
15566TIP3    H268190   4.207   4.296  13.041  1.2088  2.4301 -1.4181
15567TIP3   OH268191   0.146   6.679   1.425 -0.1071  0.3593  0.0459
15567TIP3    H168192   0.079   6.746   1.415 -0.6569 -0.1478  0.2989
15567TIP3    H268193   0.097   6.597   1.436  0.5656 -0.2272 -1.2044
15568TIP3   OH268194   2.232   5.182   3.635 -0.1914  0.2704 -0.2412
15568TIP3    H168195   2.261   5.112   3.694 -2.1166 -0.0079  0.4227
15568TIP3    H268196   2.196   5.136   3.559  0.1745  0.5896 -0.6103
15569TIP3   OH268197   1.749   6.348   5.902  0.4893 -1.0548  0.0119
15569TIP3    H168198   1.742   6.334   5.996  1.1430  0.3349  0.2803
15569TIP3    H268199   1.843   6.351   5.885  0.3749 -1.4628 -0.7171
15570TIP3   OH268200   1.422   3.579   4.965  0.4778 -0.3016  0.7236
15570TIP3    H168201   1.339   3.602   5.008  0.0176  1.0017 -0.8421
15570TIP3    H268202   1.404   3.588   4.872  1.8445 -1.9062  0.2914
15571TIP3   OH268203   6.499   5.759  13.304 -0.0168 -0.2126  0.6449
15571TIP3    H168204   6.579   5.812  13.308 -0.2538  0.2259 -0.2751
15571TIP3    H268205   6.488   5.739  13.211  0.4163 -2.4343  1.0261
15572TIP3   OH268206   4.341   2.710   0.622  0.2269  0.5083  0.4936
15572TIP3    H168207   4.312   2.640   0.681  0.7766  0.0128  0.1786
15572TIP3    H268208   4.375   2.664   0.545 -0.5087  1.1431 -0.2267
15573TIP3   OH268209   0.951   1.577  12.332 -0.0308 -0.0298  0.0707
15573TIP3    H168210   0.889   1.539  12.394 -0.7967 -0.3972 -0.8908
15573TIP3    H268211   0.985   1.501  12.284 -1.3027  0.4428 -1.6252
15574TIP3   OH268212   5.971   0.048  11.060 -0.3890  0.1301  0.3313
15574TIP3    H168213   6.026   0.124  11.043 -2.1662  1.7103  1.4420
15574TIP3    H268214   6.018  -0.025  11.020  0.6082  2.0427 -2.1298
15575TIP3   OH268215   3.910   5.582  15.827  0.4314  0.2975 -0.1225
15575TIP3    H168216   3.838   5.570  15.888  1.4388  0.4481  1.1161
15575TIP3    H268217   3.906   5.505  15.770  0.3466 -0.5877  1.0508
15576TIP3   OH268218   4.150   0.307  16.141  0.5104 -0.0500  0.0344
15576TIP3    H168219   4.244   0.299  16.129  0.1609 -1.6969 -1.9786
15576TIP3    H268220   4.125   0.383  16.088  0.7988  0.8803  1.2134
15577TIP3   OH268221   3.592   3.187   1.613  0.2078 -0.3756  0.6139
15577TIP3    H168222   3.521   3.243   1.644 -0.3433 -0.5621 -0.3104
15577TIP3    H268223   3.632   3.237   1.542 -0.3733 -1.2140 -0.3092
15578TIP3   OH268224   0.673   2.249  11.726 -0.8340 -0.3116  0.2823
15578TIP3    H168225   0.578   2.251  11.720 -0.8122 -1.7071 -0.8478
15578TIP3    H268226   0.701   2.210  11.643  0.6742 -0.7886  1.0053
15579TIP3   OH268227   5.133   5.271   0.084  0.0231 -0.3976 -0.0846
15579TIP3    H168228   5.218   5.235   0.057  0.3747  0.2405  0.1720
15579TIP3    H268229   5.114   5.339   0.020  1.1414  1.5330  1.5844
15580TIP3   OH268230   6.385   5.779  12.143 -0.1274  0.1800 -0.5148
15580TIP3    H168231   6.371   5.802  12.052  0.2350  2.4116 -0.0526
15580TIP3    H268232   6.469   5.820  12.165 -0.4714  0.1362  0.9506
15581TIP3   OH268233   6.351   5.292  16.221 -0.1643 -0.1324 -0.0158
15581TIP3    H168234   6.255   5.287  16.215 -0.1343 -0.2195 -0.4558
15581TIP3    H268235   6.372   5.381  16.191 -0.1575  0.1334  0.7658
15582TIP3   OH268236   5.511   3.696   3.087  0.0465 -1.0513  0.5189
15582TIP3    H168237   5.587   3.637   3.087  1.3871  0.6133  1.4880
15582TIP3    H268238   5.534   3.763   3.023 -1.0765 -1.0981  0.0692
15583TIP3   OH268239   0.137   0.718   2.485 -0.2695  0.7064 -0.3905
15583TIP3    H168240   0.191   0.696   2.409 -0.6156 -0.8618 -0.1922
15583TIP3    H268241   0.065   0.770   2.448  1.2253  2.6224 -0.6839
15584TIP3   OH268242   1.824   3.706   2.875 -0.3007  0.0630 -0.4277
15584TIP3    H168243   1.803   3.685   2.784 -1.1633  0.1553 -0.2594
15584TIP3    H268244   1.746   3.751   2.907  0.4410  1.0367  0.0307
15585TIP3   OH268245   2.192   0.325  11.688 -0.1731 -0.1361 -0.2041
15585TIP3    H168246   2.138   0.332  11.609 -0.2725  2.9731  0.0617
15585TIP3    H268247   2.132   0.341  11.760  0.5860  0.7601  0.2498
15586TIP3   OH268248   6.244   6.184  16.603 -0.1834 -0.3183  0.2652
15586TIP3    H168249   6.304   6.172  16.530  0.8756  0.2570  1.0261
15586TIP3    H268250   6.299   6.176  16.681 -1.2034 -0.4060  0.9925
15587TIP3   OH268251   0.604   5.501  16.798  0.6318  0.2640  0.0485
15587TIP3    H168252   0.699   5.509  16.806  0.8253 -1.1941 -0.5094
15587TIP3    H268253   0.583   5.419  16.843 -0.0387 -0.7203 -2.0014
15588TIP3   OH268254   3.973   3.571   3.050  0.1679  0.1760  0.5849
15588TIP3    H168255   4.030   3.506   3.090 -0.7333 -0.7554  0.3676
15588TIP3    H268256   4.020   3.599   2.972  0.3885 -0.5003  0.4712
15589TIP3   OH268257   2.011   1.844  12.768 -0.0515  0.2173  0.0726
15589TIP3    H168258   1.917   1.840  12.787 -0.5400  0.4238 -2.0958
15589TIP3    H268259   2.038   1.753  12.763 -0.1507  0.1556  0.6721
15590TIP3   OH268260   2.376   5.193   6.363 -0.2322  0.1459 -0.1561
15590TIP3    H168261   2.296   5.241   6.382 -2.3670 -1.9661 -3.3367
15590TIP3    H268262   2.382   5.127   6.433 -1.5315  0.0292 -0.1399
15591TIP3   OH268263   3.821   2.028   5.056 -0.2964  0.3595  0.0223
15591TIP3    H168264   3.740   2.069   5.024  0.0178  0.6205 -0.4358
15591TIP3    H268265   3.882   2.101   5.069 -0.8370  0.4157  2.4985
15592TIP3   OH268266   3.315   4.584  14.507  0.2995 -0.3323 -0.0335
15592TIP3    H168267   3.382   4.515  14.506  0.1886 -0.4673  0.9602
15592TIP3    H268268   3.326   4.629  14.424  1.1568 -0.8098 -0.1908
15593TIP3   OH268269   0.490   2.521   5.598  0.1178  0.2920  0.5075
15593TIP3    H168270   0.583   2.521   5.577  0.3729 -3.7562  1.2272
15593TIP3    H268271   0.487   2.507   5.693 -1.2228 -0.8919  0.3065
15594TIP3   OH268272   1.405   0.746  16.443  0.2466  0.0668 -0.5272
15594TIP3    H168273   1.402   0.804  16.367  0.0655 -0.7229 -1.1330
15594TIP3    H268274   1.313   0.732  16.466  0.2916  0.0407 -0.3561
15595TIP3   OH268275   6.419   0.268  14.536 -0.0956 -0.6017 -0.6595
15595TIP3    H168276   6.415   0.362  14.554 -1.0475 -0.4467 -1.6246
15595TIP3    H268277   6.455   0.262  14.448 -1.0331 -1.0979 -1.0097
15596TIP3   OH268278   2.934   3.091   3.506 -0.2746 -0.3386 -0.2121
15596TIP3    H168279   3.009   3.150   3.508 -0.2663 -0.3631  2.8001
15596TIP3    H268280   2.863   3.144   3.471  0.3966  0.6419 -0.1200
15597TIP3   OH268281   5.711   1.563  16.438  0.2872 -0.1603 -0.2850
15597TIP3    H168282   5.642   1.517  16.487 -2.0523  1.5151 -1.8630
15597TIP3    H268283   5.740   1.499  16.373 -1.3175 -0.1890 -0.9954
15598TIP3   OH268284   2.155   1.857   1.016 -0.3476  0.0089 -0.2416
15598TIP3    H168285   2.179   1.895   1.100 -0.7457  0.8961 -0.5235
15598TIP3    H268286   2.175   1.763   1.025 -0.5725  0.0671  0.8966
15599TIP3   OH268287   5.284   4.261  12.784  0.4264 -0.0309  0.1798
15599TIP3    H168288   5.350   4.287  12.848 -0.0569  3.2248 -0.5414
15599TIP3    H268289   5.333   4.213  12.717  1.7535  0.7051  0.6028
15600TIP3   OH268290   4.087   2.217   5.705  0.0844 -0.1204  0.2110
15600TIP3    H168291   3.993   2.228   5.694  0.1911  0.5222 -0.0645
15600TIP3    H268292   4.116   2.296   5.750  0.8618  0.7938 -1.8259
15601TIP3   OH268293   4.659   2.997  12.845 -0.0671 -0.3471  0.0862
15601TIP3    H168294   4.679   2.906  12.868  0.7960 -0.0384  0.5343
15601TIP3    H268295   4.658   3.044  12.928 -0.6999  0.0307 -0.1225
15602TIP3   OH268296   6.344   0.580   6.119  0.0354 -0.4498 -0.1483
15602TIP3    H168297   6.312   0.510   6.063  0.1111 -1.0282  0.5251
15602TIP3    H268298   6.356   0.539   6.205 -0.5548  0.5396  0.4179
15603TIP3   OH268299   3.099   0.770  14.452 -0.7979 -0.2033 -0.3614
15603TIP3    H168300   3.018   0.758  14.402 -0.0576 -1.0964 -1.3881
15603TIP3    H268301   3.168   0.762  14.386  0.1808 -0.8378  0.7299
15604TIP3   OH268302   3.090   0.060  14.135 -0.1392 -0.2960  0.2803
15604TIP3    H168303   3.158   0.024  14.077  0.6553 -0.8650  1.5278
15604TIP3    H268304   3.127   0.143  14.167 -1.6264  1.2592 -1.9529
15605TIP3   OH268305   2.362   6.300   1.789  0.1758 -0.3153 -0.3222
15605TIP3    H168306   2.326   6.224   1.834  0.5829 -0.6018 -0.4786
15605TIP3    H268307   2.350   6.372   1.851 -2.0002 -0.1018 -0.9525
15606TIP3   OH268308   6.237   0.961   2.362  0.2115 -0.1399  0.0678
15606TIP3    H168309   6.234   1.057   2.360 -1.9084 -0.1940  0.0247
15606TIP3    H268310   6.330   0.940   2.355  0.6910  1.9138  0.0199
15607TIP3   OH268311   2.672   4.335  17.189 -0.1519  0.1911 -0.6192
15607TIP3    H168312   2.589   4.382  17.186 -1.4153 -1.8134  1.2789
15607TIP3    H268313   2.666   4.272  17.117  0.1901  0.8041 -1.1813
15608TIP3   OH268314   5.239   3.065  14.734  0.6978 -0.3194 -0.4742
15608TIP3    H168315   5.262   3.094  14.823  1.8779 -1.2616 -0.4538
15608TIP3    H268316   5.317   3.018  14.704  0.8712  1.2409 -2.5804
15609TIP3   OH268317   1.662   1.469  14.571  0.1544 -0.5248 -0.0472
15609TIP3    H168318   1.633   1.379  14.581  1.6686 -0.6854  3.9127
15609TIP3    H268319   1.584   1.522  14.587 -0.2485 -1.1078 -0.0822
15610TIP3   OH268320   5.492   5.949  16.819  0.0291 -0.0363  0.7017
15610TIP3    H168321   5.540   5.866  16.822  0.0855 -0.0138  0.4631
15610TIP3    H268322   5.430   5.938  16.747 -0.2792 -0.0410  0.9629
15611TIP3   OH268323   4.627   3.423   0.881 -0.0018 -0.7356  0.4441
15611TIP3    H168324   4.581   3.444   0.800  0.5122 -2.1046 -0.2178
15611TIP3    H268325   4.654   3.508   0.915  1.3591 -0.2203 -1.7836
15612TIP3   OH268326   2.279   5.346  12.255  0.0483  0.6886 -0.2533
15612TIP3    H168327   2.368   5.377  12.276 -0.2714  0.5633  1.3665
15612TIP3    H268328   2.285   5.251  12.260 -0.5281  0.7241  1.4211
15613TIP3   OH268329   3.087   2.058  15.407 -0.1352  0.2936 -0.5466
15613TIP3    H168330   3.028   2.005  15.460 -0.4977  0.3157 -0.9305
15613TIP3    H268331   3.094   2.012  15.324  0.9998 -0.1132 -0.2362
15614TIP3   OH268332   3.665   2.774  13.082  0.5897  0.3100  0.1621
15614TIP3    H168333   3.634   2.807  13.166  1.3314 -0.0814  0.5917
15614TIP3    H268334   3.585   2.755  13.032  0.1053 -1.8233  1.6868
15615TIP3   OH268335   2.648   3.607   3.207  0.0068  0.5313  0.2792
15615TIP3    H168336   2.621   3.520   3.176  0.8175 -0.4202  2.1357
15615TIP3    H268337   2.568   3.647   3.240 -0.2831  0.2781 -0.1248
15616TIP3   OH268338   0.835   5.094   1.739  0.0096 -0.0240 -0.3780
15616TIP3    H168339   0.775   5.027   1.771 -0.7137  0.0043 -1.6611
15616TIP3    H268340   0.914   5.045   1.715 -0.2521 -0.3247 -0.6306
15617TIP3   OH268341   3.560   0.217   0.336  0.0571 -0.1439 -0.3746
15617TIP3    H168342   3.562   0.182   0.425 -0.5990  2.0162  0.5229
15617TIP3    H268343   3.473   0.196   0.303  0.1596 -0.5913 -0.3589
15618TIP3   OH268344   6.180   6.597  15.379  0.1595 -0.3266  0.0437
15618TIP3    H168345   6.111   6.579  15.442 -1.2341  2.8908 -0.4828
15618TIP3    H268346   6.144   6.568  15.295  0.3682 -0.7631  0.1020
15619TIP3   OH268347   0.187   1.026   2.487 -0.0621  0.0322  0.6168
15619TIP3    H168348   0.108   1.080   2.491 -1.5354 -2.0223  0.2509
15619TIP3    H268349   0.163   0.945   2.532  0.4042 -2.3260 -3.1437
15620TIP3   OH268350   2.135   4.130   4.253  0.0993 -0.7422 -0.3359
15620TIP3    H168351   2.042   4.152   4.266 -0.1387 -2.5879  1.4274
15620TIP3    H268352   2.146   4.048   4.301  2.8704 -0.0528  0.2691
15621TIP3   OH268353   1.565   1.399   0.983 -0.5334  0.0452 -0.3071
15621TIP3    H168354   1.548   1.334   0.915 -0.5942 -0.4148  0.1432
15621TIP3    H268355   1.501   1.379   1.052 -0.0619  0.1163  0.1515
15622TIP3   OH268356   6.089   6.199   4.427  0.0755  0.1669 -0.1226
15622TIP3    H168357   6.073   6.107   4.446  2.2315 -1.1558 -4.1143
15622TIP3    H268358   6.003   6.240   4.432 -0.6726 -1.6472  3.4102
15623TIP3   OH268359   0.229   2.963  14.245  0.5794 -0.9514 -0.1078
15623TIP3    H168360   0.148   3.012  14.259  0.1762 -1.5954 -0.1448
15623TIP3    H268361   0.237   2.957  14.149  0.5842 -1.0247 -0.1037
15624TIP3   OH268362   4.730   3.594  15.626  0.1120 -0.1086  0.3124
15624TIP3    H168363   4.736   3.597  15.721 -1.9362  0.8545  0.4397
15624TIP3    H268364   4.811   3.634  15.595 -0.2778  1.7733  1.6683
15625TIP3   OH268365   5.693   4.727  17.074 -0.2877  0.2482  0.1533
15625TIP3    H168366   5.778   4.735  17.119  0.0865  0.7987 -0.6278
15625TIP3    H268367   5.711   4.757  16.985 -1.2064 -0.0762 -0.1417
15626TIP3   OH268368   2.888   6.192  15.613  0.2555  0.5835 -0.0688
15626TIP3    H168369   2.794   6.185  15.600  0.3538 -1.3755  0.1184
15626TIP3    H268370   2.898   6.200  15.708  0.2368  1.6794 -0.1574
15627TIP3   OH268371   5.823   0.752   6.020 -0.1915  0.2090  0.0496
15627TIP3    H168372   5.774   0.758   5.938 -1.4399  0.4095  0.7942
15627TIP3    H268373   5.757   0.764   6.088  0.9141  0.5392  1.0786
15628TIP3   OH268374   5.790   6.241  12.544 -0.4554  0.4321 -0.2177
15628TIP3    H168375   5.792   6.268  12.635  0.2003 -1.7758  0.4575
15628TIP3    H268376   5.876   6.265  12.509 -0.4681  0.6951 -0.0613
15629TIP3   OH268377   3.084   6.345  12.219 -0.2669 -0.1266 -0.4940
15629TIP3    H168378   3.024   6.284  12.177 -0.3550  0.7283 -1.6154
15629TIP3    H268379   3.041   6.431  12.210  0.7329  0.3652 -0.5808
15630TIP3   OH268380   2.742   4.643   2.921 -0.5136  0.2807 -0.7870
15630TIP3    H168381   2.764   4.710   2.985  0.4089 -0.4673 -0.3248
15630TIP3    H268382   2.824   4.597   2.905 -0.8666  0.0705 -2.0517
15631TIP3   OH268383   1.409   4.740   5.307 -0.8245 -0.0300  0.3347
15631TIP3    H168384   1.323   4.773   5.283 -0.4646  0.8046  0.1593
15631TIP3    H268385   1.408   4.736   5.403  0.0299  3.0446  0.5069
15632TIP3   OH268386   6.073   4.551   0.659 -0.2571 -0.3495  0.6418
15632TIP3    H168387   6.120   4.568   0.741 -0.4648  0.9242  0.5035
15632TIP3    H268388   6.141   4.529   0.596 -0.0596 -0.9122  1.0460
15633TIP3   OH268389   6.297   5.429   2.676 -0.3204 -0.0537  0.2310
15633TIP3    H168390   6.360   5.357   2.683 -0.8236 -0.5267  0.0018
15633TIP3    H268391   6.271   5.447   2.766 -0.4750 -0.4239  0.2645
15634TIP3   OH268392   6.332   4.536   1.475 -0.1923  0.1216 -0.1700
15634TIP3    H168393   6.388   4.535   1.553 -1.1262 -0.4964  0.4981
15634TIP3    H268394   6.393   4.522   1.402  0.3048 -2.4082  0.6780
15635TIP3   OH268395   2.650   2.885  14.135  0.0844  0.0515  0.0826
15635TIP3    H168396   2.599   2.838  14.200  1.6706 -1.4266  0.2843
15635TIP3    H268397   2.675   2.967  14.178  1.6623 -1.1888  1.6092
15636TIP3   OH268398   1.819   0.500   0.887 -0.6610 -0.4886 -0.3889
15636TIP3    H168399   1.845   0.408   0.892 -3.2689 -1.2702 -0.4045
15636TIP3    H268400   1.848   0.528   0.800  0.8890 -1.0565 -0.0639
15637TIP3   OH268401   2.913   2.563  11.075 -0.5351 -0.5894 -0.2835
15637TIP3    H168402   2.977   2.628  11.103 -0.9732 -0.7311  1.1276
15637TIP3    H268403   2.887   2.590  10.988 -0.1208  0.6800 -0.0193
15638TIP3   OH268404   1.731   6.580   0.944 -0.1914 -0.3203 -0.3276
15638TIP3    H168405   1.819   6.609   0.921 -0.4695  0.8315  0.0331
15638TIP3    H268406   1.702   6.642   1.011  0.1528 -2.8712  2.2943
15639TIP3   OH268407   5.999   6.275  15.847 -0.1484 -0.2016  0.2732
15639TIP3    H168408   6.085   6.312  15.825 -0.2239 -1.3482 -2.0838
15639TIP3    H268409   5.973   6.226  15.769 -2.9259  0.0556  0.9939
15640TIP3   OH268410   0.600   4.053  16.288  0.1032  0.6128 -0.6155
15640TIP3    H168411   0.602   4.133  16.235 -0.1235  0.2354 -1.2036
15640TIP3    H268412   0.580   4.084  16.377  0.9404  1.2979 -0.6530
15641TIP3   OH268413   1.486   4.963  12.742 -0.3696 -0.3091 -0.2964
15641TIP3    H168414   1.578   4.948  12.720 -0.6778 -1.2497 -0.9529
15641TIP3    H268415   1.453   5.016  12.669 -0.5032 -0.4929 -0.3695
15642TIP3   OH268416   0.281   4.791  12.133  0.2598  0.6932  0.3407
15642TIP3    H168417   0.360   4.747  12.164  0.3290  0.3693 -0.2857
15642TIP3    H268418   0.276   4.769  12.040  1.6874  4.0359 -0.6285
15643TIP3   OH268419   4.885   2.142   4.594  0.0998  0.0923 -0.2819
15643TIP3    H168420   4.957   2.204   4.580  2.1437 -2.1742 -0.0187
15643TIP3    H268421   4.895   2.079   4.523 -1.7809 -0.1224 -0.3619
15644TIP3   OH268422   3.576   2.592   1.895  0.0157  0.8181  0.1837
15644TIP3    H168423   3.520   2.624   1.824  1.1227  2.4164  0.0083
15644TIP3    H268424   3.647   2.656   1.901  0.5343  0.1124  2.0057
15645TIP3   OH268425   2.052   1.889  14.797 -0.5550  0.6744 -0.2372
15645TIP3    H168426   1.967   1.873  14.756 -0.8652  2.4591 -0.3473
15645TIP3    H268427   2.032   1.903  14.890 -0.2841  0.2898 -0.1190
15646TIP3   OH268428   3.854   4.803   0.346 -0.3938  0.0387 -0.0591
15646TIP3    H168429   3.861   4.754   0.264 -0.3122 -1.1593  0.6634
15646TIP3    H268430   3.803   4.881   0.323 -2.0672 -1.2531 -0.8298
15647TIP3   OH268431   1.125   1.632   1.393 -0.2108  0.5973  0.2811
15647TIP3    H168432   1.156   1.659   1.480 -0.9795  0.2567  0.6683
15647TIP3    H268433   1.203   1.637   1.337  0.3012  0.7681  0.9991
15648TIP3   OH268434   5.385   2.036  17.168  0.1352 -0.1307  0.1228
15648TIP3    H168435   5.344   1.996  17.091  1.8808  3.3306 -2.7108
15648TIP3    H268436   5.478   2.015  17.159  0.4308  0.7813  0.9892
15649TIP3   OH268437   4.155   0.855  13.166  0.0566 -0.2236  0.0650
15649TIP3    H168438   4.175   0.762  13.165  0.4340 -0.1469  0.4422
15649TIP3    H268439   4.208   0.892  13.094  0.7975 -0.1223  0.6511
15650TIP3   OH268440   4.005   4.147  16.737  0.1747 -0.4000  0.3115
15650TIP3    H168441   4.011   4.060  16.776  0.1484 -1.2565 -1.5433
15650TIP3    H268442   4.047   4.138  16.651  1.8792  1.8746  0.8322
15651TIP3   OH268443   5.061   5.050  15.491  0.5390  0.2541  0.5688
15651TIP3    H168444   5.010   4.978  15.528  0.8972  0.7693  2.1315
15651TIP3    H268445   5.140   5.009  15.456 -0.9646 -0.5586 -1.9500
15652TIP3   OH268446   3.253   6.538   2.022 -0.4437 -0.4760 -0.3644
15652TIP3    H168447   3.224   6.486   2.097  0.0975 -0.9719 -0.4963
15652TIP3    H268448   3.303   6.476   1.968  1.9987  0.7114  0.5019
15653TIP3   OH268449   2.570   2.812   3.406  0.0951  0.0723 -0.0923
15653TIP3    H168450   2.528   2.754   3.470  2.0481  0.8415  1.9267
15653TIP3    H268451   2.618   2.876   3.458  0.0667  1.9990 -2.3126
15654TIP3   OH268452   6.813   3.008   5.744 -0.5030  0.1600  0.1480
15654TIP3    H168453   6.747   3.067   5.780  0.0488  0.5037  0.6073
15654TIP3    H268454   6.888   3.064   5.725 -1.0214  0.1044 -2.2020
15655TIP3   OH268455   3.340   5.683   1.497 -0.6779  0.3567  0.2114
15655TIP3    H168456   3.383   5.728   1.570  0.4869 -2.0201  1.0731
15655TIP3    H268457   3.397   5.699   1.422  0.3618 -0.6188  0.7744
15656TIP3   OH268458   4.125   5.870   2.256  0.3519  0.0821  0.3791
15656TIP3    H168459   4.104   5.927   2.182  0.3053  0.2471  0.5187
15656TIP3    H268460   4.147   5.931   2.327  1.1920 -0.0787  0.2647
15657TIP3   OH268461   4.201   0.121   1.319 -0.5127  0.3841 -0.3776
15657TIP3    H168462   4.281   0.143   1.366 -1.2889  2.0244  0.2219
15657TIP3    H268463   4.211   0.028   1.296  0.5021 -0.0537  1.7569
15658TIP3   OH268464   0.985   3.851  13.927 -0.1263 -0.8608  0.0219
15658TIP3    H168465   0.948   3.911  13.862  0.3257 -2.8018 -2.0619
15658TIP3    H268466   0.947   3.766  13.907  2.8847 -2.2327 -0.1014
15659TIP3   OH268467   4.121   3.900  10.878 -0.5379  0.1035 -0.0375
15659TIP3    H168468   4.052   3.836  10.861 -0.7632  0.4313 -0.3892
15659TIP3    H268469   4.196   3.848  10.904 -0.9838 -0.2442  0.5708
15660TIP3   OH268470   0.853   0.126  16.617 -0.2033 -0.5423  0.2212
15660TIP3    H168471   0.780   0.067  16.635  0.2663 -1.0642  0.4550
15660TIP3    H268472   0.841   0.199  16.679  1.1773 -2.1319  2.4510
15661TIP3   OH268473   3.454   3.678   3.073 -0.1209  0.0719  0.8609
15661TIP3    H168474   3.492   3.627   3.145  1.6405 -0.5393 -0.4841
15661TIP3    H268475   3.516   3.749   3.058 -0.3541  0.0539 -0.2286
15662TIP3   OH268476   3.475   6.392  16.726  0.0384  0.3594  0.7352
15662TIP3    H168477   3.440   6.457  16.787  0.7491  1.1181  0.3396
15662TIP3    H268478   3.414   6.318  16.733 -1.0463  1.2510  0.8336
15663TIP3   OH268479   2.737   4.826  14.377  0.5263 -0.2068 -0.4802
15663TIP3    H168480   2.746   4.734  14.401  0.4789 -0.2836 -0.7617
15663TIP3    H268481   2.816   4.867  14.412  0.3398 -0.2748  0.0259
15664TIP3   OH268482   6.569   4.679   4.302 -0.3254 -0.4416  0.4810
15664TIP3    H168483   6.610   4.631   4.374  0.3071  0.9394  1.0573
15664TIP3    H268484   6.593   4.630   4.223 -1.2122 -2.0891  1.2261
15665TIP3   OH268485   4.680   6.730  13.616 -0.3690 -0.0631 -0.5812
15665TIP3    H168486   4.680   6.733  13.712 -2.3567 -1.5767 -0.4932
15665TIP3    H268487   4.710   6.817  13.589  1.4058 -0.0279  1.4067
15666TIP3   OH268488   1.696   4.839  15.024  0.1376  0.3379 -0.2481
15666TIP3    H168489   1.697   4.782  15.100  0.1791  1.0600  0.3013
15666TIP3    H268490   1.639   4.795  14.961  0.1919 -0.3125  0.1579
15667TIP3   OH268491   5.872   0.238   0.759 -0.4062  0.4651  0.5834
15667TIP3    H168492   5.936   0.262   0.692  0.1615  1.1518  1.3645
15667TIP3    H268493   5.919   0.178   0.817 -0.8753 -0.0705  0.4196
15668TIP3   OH268494   4.577   1.467  16.723  0.1267  0.7006 -0.0484
15668TIP3    H168495   4.497   1.511  16.754 -0.8574 -0.8630 -0.3133
15668TIP3    H268496   4.548   1.380  16.697  2.1656 -0.3241  1.0064
15669TIP3   OH268497   1.139   4.592  12.592  0.7445 -0.3257 -0.2441
15669TIP3    H168498   1.210   4.563  12.650  2.7183 -0.4015 -2.6089
15669TIP3    H268499   1.184   4.631  12.517 -1.7582  0.2912 -1.4728
15670TIP3   OH268500   1.986   4.392  16.310  0.1624  0.2656 -0.0490
15670TIP3    H168501   2.064   4.338  16.296 -1.3117 -1.3596 -2.6384
15670TIP3    H268502   1.913   4.330  16.302 -1.3801  1.5255  3.5495
15671TIP3   OH268503   4.115   4.216   5.774 -0.9495  0.2978  0.4919
15671TIP3    H168504   4.177   4.252   5.710 -0.5750  0.0236  0.7013
15671TIP3    H268505   4.065   4.152   5.724 -1.2621  0.7321  0.2488
15672TIP3   OH268506   1.719   5.658   2.670  0.5785  0.0908 -0.4417
15672TIP3    H168507   1.812   5.660   2.646  0.5485  0.3364 -0.5437
15672TIP3    H268508   1.699   5.749   2.694  0.5318 -0.0948  0.2272
15673TIP3   OH268509   5.645   3.190   4.121 -0.3181 -0.4640 -0.6943
15673TIP3    H168510   5.580   3.125   4.149 -0.5067 -0.6424 -1.5429
15673TIP3    H268511   5.722   3.138   4.098 -0.3216 -0.3515 -0.9556
15674TIP3   OH268512   4.542   0.872   3.425 -0.4879  0.1747  0.3730
15674TIP3    H168513   4.500   0.786   3.419 -0.4762  0.2125 -0.3177
15674TIP3    H268514   4.543   0.904   3.334 -0.4425  0.8762  0.6200
15675TIP3   OH268515   1.367   5.166   0.729 -0.1402  0.3525  0.1729
15675TIP3    H168516   1.417   5.232   0.680  0.6273 -0.8715 -0.7407
15675TIP3    H268517   1.420   5.086   0.721 -0.9214 -0.3106  1.4833
15676TIP3   OH268518   4.756   5.228  13.397 -0.4552  0.5241  0.6593
15676TIP3    H168519   4.738   5.234  13.304  1.0715  0.1819  0.3347
15676TIP3    H268520   4.759   5.134  13.416  0.9846  0.5624  0.6889
15677TIP3   OH268521   4.775   0.050   5.486 -0.0321 -0.2307 -0.0210
15677TIP3    H168522   4.726   0.127   5.514  2.0386  1.1321 -0.0594
15677TIP3    H268523   4.781   0.057   5.391  3.5461  1.7092  0.2805
15678TIP3   OH268524   2.029   1.522   6.081 -0.3290  0.2250  0.2016
15678TIP3    H168525   1.975   1.600   6.076  0.6638  0.9545  0.7113
15678TIP3    H268526   2.042   1.506   6.174  0.6106  0.2605  0.0863
15679TIP3   OH268527   4.693   0.141  16.423  0.3770  0.3169 -0.0681
15679TIP3    H168528   4.617   0.164  16.370  0.0465 -1.6239 -0.4582
15679TIP3    H268529   4.723   0.225  16.460 -0.9579  1.3087 -1.2095
15680TIP3   OH268530   0.956   3.100  16.354 -0.6566  0.1391 -0.1345
15680TIP3    H168531   0.966   3.075  16.446 -1.3904 -0.6797 -0.2687
15680TIP3    H268532   0.868   3.137  16.348 -0.9302 -0.5934 -0.6773
15681TIP3   OH268533   2.614   0.215   2.228  0.3608 -0.4136  0.3008
15681TIP3    H168534   2.607   0.310   2.218  1.4287 -0.2531  0.9676
15681TIP3    H268535   2.550   0.192   2.294 -0.9490 -0.3658 -0.9266
15682TIP3   OH268536   5.220   1.648   4.630  0.7012 -0.0727  0.4924
15682TIP3    H168537   5.148   1.707   4.607  1.3452  0.5541  0.0961
15682TIP3    H268538   5.177   1.562   4.640  0.1191 -0.0146 -1.2571
15683TIP3   OH268539   2.912   3.564  15.494  0.1139 -0.6822 -0.3380
15683TIP3    H168540   2.987   3.508  15.474  1.5021  1.5886 -1.8266
15683TIP3    H268541   2.944   3.622  15.563 -0.0897  0.6062 -1.3090
15684TIP3   OH268542   2.903   0.429  16.329  1.1449  0.4563 -0.2007
15684TIP3    H168543   2.949   0.513  16.330 -1.2083  1.7725  0.1931
15684TIP3    H268544   2.817   0.449  16.292  0.7280 -1.8772 -0.5365
15685TIP3   OH268545   3.392   3.920   5.852 -0.3099  0.2804 -0.1802
15685TIP3    H168546   3.483   3.942   5.832 -0.1925  0.3656  0.4605
15685TIP3    H268547   3.351   3.909   5.766  0.1827  0.7258 -0.4719
15686TIP3   OH268548   2.900   2.304  14.657 -0.2590 -0.0968  0.3232
15686TIP3    H168549   2.942   2.390  14.648 -0.1162 -0.0363  1.5202
15686TIP3    H268550   2.906   2.266  14.569  1.1341  0.4565  0.1596
15687TIP3   OH268551   3.500   1.415   4.716 -0.5276  0.1037  0.4789
15687TIP3    H168552   3.406   1.396   4.716 -0.3590 -0.8258  1.4251
15687TIP3    H268553   3.526   1.408   4.808  0.9384 -2.0856 -0.0572
15688TIP3   OH268554   3.137   0.555  13.230 -0.3625  0.1221  0.3131
15688TIP3    H168555   3.090   0.528  13.151 -1.9843  2.2462  0.5212
15688TIP3    H268556   3.112   0.491  13.296 -1.3217  0.0411 -0.1249
15689TIP3   OH268557   2.674   6.480   1.382 -0.0507 -0.2690  0.2794
15689TIP3    H168558   2.668   6.459   1.475  1.7707 -0.1170  0.4423
15689TIP3    H268559   2.759   6.447   1.355 -0.0131  0.8338 -1.0318
15690TIP3   OH268560   1.521   4.313  14.223 -0.6776 -0.5851 -0.0601
15690TIP3    H168561   1.459   4.241  14.233 -0.4259 -0.5709  1.6438
15690TIP3    H268562   1.536   4.345  14.312  1.6112 -0.4467 -0.4676
15691TIP3   OH268563   2.351   4.271   0.515  0.4644 -0.0892  0.2141
15691TIP3    H168564   2.312   4.185   0.498  1.0669 -0.2202 -0.5461
15691TIP3    H268565   2.295   4.332   0.467  1.1826 -0.2823 -0.9106
15692TIP3   OH268566   6.188   2.921  12.545 -0.4891  0.6994  0.0700
15692TIP3    H168567   6.233   2.997  12.509  0.2602  0.6933  0.9746
15692TIP3    H268568   6.217   2.847  12.491  1.2378  0.5646  1.1519
15693TIP3   OH268569   1.294   0.740  15.691 -0.0764 -0.2125 -0.6517
15693TIP3    H168570   1.341   0.719  15.772 -2.7072 -3.0405  0.2210
15693TIP3    H268571   1.322   0.672  15.629  0.0440  0.4876 -1.3713
15694TIP3   OH268572   1.497   6.726  11.174 -0.2803  0.6045 -0.2086
15694TIP3    H168573   1.469   6.717  11.082 -0.2137  0.7416 -0.2432
15694TIP3    H268574   1.449   6.802  11.206 -2.2120 -0.9115  0.5947
15695TIP3   OH268575   5.480   5.425   1.677  0.1015 -0.3584  0.0744
15695TIP3    H168576   5.504   5.347   1.727  1.2563 -0.2464 -0.2895
15695TIP3    H268577   5.384   5.427   1.680 -0.0414 -2.7116 -1.2961
15696TIP3   OH268578   2.816   0.064  16.155  0.1727 -0.0995 -0.5348
15696TIP3    H168579   2.790  -0.017  16.200 -1.2760 -0.5542 -2.1369
15696TIP3    H268580   2.899   0.088  16.196  0.8214 -2.5871 -0.2577
15697TIP3   OH268581   0.746   4.456  13.817 -0.2614 -0.0460  0.3725
15697TIP3    H168582   0.706   4.375  13.784 -0.7363  0.4610 -0.3021
15697TIP3    H268583   0.792   4.429  13.896  0.6171 -1.2226 -0.5132
15698TIP3   OH268584   4.700   4.769  12.825  0.1107  0.2879 -0.5641
15698TIP3    H168585   4.703   4.720  12.906  0.8813  2.2032  0.5992
15698TIP3    H268586   4.760   4.842  12.838 -0.0889  0.8812 -2.6877
15699TIP3   OH268587   3.105   6.323  10.654  0.5171  0.3029 -0.1116
15699TIP3    H168588   3.184   6.291  10.697  1.6816  1.8611 -1.0204
15699TIP3    H268589   3.105   6.417  10.672 -0.9970  0.3589 -0.3459
15700TIP3   OH268590   0.183   1.408   3.484  0.5651 -0.3066 -0.6740
15700TIP3    H168591   0.115   1.409   3.416 -0.3252  0.5671  0.1964
15700TIP3    H268592   0.263   1.434   3.438  0.1018 -0.3336 -1.5127
15701TIP3   OH268593   0.027   3.960  14.144  0.3979  0.2369  0.4728
15701TIP3    H168594   0.032   4.026  14.213  0.5986 -1.4927  2.1566
15701TIP3    H268595  -0.044   3.990  14.087 -1.3737  0.4813  2.7567
15702TIP3   OH268596   5.687   2.790   0.246 -0.1744  0.4188 -0.1113
15702TIP3    H168597   5.712   2.873   0.204  0.3063  0.9295  1.1684
15702TIP3    H268598   5.674   2.813   0.338  1.4290 -1.2222  0.5445
15703TIP3   OH268599   0.122   2.802   1.044  0.3151 -0.6006  0.7875
15703TIP3    H168600   0.205   2.806   0.997 -0.5745 -0.8281 -0.8167
15703TIP3    H268601   0.062   2.759   0.984 -0.7773 -1.1529  2.2345
15704TIP3   OH268602   6.713   2.206   0.573 -0.0969  0.3035 -0.3802
15704TIP3    H168603   6.682   2.116   0.578 -2.3842  1.0592 -0.0937
15704TIP3    H268604   6.706   2.238   0.663 -2.0801  1.6174 -0.9679
15705TIP3   OH268605   0.883   5.781   3.143 -0.2568  0.1126  0.1373
15705TIP3    H168606   0.872   5.714   3.076  0.3486 -0.8998  1.0428
15705TIP3    H268607   0.918   5.857   3.096 -0.5030 -0.3584 -0.8057
15706TIP3   OH268608   4.272   2.481  13.981 -0.0255  0.1952 -0.6089
15706TIP3    H168609   4.286   2.536  13.904 -2.7227  0.2313 -1.1230
15706TIP3    H268610   4.239   2.398  13.946 -0.9103  0.0777  0.4673
15707TIP3   OH268611   2.230   2.012   4.304 -0.2122  0.0035 -0.3692
15707TIP3    H168612   2.317   1.976   4.323 -1.0578 -1.2710  1.2488
15707TIP3    H268613   2.215   1.989   4.212  1.4710  0.9377 -0.9085
15708TIP3   OH268614   1.243   5.104  17.066 -0.1736  0.0681 -0.5248
15708TIP3    H168615   1.220   5.197  17.067  0.5084  0.2399  1.1777
15708TIP3    H268616   1.261   5.083  17.158 -1.8597 -2.1328 -0.6587
15709TIP3   OH268617   5.324   3.661   1.028 -0.2161  0.3635 -0.2161
15709TIP3    H168618   5.373   3.583   1.053  1.2223  0.8757 -1.3291
15709TIP3    H268619   5.367   3.691   0.948 -0.7809  2.2743  0.1705
15710TIP3   OH268620   4.790   5.519   5.335  0.0386 -0.0610  0.3089
15710TIP3    H168621   4.810   5.431   5.301  1.7051  0.8978 -1.2434
15710TIP3    H268622   4.781   5.506   5.429  0.2463 -1.9077  0.1032
15711TIP3   OH268623   0.643   5.840   6.210 -0.1153 -0.2112 -0.4083
15711TIP3    H168624   0.573   5.862   6.271 -0.2203 -0.0542 -0.5862
15711TIP3    H268625   0.681   5.924   6.185  0.3926 -0.3249 -0.0073
15712TIP3   OH268626   4.126   2.396  15.199  0.1781 -0.4039 -0.0901
15712TIP3    H168627   4.068   2.323  15.178 -0.9070  0.8253 -1.5385
15712TIP3    H268628   4.151   2.431  15.114  0.0853  1.3468  0.5779
15713TIP3   OH268629   6.191   5.817   4.430 -0.2392  0.1519  0.1190
15713TIP3    H168630   6.183   5.725   4.405  0.0310  0.1703 -0.0359
15713TIP3    H268631   6.195   5.815   4.526 -0.8983  0.0534  0.1511
15714TIP3   OH268632   4.989   1.723  16.768 -0.4083  0.1194 -0.2423
15714TIP3    H168633   4.952   1.634  16.763  1.8707 -0.8951  0.3151
15714TIP3    H268634   4.964   1.754  16.854 -2.8897  0.8286 -1.1542
15715TIP3   OH268635   2.164   2.596  12.496 -0.5968 -0.3525  0.1962
15715TIP3    H168636   2.104   2.577  12.425 -0.5797  0.9462 -0.1762
15715TIP3    H268637   2.127   2.551  12.572 -2.2277  0.6926  0.0509
15716TIP3   OH268638   4.706   3.383  12.329 -0.4354 -0.0553  0.0600
15716TIP3    H168639   4.782   3.423  12.286  1.4410 -0.6918  2.6254
15716TIP3    H268640   4.729   3.290  12.336 -0.3093  0.1565  3.0644
15717TIP3   OH268641   5.614   1.808   3.110  0.2460  0.2120 -0.1350
15717TIP3    H168642   5.655   1.843   3.190  2.0992  1.5371 -1.6207
15717TIP3    H268643   5.558   1.879   3.079 -0.4078 -0.2718 -0.0603
15718TIP3   OH268644   4.851   5.817  12.000  0.2030 -0.4335  0.0487
15718TIP3    H168645   4.886   5.747  11.945 -0.2308 -0.1120 -0.6475
15718TIP3    H268646   4.767   5.838  11.961  0.2160  0.3070  0.4084
15719TIP3   OH268647   5.528   0.048  16.832 -0.5974  0.3630 -0.1720
15719TIP3    H168648   5.544  -0.036  16.874  0.7303  0.8192  0.2775
15719TIP3    H268649   5.592   0.053  16.762 -1.3332  0.5722 -0.8360
15720TIP3   OH268650   2.153   3.301  15.529  0.0074  0.3233 -0.8610
15720TIP3    H168651   2.093   3.312  15.455  0.8644  0.2465 -1.5773
15720TIP3    H268652   2.239   3.323  15.493  0.0092  3.6003  0.9728
15721TIP3   OH268653   6.001   3.020  16.898 -0.6235 -0.5138  0.0034
15721TIP3    H168654   5.947   3.060  16.966 -0.4200 -0.8544  0.3645
15721TIP3    H268655   6.091   3.030  16.930 -0.2557  2.2778 -1.7324
15722TIP3   OH268656   4.366   0.696   3.854 -0.8943  0.1053 -0.0180
15722TIP3    H168657   4.275   0.672   3.839 -1.5385  2.1261  0.5145
15722TIP3    H268658   4.385   0.762   3.787 -1.0737  2.6229  2.3142
15723TIP3   OH268659   1.155   4.903   2.951  0.3188  0.4342 -0.2815
15723TIP3    H168660   1.217   4.967   2.914  2.7372 -0.3519  2.2302
15723TIP3    H268661   1.156   4.920   3.045  0.0678 -2.4915  0.2936
15724TIP3   OH268662   4.959   5.587  14.456  0.1360  0.5596  0.9088
15724TIP3    H168663   5.052   5.597  14.436  0.0658 -0.7601 -0.1232
15724TIP3    H268664   4.914   5.641  14.391  0.1693  1.1106  1.3405
15725TIP3   OH268665   0.168   3.275  11.960 -0.0194 -0.4115  0.0351
15725TIP3    H168666   0.176   3.266  12.055  0.8956 -1.1418 -0.1113
15725TIP3    H268667   0.209   3.360  11.941  0.5668 -0.6621  0.1866
15726TIP3   OH268668   4.694   4.906  16.587  0.2157  0.6717 -0.3494
15726TIP3    H168669   4.778   4.881  16.627 -0.6622 -1.7679  0.0508
15726TIP3    H268670   4.653   4.963  16.651  1.0008  0.8638 -0.0033
15727TIP3   OH268671   6.025   3.157   2.811  0.0437 -0.0379  0.5589
15727TIP3    H168672   5.978   3.201   2.741  1.2444  0.3348 -0.0293
15727TIP3    H268673   6.043   3.070   2.777  0.7153  0.1763  0.3680
15728TIP3   OH268674   6.552   1.762  15.784  0.0591 -0.0164  0.1379
15728TIP3    H168675   6.520   1.719  15.705 -1.1886  0.7077  0.2293
15728TIP3    H268676   6.564   1.691  15.847 -1.4265 -0.3066  0.1063
15729TIP3   OH268677   4.942   0.674   3.734 -0.0478 -0.1881 -0.0914
15729TIP3    H168678   4.870   0.735   3.718  0.5660  0.7076  0.5762
15729TIP3    H268679   4.999   0.719   3.795  0.3092 -1.5102  0.5668
15730TIP3   OH268680   5.871   0.277  14.381  0.9873 -0.2327 -0.4232
15730TIP3    H168681   5.964   0.253  14.375  0.8188 -0.9468 -0.2907
15730TIP3    H268682   5.832   0.240  14.302  1.2267  2.0393 -1.6254
15731TIP3   OH268683   4.895   4.194  13.119  0.4010  0.0420  0.3452
15731TIP3    H168684   4.903   4.221  13.211 -3.0075  1.0095  0.4304
15731TIP3    H268685   4.880   4.099  13.124 -2.4765  0.4767  1.0319
15732TIP3   OH268686   4.490   5.861  13.060  0.1909  0.1223 -0.1194
15732TIP3    H168687   4.491   5.768  13.034  0.3178 -0.3704  1.5733
15732TIP3    H268688   4.535   5.906  12.988  1.8229 -1.3862 -0.0986
15733TIP3   OH268689   6.783   1.088  12.393  0.0879  0.3184  0.0991
15733TIP3    H168690   6.858   1.127  12.348  0.5752 -1.1024 -0.3646
15733TIP3    H268691   6.742   1.032  12.327 -1.0595  0.6464  0.5153
15734TIP3   OH268692   4.157   3.474  11.401 -0.2443 -0.1728 -0.5147
15734TIP3    H168693   4.175   3.565  11.376 -0.6645 -0.4360 -1.8193
15734TIP3    H268694   4.184   3.469  11.492  1.2774  0.8535 -0.8815
15735TIP3   OH268695   1.349   0.562   0.067  0.2327 -0.5114 -0.0866
15735TIP3    H168696   1.417   0.626   0.047 -1.2680  1.1323 -0.0718
15735TIP3    H268697   1.387   0.506   0.135  2.4551 -1.1879 -1.8277
15736TIP3   OH268698   4.216   5.528  11.441 -0.0671  0.1244  0.7940
15736TIP3    H168699   4.306   5.559  11.444 -0.0281 -0.0544  1.6041
15736TIP3    H268700   4.221   5.436  11.466 -0.1149 -0.7255 -2.1958
15737TIP3   OH268701   4.888   2.336  15.780  0.0652 -0.3974 -0.2650
15737TIP3    H168702   4.889   2.340  15.684  0.7459  0.6904 -0.2157
15737TIP3    H268703   4.839   2.413  15.807  0.0324 -0.6046  0.2722
15738TIP3   OH268704   0.201   6.143  16.245 -0.2158  0.6938  0.5894
15738TIP3    H168705   0.125   6.136  16.187 -0.1385  0.9268  0.4606
15738TIP3    H268706   0.163   6.142  16.333 -0.1124 -3.2132  0.6772
15739TIP3   OH268707   4.063   3.252  12.310 -0.5774 -0.1831 -0.0868
15739TIP3    H168708   4.114   3.176  12.283 -0.1923  0.4718 -1.2325
15739TIP3    H268709   4.045   3.238  12.403  1.3315 -0.6241  0.2214
15740TIP3   OH268710   1.584   6.459   4.015  0.2165  0.2744  0.1041
15740TIP3    H168711   1.680   6.461   4.017  0.2295  0.9118 -0.8832
15740TIP3    H268712   1.562   6.455   3.922 -0.6839 -1.7865  0.3690
15741TIP3   OH268713   4.556   3.393  17.265  0.1967  0.2020  0.6141
15741TIP3    H168714   4.461   3.388  17.260  0.2368  0.1571 -0.2804
15741TIP3    H268715   4.577   3.363  17.353 -0.5567 -0.7967  0.4671
15742TIP3   OH268716   3.281   1.064   4.735 -0.3701  0.0651 -0.8456
15742TIP3    H168717   3.210   1.120   4.702 -0.4116  0.0870 -0.7201
15742TIP3    H268718   3.312   1.109   4.813  0.0867  0.2871 -1.1512
15743TIP3   OH268719   4.101   4.672  14.415 -0.5167  0.4467  0.0356
15743TIP3    H168720   4.088   4.763  14.389  2.9836  1.1422  0.4451
15743TIP3    H268721   4.113   4.625  14.332 -0.3088  0.7401 -0.1026
15744TIP3   OH268722   1.736   1.960   0.380 -0.1194  0.2365  0.4326
15744TIP3    H168723   1.787   2.010   0.444  2.4112 -1.1722 -0.4080
15744TIP3    H268724   1.739   1.870   0.412 -1.4613  0.0082 -0.0602
15745TIP3   OH268725   4.226   1.194   4.380  0.4884  0.1525 -0.3632
15745TIP3    H168726   4.177   1.196   4.298  0.3068 -0.9238 -0.2925
15745TIP3    H268727   4.309   1.153   4.357  0.4158 -0.2049 -0.0035
15746TIP3   OH268728   0.884   1.492  15.800  0.4553  0.1955  0.2997
15746TIP3    H168729   0.870   1.399  15.816 -0.5369  0.2064 -0.4505
15746TIP3    H268730   0.825   1.536  15.861  0.1312  0.3040 -0.0850
15747TIP3   OH268731   3.658   2.913  14.968 -0.5823  0.1134  0.4884
15747TIP3    H168732   3.715   2.945  15.038 -0.7146 -0.1347  0.7065
15747TIP3    H268733   3.601   2.988  14.948 -0.0961  0.4040  0.1804
15748TIP3   OH268734   1.078   6.105  13.068 -0.2446  0.0972  0.2993
15748TIP3    H168735   1.173   6.107  13.069 -0.2601  2.0029  1.0580
15748TIP3    H268736   1.054   6.134  12.980 -0.1209  0.7794  0.4866
15749TIP3   OH268737   0.841   5.345   5.981  0.5065 -0.5112  0.4742
15749TIP3    H168738   0.859   5.298   6.063 -0.2138  2.9050  2.7107
15749TIP3    H268739   0.810   5.431   6.010  0.0970  0.7245 -3.4343
15750TIP3   OH268740   1.087   3.150   1.733 -0.3213  0.1949 -0.5522
15750TIP3    H168741   1.046   3.196   1.805 -0.7328  0.7117 -1.1101
15750TIP3    H268742   1.124   3.219   1.677  0.9835 -0.2400 -0.2582
15751TIP3   OH268743   1.800   6.220  16.745 -0.5337 -0.3271 -0.1713
15751TIP3    H168744   1.840   6.208  16.659 -0.4498  0.8792 -0.3127
15751TIP3    H268745   1.706   6.220  16.728 -0.5025  0.7308 -0.3904
15752TIP3   OH268746   3.555   3.498  13.143  0.6290  0.2874  0.1329
15752TIP3    H168747   3.565   3.552  13.064  0.8229  2.0932  1.3685
15752TIP3    H268748   3.464   3.468  13.139  0.0344  2.0086  0.2233
15753TIP3   OH268749   3.988   5.565   6.367  0.2400  0.4067  0.6544
15753TIP3    H168750   3.961   5.640   6.421 -1.2241 -1.3435  2.4188
15753TIP3    H268751   3.915   5.551   6.308 -0.3191 -0.7839  1.6048
15754TIP3   OH268752   1.519   6.495  14.502 -0.3505  0.2352 -0.2060
15754TIP3    H168753   1.576   6.559  14.545 -2.6701  0.0691  3.2887
15754TIP3    H268754   1.443   6.546  14.474  0.2190 -0.0517 -2.3827
15755TIP3   OH268755   5.253   2.702  16.221  0.8308 -0.1957  0.8623
15755TIP3    H168756   5.260   2.736  16.310  1.9253 -2.3587  1.6222
15755TIP3    H268757   5.162   2.720  16.196  0.3053 -0.2200  2.6914
15756TIP3   OH268758   4.974   1.683   1.283 -0.5694 -0.3603  0.4050
15756TIP3    H168759   5.007   1.684   1.373  0.2525 -1.1427  0.1200
15756TIP3    H268760   4.937   1.595   1.273  1.2941 -1.0493 -0.7105
15757TIP3   OH268761   5.760   2.769  11.732  0.2518 -0.0389  0.0992
15757TIP3    H168762   5.783   2.857  11.700 -2.2239  0.4232 -0.5376
15757TIP3    H268763   5.783   2.711  11.660 -0.1381  0.3504 -0.3444
15758TIP3   OH268764   4.620   2.557  13.575 -0.2696  0.2246  0.5525
15758TIP3    H168765   4.584   2.532  13.490  0.3591  1.6357 -0.1472
15758TIP3    H268766   4.712   2.577  13.558 -0.0854  0.3267  1.5958
15759TIP3   OH268767   5.370   2.858   3.006 -0.1895 -0.0699 -0.2536
15759TIP3    H168768   5.308   2.853   2.933 -0.3403  0.4735 -0.1649
15759TIP3    H268769   5.342   2.935   3.056  0.1822 -0.1814  0.1302
15760TIP3   OH268770   4.505   3.218   6.111  0.8665 -0.1993  0.1661
15760TIP3    H168771   4.550   3.146   6.157 -1.0329 -0.7580  1.2108
15760TIP3    H268772   4.536   3.212   6.021  0.1817 -2.8189  0.0582
15761TIP3   OH268773   2.368   4.236  11.915 -0.2929  0.1449  0.2121
15761TIP3    H168774   2.305   4.178  11.959  0.1522 -0.0515  0.5997
15761TIP3    H268775   2.381   4.308  11.976 -1.4198  1.0452 -0.6005
15762TIP3   OH268776   1.579   0.007   4.860  0.1815 -0.4968  0.0537
15762TIP3    H168777   1.666   0.023   4.822  0.2730  0.9770  0.8783
15762TIP3    H268778   1.518   0.043   4.796  0.3100  1.3676  0.9638
15763TIP3   OH268779   1.246   3.806   3.026  0.0770  0.1645 -0.3339
15763TIP3    H168780   1.262   3.746   2.953  1.2070  0.1209 -0.0700
15763TIP3    H268781   1.154   3.793   3.048 -0.0330 -0.4997 -1.1467
15764TIP3   OH268782   0.853   3.599  13.663  0.0647  0.0370  0.2904
15764TIP3    H168783   0.844   3.512  13.701 -0.1251  0.3964  1.0667
15764TIP3    H268784   0.824   3.588  13.572 -0.0659 -0.6812  0.4110
15765TIP3   OH268785   3.220   6.762  12.905 -0.3805  0.6180 -0.1843
15765TIP3    H168786   3.293   6.791  12.849  0.3080  1.7510  1.2737
15765TIP3    H268787   3.142   6.778  12.852  0.4158 -0.7203 -1.8124
15766TIP3   OH268788   4.286   1.095  16.016  0.4731  0.1226 -0.6030
15766TIP3    H168789   4.276   1.070  15.924 -0.2338 -0.9095 -0.2555
15766TIP3    H268790   4.374   1.132  16.021  0.8096 -0.5202 -1.5408
15767TIP3   OH268791   0.953   2.941  11.961 -0.4089  0.2718 -0.4416
15767TIP3    H168792   0.957   2.920  11.867  0.7540 -0.0697 -0.3350
15767TIP3    H268793   1.033   2.992  11.977  1.0941 -2.4244  0.9873
15768TIP3   OH268794   3.936   3.375   4.603 -0.2016  0.1154 -0.2557
15768TIP3    H168795   3.936   3.376   4.507 -0.0550 -0.9524 -0.2729
15768TIP3    H268796   3.851   3.338   4.627 -0.5878  1.1804  0.0454
15769TIP3   OH268797   6.524   3.123   3.141  0.3964 -0.1487  1.0921
15769TIP3    H168798   6.610   3.104   3.104  0.4442 -0.6390  1.4430
15769TIP3    H268799   6.540   3.190   3.208  0.3563  0.4943  0.4628
15770TIP3   OH268800   1.085   6.227  14.243 -0.1505  0.4071  0.0776
15770TIP3    H168801   1.017   6.185  14.297 -0.4312  0.5534 -0.1612
15770TIP3    H268802   1.067   6.197  14.154  0.5092 -0.0933  0.1063
15771TIP3   OH268803   3.399   2.384  14.665 -1.0120 -0.3386  0.3887
15771TIP3    H168804   3.329   2.449  14.670 -2.0011 -1.4707  1.4909
15771TIP3    H268805   3.404   2.361  14.572  1.3111  3.3798 -0.4971
15772TIP3   OH268806   1.872   4.211  17.021 -0.0621  0.7221  0.0622
15772TIP3    H168807   1.803   4.273  17.044 -2.9199 -1.8076 -1.2361
15772TIP3    H268808   1.899   4.236  16.933  2.8546  3.5006  1.6569
15773TIP3   OH268809   0.040   3.185  14.610 -0.0680 -0.0083 -0.0046
15773TIP3    H168810   0.003   3.266  14.645 -0.2349 -0.3044  0.5113
15773TIP3    H268811   0.084   3.211  14.529 -0.0917  0.6002  0.1803
15774TIP3   OH268812   0.410   6.122  12.415 -0.1898 -0.1295 -0.1119
15774TIP3    H168813   0.386   6.214  12.416  1.1963  0.2387  0.5634
15774TIP3    H268814   0.454   6.109  12.331  2.0201  0.4864  0.9117
15775TIP3   OH268815   2.677   5.157  15.935  0.2130  0.4514 -0.4360
15775TIP3    H168816   2.660   5.150  16.029  2.0828 -2.7003 -0.2321
15775TIP3    H268817   2.746   5.223  15.928  1.2507 -0.4828  0.6199
15776TIP3   OH268818   0.100   4.523  14.356 -0.1066  0.1732  0.3416
15776TIP3    H168819   0.191   4.500  14.341 -0.2247 -0.0273 -0.0455
15776TIP3    H268820   0.080   4.486  14.443  0.0700 -0.0918  0.2688
15777TIP3   OH268821   0.390   3.317  12.541  0.5260 -0.1983  0.5781
15777TIP3    H168822   0.456   3.342  12.605 -0.7034 -0.3358  1.9188
15777TIP3    H268823   0.396   3.221  12.537  0.6827 -0.1805  0.4119
15778TIP3   OH268824   0.143   2.031  13.364  0.2279  0.2400  0.7318
15778TIP3    H168825   0.100   2.027  13.279 -0.0402 -1.8661  0.9388
15778TIP3    H268826   0.227   2.073  13.347  1.4082 -2.7442 -1.1416
15779TIP3   OH268827   0.204   3.335  14.124 -0.0342 -0.8026  0.2197
15779TIP3    H168828   0.285   3.383  14.108  0.5095 -1.7790  0.0153
15779TIP3    H268829   0.228   3.269  14.188 -0.1439 -2.4845 -1.4422
15780TIP3   OH268830   1.750   5.419   5.399  0.0161 -0.1945 -0.1103
15780TIP3    H168831   1.770   5.463   5.316  1.8857  0.9283  0.8809
15780TIP3    H268832   1.730   5.491   5.459 -0.4522 -0.9386  0.6249
15781TIP3   OH268833   1.989   1.238   6.011 -0.2676 -0.5945 -0.3322
15781TIP3    H168834   1.985   1.334   6.018 -1.4767 -0.6417 -0.3908
15781TIP3    H268835   1.994   1.208   6.102  2.2916 -0.4048 -0.3563
15782TIP3   OH268836   6.313   4.625  15.398  0.1846  0.2707  1.1584
15782TIP3    H168837   6.353   4.539  15.382 -1.4584 -0.2319 -0.3935
15782TIP3    H268838   6.386   4.686  15.393  0.8338 -0.6405 -1.5265
15783TIP3   OH268839   4.883   2.355  12.902 -0.1698 -0.0707 -0.2283
15783TIP3    H168840   4.860   2.375  12.811 -1.1906 -1.4124 -0.2794
15783TIP3    H268841   4.890   2.440  12.945  1.1701  0.6260 -1.7640
15784TIP3   OH268842   0.696   3.936  15.250  0.1572 -0.7893 -0.9505
15784TIP3    H168843   0.666   3.951  15.340  1.9331 -2.2589 -0.0930
15784TIP3    H268844   0.705   4.024  15.214 -2.1118 -0.2173 -0.2454
15785TIP3   OH268845   0.870   5.936  13.328  0.9339  0.2767 -0.0390
15785TIP3    H168846   0.870   6.025  13.294  1.1286 -0.0027 -0.7807
15785TIP3    H268847   0.898   5.882  13.254  1.0890 -0.3672  0.4855
15786TIP3   OH268848   2.143   5.397  12.772 -0.3076  0.3046 -0.1445
15786TIP3    H168849   2.076   5.353  12.824 -0.3722 -0.5991 -0.9786
15786TIP3    H268850   2.162   5.336  12.701  1.7412  0.3506  0.3389
15787TIP3   OH268851   0.884   4.197  15.681  0.2867 -0.0354 -0.6062
15787TIP3    H168852   0.887   4.264  15.613 -1.8783  1.3359  0.6064
15787TIP3    H268853   0.828   4.128  15.645 -0.4340  0.4522 -0.4161
15788TIP3   OH268854   4.655   5.305   3.472  0.5287  0.5051  0.1131
15788TIP3    H168855   4.701   5.360   3.535  0.8234 -0.0549  0.3932
15788TIP3    H268856   4.563   5.332   3.478  0.8166  1.6004 -0.4190
15789TIP3   OH268857   0.672   0.830  12.508  0.1953  0.0276 -0.0836
15789TIP3    H168858   0.637   0.884  12.579  1.4589 -0.4230  0.9060
15789TIP3    H268859   0.762   0.812  12.534  0.5653 -0.4327 -1.6455
15790TIP3   OH268860   6.272   3.127   0.612  0.0475  0.7955  0.1790
15790TIP3    H168861   6.314   3.042   0.623  2.2287  2.0299  1.6815
15790TIP3    H268862   6.302   3.157   0.526 -1.1849 -0.1849 -0.6069
15791TIP3   OH268863   4.040   4.923   3.853  0.2418 -0.2921  0.3275
15791TIP3    H168864   3.954   4.908   3.814  1.2172 -2.1849 -1.1725
15791TIP3    H268865   4.095   4.853   3.819  3.0462  2.2670 -0.7259
15792TIP3   OH268866   3.491   3.131  11.430 -0.0467  0.3465  0.4822
15792TIP3    H168867   3.497   3.194  11.501 -0.1852  0.2840  0.5496
15792TIP3    H268868   3.560   3.157  11.369 -1.1054  1.4790 -0.2332
15793TIP3   OH268869   0.992   6.692   4.528 -0.0172 -0.1877  0.1795
15793TIP3    H168870   1.010   6.599   4.542  0.7610  0.1720  1.7215
15793TIP3    H268871   0.944   6.719   4.606 -1.1996  0.4683 -0.7581
15794TIP3   OH268872   3.486   4.237   2.574  0.1132  0.1991 -0.1229
15794TIP3    H168873   3.494   4.144   2.552 -1.3531  0.0955 -0.3047
15794TIP3    H268874   3.429   4.273   2.506  2.7417  1.8178 -1.5426
15795TIP3   OH268875   5.343   3.624   4.424 -0.5977 -0.0553  0.3294
15795TIP3    H168876   5.364   3.675   4.502 -1.1992  2.8135 -1.3065
15795TIP3    H268877   5.248   3.633   4.414 -0.2730  1.3518 -1.8370
15796TIP3   OH268878   2.881   2.622   4.485 -0.0151  0.2340  0.6827
15796TIP3    H168879   2.790   2.618   4.514 -0.7953  3.2581 -1.1425
15796TIP3    H268880   2.899   2.715   4.474  2.9532 -0.3744 -0.0755
15797TIP3   OH268881   2.576   3.190  11.295 -0.3450 -0.9366 -0.0966
15797TIP3    H168882   2.550   3.273  11.256  0.6117 -1.1358 -1.2043
15797TIP3    H268883   2.495   3.140  11.303 -0.6449 -0.6498 -1.2812
15798TIP3   OH268884   1.259   0.459  13.897 -0.1984 -0.2398  0.4230
15798TIP3    H168885   1.306   0.376  13.893  1.9887  1.0184 -1.9356
15798TIP3    H268886   1.327   0.523  13.918 -1.0595  1.4604 -1.7731
15799TIP3   OH268887   4.167   0.338  15.268 -0.3236  0.3406 -0.6842
15799TIP3    H168888   4.078   0.334  15.234 -0.7385 -0.9918  0.5576
15799TIP3    H268889   4.187   0.432  15.271 -1.1588  0.5944 -2.2646
15800TIP3   OH268890   3.684   2.842  14.186  0.1435  0.2436  0.1859
15800TIP3    H168891   3.655   2.816  14.274 -0.2712  0.6848  0.1866
15800TIP3    H268892   3.775   2.814  14.181 -0.2023 -0.9154  0.2913
15801TIP3   OH268893   6.445   1.519   6.060  0.0317 -0.7110  0.4579
15801TIP3    H168894   6.524   1.539   6.009 -0.1426  0.4550  0.6181
15801TIP3    H268895   6.473   1.454   6.124  0.3543 -1.8690 -0.8395
15802TIP3   OH268896   1.596   2.630  12.099  0.0720 -0.6072 -0.2489
15802TIP3    H168897   1.685   2.596  12.112  0.2995 -0.3754 -1.1887
15802TIP3    H268898   1.539   2.560  12.129  0.5379 -1.6750 -1.8109
15803TIP3   OH268899   0.044   6.194   6.440 -0.1213  0.1362  0.0025
15803TIP3    H168900   0.045   6.219   6.532 -0.0031  1.9368 -0.4652
15803TIP3    H268901   0.112   6.127   6.432  0.0167  0.1292  1.1785
15804TIP3   OH268902   6.668   5.700   1.441  0.4357  0.1768  0.0446
15804TIP3    H168903   6.574   5.687   1.458  0.3898  0.0869 -0.2712
15804TIP3    H268904   6.671   5.738   1.353  0.6815  0.4498  0.1721
15805TIP3   OH268905   2.284   2.971   5.325  0.5228  0.1777  0.0689
15805TIP3    H168906   2.305   2.971   5.231  0.6803 -0.1229  0.1006
15805TIP3    H268907   2.348   3.030   5.364  1.3461 -0.7636  0.1691
15806TIP3   OH268908   1.345   4.546   0.294 -0.3505 -0.8565 -0.1970
15806TIP3    H168909   1.264   4.510   0.332 -0.3613 -0.2420  0.3660
15806TIP3    H268910   1.398   4.571   0.370 -0.4278  0.5043 -0.5925
15807TIP3   OH268911   2.687   2.886  12.107 -0.0517  0.3374 -0.0704
15807TIP3    H168912   2.641   2.938  12.173 -0.3371  0.4766 -0.3761
15807TIP3    H268913   2.659   2.796  12.123  1.1221  0.1574  1.0233
15808TIP3   OH268914   2.185   1.330   2.428 -1.2915 -0.3812  0.1136
15808TIP3    H168915   2.198   1.394   2.499  1.0513 -1.4078  0.6504
15808TIP3    H268916   2.246   1.259   2.448  1.0794  0.3062 -4.1090
15809TIP3   OH268917   6.301   0.073   1.275 -0.0581 -0.0658  0.2507
15809TIP3    H168918   6.365   0.051   1.208 -0.7613  0.7332 -0.6880
15809TIP3    H268919   6.238  -0.000   1.273 -0.6320  0.4523 -0.6573
15810TIP3   OH268920   6.288   0.553   5.710 -0.2168 -0.7012 -0.1260
15810TIP3    H168921   6.304   0.642   5.742  1.2427 -1.0007  0.0281
15810TIP3    H268922   6.193   0.544   5.709 -0.3415 -0.1970  2.8611
15811TIP3   OH268923   5.744   3.939  16.605  0.3792 -0.3717  0.3100
15811TIP3    H168924   5.729   3.887  16.526  1.8574  0.1286 -0.3340
15811TIP3    H268925   5.718   3.882  16.677 -1.4347 -0.6578 -0.5591
15812TIP3   OH268926   3.918   4.060  11.617  0.0539  0.2297 -0.5462
15812TIP3    H168927   3.933   3.997  11.547 -1.2677 -1.2382  0.4837
15812TIP3    H268928   3.934   4.011  11.698 -1.0288  1.1844  0.2634
15813TIP3   OH268929   3.383   6.413  15.973 -0.3056  0.5616 -0.5213
15813TIP3    H168930   3.347   6.467  16.044 -0.4962 -0.4127  0.1373
15813TIP3    H268931   3.312   6.352  15.951 -0.3730  1.0877 -1.8008
15814TIP3   OH268932   0.474   1.177   5.103 -0.0558 -0.6950  0.0520
15814TIP3    H168933   0.381   1.173   5.124  0.3299 -1.8210  1.7300
15814TIP3    H268934   0.499   1.268   5.121 -0.3402 -0.9747  1.9622
15815TIP3   OH268935   5.478   2.119  13.387 -0.5791 -0.0788  0.3431
15815TIP3    H168936   5.390   2.087  13.367 -0.7732  0.2375  0.6695
15815TIP3    H268937   5.525   2.114  13.304 -0.8993 -0.2769  0.1714
15816TIP3   OH268938   0.628   4.374   2.080  0.0146  0.4967 -0.0234
15816TIP3    H168939   0.698   4.340   2.137  0.2203 -1.8787 -1.6347
15816TIP3    H268940   0.602   4.299   2.027 -1.5924  2.1686 -1.6557
15817TIP3   OH268941   2.712   5.551   4.790  0.0209 -0.4896 -0.3310
15817TIP3    H168942   2.728   5.475   4.846 -0.1200  1.3531  2.3304
15817TIP3    H268943   2.618   5.565   4.797  0.2488  0.7531  0.3373
15818TIP3   OH268944   0.495   6.539  15.616  0.6968  0.1718 -0.1513
15818TIP3    H168945   0.519   6.617  15.666 -1.5999  0.1790  1.0033
15818TIP3    H268946   0.540   6.467  15.660 -0.8750  0.2524  1.6453
15819TIP3   OH268947   3.108   6.498   5.190  0.4542  0.4157  0.1458
15819TIP3    H168948   3.187   6.491   5.136 -0.0788 -2.0190 -0.3536
15819TIP3    H268949   3.123   6.576   5.244  1.2346  2.6399 -3.0939
15820TIP3   OH268950   0.264   0.187   1.132 -0.6138 -0.3002  0.1492
15820TIP3    H168951   0.201   0.120   1.105 -2.6103  1.5799  0.0006
15820TIP3    H268952   0.256   0.190   1.227 -0.1959 -0.5863  0.1938
15821TIP3   OH268953   6.243   5.862  14.113 -0.5327 -0.4478  0.9723
15821TIP3    H168954   6.201   5.776  14.108  1.0761 -1.2919  1.9130
15821TIP3    H268955   6.240   5.895  14.023 -0.7865 -1.6614  0.5327
15822TIP3   OH268956   0.578   0.971  16.303  0.0405  0.1524  0.2474
15822TIP3    H168957   0.496   1.019  16.316 -0.0757 -0.1548  0.6648
15822TIP3    H268958   0.552   0.887  16.266  0.1195 -0.1357  0.8285
15823TIP3   OH268959   3.654   0.828  17.264 -0.5492 -0.0858 -0.1436
15823TIP3    H168960   3.686   0.838  17.174 -1.8341  0.5440 -0.5403
15823TIP3    H268961   3.573   0.778  17.255 -1.2575  0.9142  0.5475
15824TIP3   OH268962   2.897   5.877   1.491 -0.5807  0.0728  0.2395
15824TIP3    H168963   2.955   5.806   1.516 -2.0665 -1.3752 -0.3832
15824TIP3    H268964   2.935   5.912   1.410  1.1478  1.1947  1.4951
15825TIP3   OH268965   3.631   1.238   3.420 -0.3527 -0.5659 -0.3690
15825TIP3    H168966   3.594   1.179   3.354 -0.9745  0.0275 -0.5561
15825TIP3    H268967   3.586   1.321   3.405 -0.9066 -0.5788  1.1683
15826TIP3   OH268968   6.607   6.579   4.563  0.1138  0.6225 -0.5462
15826TIP3    H168969   6.518   6.555   4.535 -0.3544  0.9294  0.6268
15826TIP3    H268970   6.642   6.500   4.604  1.1598 -0.1210 -2.8103
15827TIP3   OH268971   2.026   4.368   1.244 -0.2279 -0.5011 -0.0327
15827TIP3    H168972   1.977   4.307   1.189  0.3995 -1.9176  0.9210
15827TIP3    H268973   1.965   4.439   1.262 -0.6016 -0.2655 -2.1102
15828TIP3   OH268974   6.239   2.631  12.447 -0.4344 -0.1723  0.0278
15828TIP3    H168975   6.168   2.616  12.384  0.0214  0.1137 -0.5655
15828TIP3    H268976   6.227   2.565  12.515  0.1330 -1.6522 -1.2948
15829TIP3   OH268977   5.153   5.416  16.469  0.9509 -0.1774 -0.5928
15829TIP3    H168978   5.148   5.414  16.565  0.8516 -1.7788 -0.6186
15829TIP3    H268979   5.071   5.378  16.440  1.4006 -0.6216 -1.2994
15830TIP3   OH268980   4.561   5.875  14.365 -0.6521 -0.6800  0.2761
15830TIP3    H168981   4.490   5.938  14.351  0.6207  0.8618  0.6629
15830TIP3    H268982   4.543   5.838  14.452  0.5258  1.7238  1.5709
15831TIP3   OH268983   4.050   4.235  13.536  0.4649 -0.0073  0.4111
15831TIP3    H168984   3.967   4.206  13.499 -0.3439  1.5731  0.9438
15831TIP3    H268985   4.067   4.172  13.607 -0.2969 -0.3182  0.3306
15832TIP3   OH268986   4.528   3.605  15.977 -0.2287 -0.1665  0.0859
15832TIP3    H168987   4.456   3.563  16.024 -2.0796  0.7329 -1.8120
15832TIP3    H268988   4.507   3.698  15.979 -0.2023 -0.0678 -2.1764
15833TIP3   OH268989   0.749   1.320  15.159  0.4998  0.1695 -0.6257
15833TIP3    H168990   0.796   1.375  15.096  1.3427  0.9244  0.6296
15833TIP3    H268991   0.818   1.277  15.209 -0.1606 -0.5168 -0.3044
15834TIP3   OH268992   0.126   0.894   6.440 -0.4233 -0.2857  0.6993
15834TIP3    H168993   0.207   0.851   6.413  0.9320  3.1467 -1.0206
15834TIP3    H268994   0.150   0.939   6.522 -1.0355 -0.5038  1.0006
15835TIP3   OH268995   2.830   1.302  15.833  0.0991 -0.1402 -0.4366
15835TIP3    H168996   2.853   1.386  15.793  3.7005 -1.4190 -1.2382
15835TIP3    H268997   2.806   1.247  15.758  1.4913 -0.9375 -0.2946
15836TIP3   OH268998   0.607   5.735  14.832 -0.2168  0.3749  0.4901
15836TIP3    H168999   0.528   5.688  14.858 -1.0569  1.2132 -0.5473
15836TIP3    H269000   0.660   5.739  14.912 -0.5800 -1.4260  0.8426
15837TIP3   OH269001   5.499   4.197   0.790  0.1067 -0.1131  0.3124
15837TIP3    H169002   5.460   4.161   0.711 -0.4044  0.5350  0.2664
15837TIP3    H269003   5.506   4.291   0.773  1.1931 -0.1489  0.5268
15838TIP3   OH269004   6.209   6.767   2.968  0.2521  0.3318  0.0595
15838TIP3    H169005   6.132   6.713   2.985 -1.4397  2.6349 -0.0085
15838TIP3    H269006   6.217   6.824   3.044  1.8133  0.2101  0.0042
15839TIP3   OH269007   3.925   6.147  13.679  0.3272  0.3827 -0.0963
15839TIP3    H169008   3.882   6.230  13.658  0.6941  1.1635  2.1060
15839TIP3    H269009   3.992   6.137  13.612 -2.1286 -0.0152 -2.6062
15840TIP3   OH269010   1.237   2.771   1.608 -0.4728  0.3957 -0.8648
15840TIP3    H169011   1.304   2.705   1.590 -2.0010 -1.1921 -0.9392
15840TIP3    H269012   1.239   2.783   1.703  1.7687  2.4139 -1.1316
15841TIP3   OH269013   4.880   6.201  12.580 -0.4614 -0.2632  0.2759
15841TIP3    H169014   4.904   6.242  12.497 -1.7074  0.7548  0.4083
15841TIP3    H269015   4.879   6.107  12.561  0.1535 -0.0930 -0.6171
15842TIP3   OH269016   2.601   5.743   0.913 -0.4323 -0.5816 -1.0624
15842TIP3    H169017   2.693   5.719   0.926  0.4285  2.0473 -2.0608
15842TIP3    H269018   2.574   5.693   0.836 -0.4362 -2.7926  0.3167
15843TIP3   OH269019   2.111   0.005  13.634 -0.2584 -0.2752 -0.0657
15843TIP3    H169020   2.032  -0.049  13.640 -0.8176  0.5072 -0.2920
15843TIP3    H269021   2.151  -0.021  13.551  1.2649 -2.7210  1.3697
15844TIP3   OH269022   0.613   6.189  16.399  0.2754 -0.3353 -0.4484
15844TIP3    H169023   0.590   6.150  16.484  0.2716 -0.6592 -0.5972
15844TIP3    H269024   0.697   6.150  16.376 -0.4828 -1.4756 -1.3512
15845TIP3   OH269025   0.430   4.914   0.672 -0.0977  0.1462 -0.1678
15845TIP3    H169026   0.434   4.873   0.758 -0.7221 -0.0453 -0.2336
15845TIP3    H269027   0.393   5.001   0.688  0.7673  0.5108 -0.0978
15846TIP3   OH269028   0.127   6.070  13.640  0.4028  0.1464 -0.2800
15846TIP3    H169029   0.116   6.087  13.734 -0.4557 -1.4672 -0.0680
15846TIP3    H269030   0.180   6.143  13.608  0.6217  0.7609  1.4466
15847TIP3   OH269031   4.390   3.840   2.031 -0.5607 -0.1181 -0.4312
15847TIP3    H169032   4.382   3.789   2.112  0.7388 -0.1931 -0.3482
15847TIP3    H269033   4.464   3.802   1.985  0.4775  1.7349 -0.3375
15848TIP3   OH269034   0.050   2.606  16.225  0.0515  0.3210  0.1174
15848TIP3    H169035   0.008   2.520  16.227  0.6530 -0.0285 -1.2649
15848TIP3    H269036   0.142   2.588  16.239  0.0403  0.8588  0.9067
15849TIP3   OH269037   6.095   3.424   1.940 -0.1857 -0.2692 -0.9670
15849TIP3    H169038   6.114   3.509   1.900  1.2854 -1.3736 -2.7161
15849TIP3    H269039   6.180   3.380   1.945 -0.7541 -1.2172  0.9552
15850TIP3   OH269040   0.884   4.688   4.530  0.2841  0.1227 -0.1895
15850TIP3    H169041   0.862   4.752   4.598  1.4172  1.0441 -0.6676
15850TIP3    H269042   0.971   4.714   4.500 -0.0109 -0.5404 -1.6751
15851TIP3   OH269043   6.242   0.043  11.559  0.2719  0.4073  0.2389
15851TIP3    H169044   6.149   0.021  11.561  0.3136 -0.1668 -2.3009
15851TIP3    H269045   6.287  -0.037  11.584  0.1132  0.5018  0.8344
15852TIP3   OH269046   1.541   1.039  11.175  0.4050 -0.2758 -0.1048
15852TIP3    H169047   1.460   0.990  11.166 -0.3094  1.1391 -1.4770
15852TIP3    H269048   1.577   1.043  11.087  0.8078  1.0817  0.1106
15853TIP3   OH269049   2.863   1.997  12.144  0.0223 -0.1100 -0.1865
15853TIP3    H169050   2.803   1.985  12.217  1.2415 -0.0401  0.8468
15853TIP3    H269051   2.948   2.010  12.185  0.8319 -0.7267 -1.6377
15854TIP3   OH269052   1.286   2.831  15.279 -0.2457 -0.0434  0.2768
15854TIP3    H169053   1.240   2.802  15.200  1.4466 -0.6397 -0.5274
15854TIP3    H269054   1.301   2.924  15.265  0.2043 -0.1838 -0.1988
15855TIP3   OH269055   2.762   1.403  16.078  0.0217  0.1149 -0.1125
15855TIP3    H169056   2.777   1.328  16.135  0.2143  0.5791  0.4480
15855TIP3    H269057   2.761   1.365  15.989  0.4996 -0.4946  0.1332
15856TIP3   OH269058   6.441   5.630   3.981 -0.6613  0.1678 -0.3312
15856TIP3    H169059   6.491   5.710   3.998 -2.3777  1.4032 -0.8827
15856TIP3    H269060   6.503   5.559   3.998  1.8673  1.6546 -2.7847
15857TIP3   OH269061   3.948   5.191  12.406  0.4422  0.4002  0.0493
15857TIP3    H169062   3.860   5.155  12.398  0.9005 -1.1963  1.7787
15857TIP3    H269063   3.934   5.285  12.421 -0.9263  0.2747 -0.3777
15858TIP3   OH269064   1.100   3.357  11.932  1.1692  0.5195 -0.4011
15858TIP3    H169065   1.013   3.370  11.894  2.0994  0.4705 -2.5877
15858TIP3    H269066   1.094   3.271  11.973 -0.4373  1.3995  1.3047
15859TIP3   OH269067   2.504   0.747   4.467 -0.3204  0.0333  0.4304
15859TIP3    H169068   2.549   0.831   4.478 -0.3177  0.2935 -1.4874
15859TIP3    H269069   2.559   0.684   4.513  0.8266  0.7226  0.0149
15860TIP3   OH269070   2.565   5.609   0.634  0.4187 -0.2201  0.2741
15860TIP3    H169071   2.582   5.553   0.558 -0.8697 -1.6717  1.0249
15860TIP3    H269072   2.575   5.698   0.601  0.3133 -0.8447 -1.4948
15861TIP3   OH269073   0.430   6.102   1.894 -0.6543  0.1652  0.2347
15861TIP3    H169074   0.445   6.085   1.801 -0.5493  1.1017  0.0830
15861TIP3    H269075   0.363   6.039   1.920 -0.1148 -0.6345 -0.2839
15862TIP3   OH269076   1.274   1.932   0.202 -0.1509  0.3196  0.1479
15862TIP3    H169077   1.263   1.947   0.296 -0.2741  1.1100  0.0129
15862TIP3    H269078   1.341   1.996   0.175  2.2208 -2.0133  0.2810
15863TIP3   OH269079   3.582   4.179  12.098 -0.1503  0.5054 -0.0281
15863TIP3    H169080   3.670   4.143  12.098 -0.1255  0.5680  0.4039
15863TIP3    H269081   3.529   4.114  12.145 -0.2467  0.6813  0.1069
15864TIP3   OH269082   6.291   3.761  13.810  0.1494  0.2092 -0.2037
15864TIP3    H169083   6.283   3.675  13.769  0.6938 -0.0528  0.2349
15864TIP3    H269084   6.309   3.742  13.902 -0.7882  0.7949  0.1102
15865TIP3   OH269085   1.593   3.663   1.940 -0.2341  0.1122  0.6534
15865TIP3    H169086   1.507   3.670   1.982  0.2731 -4.5449  2.7861
15865TIP3    H269087   1.574   3.630   1.852 -0.7190  0.6149  0.5686
15866TIP3   OH269088   1.905   0.868  13.824 -0.7709 -0.0283  0.3577
15866TIP3    H169089   1.830   0.924  13.806 -1.2088 -0.4907  0.7355
15866TIP3    H269090   1.867   0.787  13.858 -0.0209  0.3354  2.1121
15867TIP3   OH269091   0.838   6.333   0.574 -0.0369  0.1719  0.0758
15867TIP3    H169092   0.894   6.406   0.601 -1.8899  1.3387  0.7856
15867TIP3    H269093   0.762   6.374   0.533  0.1067 -1.4333 -1.9053
15868TIP3   OH269094   4.729   3.157   4.926  0.0558 -0.0873  0.2041
15868TIP3    H169095   4.639   3.166   4.894  0.3888 -0.9022 -1.0196
15868TIP3    H269096   4.733   3.213   5.004 -1.4505  0.1096  0.1583
15869TIP3   OH269097   0.294   4.225   1.463 -0.4233 -0.4714 -0.1018
15869TIP3    H169098   0.239   4.182   1.528 -0.1918  0.0617  0.4412
15869TIP3    H269099   0.330   4.302   1.507 -0.0456 -0.2575 -0.7662
15870TIP3   OH269100   2.889   2.296   3.253  0.4310 -0.1597  0.6760
15870TIP3    H169101   2.912   2.377   3.207 -0.5806 -0.9349 -1.2578
15870TIP3    H269102   2.969   2.243   3.248 -0.2786 -1.0413 -2.0270
15871TIP3   OH269103   3.428   0.621  16.228  0.2298  0.1812  0.0462
15871TIP3    H169104   3.472   0.706  16.235 -0.2161  0.2324  2.7130
15871TIP3    H269105   3.497   0.557  16.248 -0.0223  0.0598  0.5300
15872TIP3   OH269106   3.955   6.728   3.849 -0.0575  0.5065  0.4124
15872TIP3    H169107   4.006   6.809   3.845  0.2136  0.6415  4.6515
15872TIP3    H269108   4.020   6.659   3.862 -0.5625  0.0511  0.5523
15873TIP3   OH269109   1.245   1.209  13.497  0.0924 -0.5637 -0.0127
15873TIP3    H169110   1.151   1.189  13.496  0.0813 -0.6557  1.6420
15873TIP3    H269111   1.283   1.147  13.435 -1.0585  0.2187 -1.5642
15874TIP3   OH269112   4.724   5.390   0.723 -0.0074  0.4319 -0.1229
15874TIP3    H169113   4.660   5.411   0.655 -0.2530 -1.1896 -0.4143
15874TIP3    H269114   4.769   5.312   0.691  0.7947  0.4325  0.9634
15875TIP3   OH269115   2.691   0.562   0.384  0.2976  0.6599 -0.5395
15875TIP3    H169116   2.755   0.613   0.433 -1.1715  1.4117  0.6599
15875TIP3    H269117   2.608   0.607   0.400 -0.3162  0.5866 -3.2719
15876TIP3   OH269118   2.544   1.699  12.177  0.3907  0.3199 -0.3347
15876TIP3    H169119   2.595   1.761  12.124  1.2749 -0.3135 -0.2355
15876TIP3    H269120   2.522   1.748  12.257 -0.7681  1.2088 -1.1806
15877TIP3   OH269121   3.404   3.566   6.202  0.2057 -0.0333 -0.5136
15877TIP3    H169122   3.344   3.541   6.273  1.0453 -1.7182 -0.3722
15877TIP3    H269123   3.375   3.654   6.177 -0.9355  0.0670  1.0263
15878TIP3   OH269124   4.744   6.252  17.155 -0.1685 -0.2958 -0.3862
15878TIP3    H169125   4.725   6.346  17.145 -0.6851 -0.2499  0.9377
15878TIP3    H269126   4.836   6.249  17.181 -0.2647 -0.1278 -0.0221
15879TIP3   OH269127   6.175   6.481  12.321 -0.1149 -0.2850  0.1600
15879TIP3    H169128   6.255   6.526  12.295  0.6558 -1.5997  0.2213
15879TIP3    H269129   6.121   6.483  12.242 -0.5615  1.6942  0.4752
15880TIP3   OH269130   0.929   3.565   0.335  0.5551  0.0122  0.1857
15880TIP3    H169131   0.995   3.525   0.279 -1.0998 -1.3059 -0.8716
15880TIP3    H269132   0.887   3.491   0.380 -1.0766  0.7117 -0.1590
15881TIP3   OH269133   6.316   3.361  12.028  0.0785  0.6698  0.6706
15881TIP3    H169134   6.365   3.443  12.032  1.6950 -0.0319 -2.4904
15881TIP3    H269135   6.376   3.295  12.063 -0.7260  0.6192  1.9828
15882TIP3   OH269136   2.235   2.926   3.411 -0.3769 -0.1941  0.1123
15882TIP3    H169137   2.297   2.915   3.338  0.4886 -1.4588  1.0110
15882TIP3    H269138   2.275   2.995   3.464 -0.9677  0.6725 -0.5578
15883TIP3   OH269139   1.883   0.807  16.744  0.4750 -0.0772  0.6833
15883TIP3    H169140   1.848   0.892  16.718  0.3727 -0.1054  0.7325
15883TIP3    H269141   1.844   0.789  16.830 -0.1157 -0.5311  0.3250
15884TIP3   OH269142   2.138   3.914   3.958 -0.3301 -1.0834  0.3409
15884TIP3    H169143   2.079   3.895   4.031  0.6450 -0.6618  1.2698
15884TIP3    H269144   2.113   4.001   3.929  0.1831 -0.6735  1.1003
15885TIP3   OH269145   5.887   5.644   4.605 -0.2641  0.4112  0.4639
15885TIP3    H169146   5.890   5.683   4.692  0.4620 -2.1780  1.6282
15885TIP3    H269147   5.794   5.647   4.581 -0.3366  2.0667  0.8547
15886TIP3   OH269148   6.234   2.645   2.915  0.2145 -0.0818 -0.2022
15886TIP3    H169149   6.263   2.735   2.904  0.9865 -0.3193 -0.1496
15886TIP3    H269150   6.287   2.611   2.988 -2.3974  0.4181  1.9761
15887TIP3   OH269151   2.026   6.483  11.046  0.0502  0.1832  0.2370
15887TIP3    H169152   2.022   6.572  11.013  1.3332  0.4911  0.8746
15887TIP3    H269153   2.026   6.492  11.141  0.9981 -0.4496  0.3036
15888TIP3   OH269154   1.610   4.485  12.045  0.0336  0.1325 -0.5454
15888TIP3    H169155   1.692   4.508  12.002  1.3345 -1.7990  0.7705
15888TIP3    H269156   1.593   4.395  12.017  0.8597 -1.1360  2.7733
15889TIP3   OH269157   1.275   3.694  14.143  0.4397 -0.3937 -0.0257
15889TIP3    H169158   1.270   3.764  14.078 -0.4872  0.6810  1.1762
15889TIP3    H269159   1.253   3.614  14.095 -0.1388  0.3778 -1.0544
15890TIP3   OH269160   4.351   5.097   6.056  0.3061  0.4252  0.4473
15890TIP3    H169161   4.328   5.175   6.007 -0.5043  1.0869  1.8568
15890TIP3    H269162   4.267   5.055   6.075  0.7561 -0.9974 -0.6293
15891TIP3   OH269163   6.610   2.057  12.845  0.1684  0.2161 -0.6327
15891TIP3    H169164   6.629   2.042  12.753  1.2325 -0.7423 -0.2609
15891TIP3    H269165   6.610   1.970  12.885  0.3070  0.6733  0.3896
15892TIP3   OH269166   2.248   1.294   3.895  0.0622 -0.0420 -0.3781
15892TIP3    H169167   2.259   1.238   3.818  2.2200 -0.1973 -0.0141
15892TIP3    H269168   2.179   1.253   3.946  0.3813 -1.3828 -1.0068
15893TIP3   OH269169   2.713   2.707  16.080 -0.1512  0.4214 -0.1092
15893TIP3    H169170   2.677   2.789  16.114 -0.6867  0.6350 -1.1522
15893TIP3    H269171   2.729   2.653  16.157 -1.7437  0.7260  0.4337
15894TIP3   OH269172   5.124   6.689   1.304 -0.4526  0.4634  0.0276
15894TIP3    H169173   5.143   6.760   1.365  1.7773  1.3927 -1.6633
15894TIP3    H269174   5.210   6.657   1.278 -1.3973 -0.9658 -1.4125
15895TIP3   OH269175   5.244   2.389   3.504 -0.0761 -0.0250  0.2580
15895TIP3    H169176   5.271   2.478   3.482 -1.3526  0.7066  1.4948
15895TIP3    H269177   5.318   2.352   3.551 -0.2132  1.0420  1.3394
15896TIP3   OH269178   1.711   4.517   5.774  0.1816  0.8732 -0.4357
15896TIP3    H169179   1.803   4.543   5.785  0.4808 -0.3529  0.0181
15896TIP3    H269180   1.680   4.500   5.863  0.3373 -1.4701 -0.8166
15897TIP3   OH269181   6.026   2.251   2.155  0.2492  0.1012  0.0281
15897TIP3    H169182   6.011   2.199   2.076  0.5839 -0.9101  0.6166
15897TIP3    H269183   6.121   2.248   2.167  0.0932 -0.7595  1.1317
15898TIP3   OH269184   3.807   0.366  11.647 -0.3587  0.1618  0.0295
15898TIP3    H169185   3.875   0.320  11.599 -0.3811 -0.2491  0.3902
15898TIP3    H269186   3.790   0.445  11.595 -0.9804 -0.6877 -1.0696
15899TIP3   OH269187   1.583   2.589   5.878 -0.7942  0.8210 -0.3170
15899TIP3    H169188   1.521   2.633   5.936 -1.7977 -0.3299 -0.4867
15899TIP3    H269189   1.534   2.575   5.797 -1.0151 -1.9358  0.2411
15900TIP3   OH269190   2.521   5.181  12.236 -0.3647  0.2089  0.4073
15900TIP3    H169191   2.583   5.115  12.267  0.1511 -0.2269 -1.5182
15900TIP3    H269192   2.572   5.261  12.231 -0.2949  0.1423  0.0750
15901TIP3   OH269193   3.904   5.922   3.251  0.2378 -0.3012  0.2902
15901TIP3    H169194   3.909   5.850   3.188  0.2584 -0.8345  0.8960
15901TIP3    H269195   3.995   5.950   3.262  0.3826 -1.0818  1.0839
15902TIP3   OH269196   4.182   4.343   6.006  0.9168 -0.0226 -0.0765
15902TIP3    H169197   4.095   4.354   6.044  1.0648 -0.0311  0.2687
15902TIP3    H269198   4.168   4.286   5.930  0.8077 -1.1137  0.7400
15903TIP3   OH269199   6.776   3.435  14.711  0.0571 -0.1965 -0.1216
15903TIP3    H169200   6.687   3.459  14.687  0.8818  1.2661 -1.8678
15903TIP3    H269201   6.814   3.516  14.745  0.4796 -1.0159  1.4003
15904TIP3   OH269202   0.604   1.100   4.303  0.3910  0.4561  0.2133
15904TIP3    H169203   0.686   1.052   4.315 -0.6333 -1.5333 -0.4767
15904TIP3    H269204   0.553   1.081   4.382 -0.5628 -0.7727 -0.6659
15905TIP3   OH269205   3.366   2.732   2.521  0.0239 -0.1259 -0.9650
15905TIP3    H169206   3.406   2.747   2.435 -0.4794  2.0174 -0.8372
15905TIP3    H269207   3.425   2.774   2.583 -2.3392  3.1281 -0.7734
15906TIP3   OH269208   4.698   5.024  13.957  0.0710  0.4094  0.3212
15906TIP3    H169209   4.719   5.036  14.049 -1.1488 -0.7377  0.7625
15906TIP3    H269210   4.741   4.942  13.933  0.1764  0.5753 -0.0592
15907TIP3   OH269211   3.198   3.500   2.635 -0.9509 -0.2620  0.2804
15907TIP3    H169212   3.198   3.566   2.565 -2.0355  0.3554  0.8510
15907TIP3    H269213   3.267   3.529   2.695 -0.8126 -0.1533  0.0714
15908TIP3   OH269214   4.712   6.577   2.599 -0.0489  0.6550  0.7630
15908TIP3    H169215   4.794   6.571   2.551 -1.0998 -0.0742 -0.9719
15908TIP3    H269216   4.666   6.496   2.579 -1.6365  1.4967  0.9039
15909TIP3   OH269217   4.985   4.289  12.765 -0.0761  0.3255  0.5492
15909TIP3    H169218   4.985   4.385  12.763 -0.4179  0.3126 -2.5155
15909TIP3    H269219   5.073   4.265  12.737 -0.8252 -0.2418 -1.3891
15910TIP3   OH269220   3.559   0.502  14.481 -0.1186 -0.4427 -0.6673
15910TIP3    H169221   3.502   0.429  14.506 -0.9105  0.5159  0.3896
15910TIP3    H269222   3.588   0.540  14.564  2.5406 -1.2409 -1.1685
15911TIP3   OH269223   2.230   4.015   5.066 -0.2641 -0.2068 -0.0691
15911TIP3    H169224   2.304   3.956   5.074 -1.2942 -1.5522 -0.2704
15911TIP3    H269225   2.234   4.071   5.143  2.1075  1.0854 -1.0889
15912TIP3   OH269226   6.141   5.564  13.360 -0.2102 -0.4238 -0.6170
15912TIP3    H169227   6.167   5.518  13.280 -1.3156 -0.6783 -0.8375
15912TIP3    H269228   6.175   5.653  13.348  1.9206 -1.1471 -0.1856
15913TIP3   OH269229   5.165   1.182  15.300  0.3600 -0.1332  0.0209
15913TIP3    H169230   5.261   1.179  15.300  0.4116  0.0692 -2.8856
15913TIP3    H269231   5.144   1.263  15.348  1.5836 -0.6442  1.4710
15914TIP3   OH269232   4.518   5.909   3.037  0.4501 -0.2957  0.4356
15914TIP3    H169233   4.566   5.828   3.054 -0.2020 -0.5771  0.9489
15914TIP3    H269234   4.557   5.943   2.956  0.8954 -0.9853  0.3532
15915TIP3   OH269235   2.446   4.308   5.517  0.2109 -0.7047  0.1032
15915TIP3    H169236   2.437   4.320   5.423  1.1888 -1.3522 -0.0846
15915TIP3    H269237   2.537   4.332   5.536  0.4214 -1.8877  0.6569
15916TIP3   OH269238   2.319   4.976  16.405  0.6835  0.0993  0.0195
15916TIP3    H169239   2.296   4.955  16.495 -1.1269  0.9561 -0.2177
15916TIP3    H269240   2.318   5.072  16.402  0.2402  0.0698 -1.0219
15917TIP3   OH269241   1.740   5.960  13.216 -0.4189  0.0317 -0.2111
15917TIP3    H169242   1.687   5.989  13.290  1.7841  2.5120  0.4528
15917TIP3    H269243   1.735   5.864  13.220  0.7487 -0.0006  4.0680
15918TIP3   OH269244   5.150   4.228   0.698 -0.1369 -0.0013 -0.1264
15918TIP3    H169245   5.234   4.222   0.654  0.1576  0.8430  0.3120
15918TIP3    H269246   5.129   4.321   0.698 -0.3830 -0.0381  1.0316
15919TIP3   OH269247   3.224   6.516  17.224 -0.4028 -0.0033 -0.4395
15919TIP3    H169248   3.231   6.481  17.135  1.2084 -0.3295 -0.2064
15919TIP3    H269249   3.298   6.577  17.232 -0.9042  0.5030  0.4692
15920TIP3   OH269250   4.106   5.098   3.599  0.0433 -0.1434 -0.1032
15920TIP3    H169251   4.037   5.042   3.635  0.8830 -0.1928  1.4626
15920TIP3    H269252   4.174   5.037   3.571  1.0632  0.0806  1.8233
15921TIP3   OH269253   2.952   2.420   0.105  0.1912 -0.1148  0.1101
15921TIP3    H169254   2.968   2.330   0.134  2.8773 -0.4678 -2.2410
15921TIP3    H269255   2.929   2.467   0.185  1.8217 -2.2220  1.9022
15922TIP3   OH269256   0.728   1.228  17.268  0.4971  0.2655  0.2112
15922TIP3    H169257   0.650   1.179  17.244  1.0298 -0.2620 -0.4614
15922TIP3    H269258   0.782   1.227  17.190  1.1001  0.7904  0.6147
15923TIP3   OH269259   0.483   2.954   4.449  0.0139  0.1033 -0.2306
15923TIP3    H169260   0.499   3.022   4.514  0.9746  0.7981 -1.1745
15923TIP3    H269261   0.520   2.874   4.488 -1.0461  0.1230  0.8419
15924TIP3   OH269262   4.465   3.351  13.277 -0.5387 -1.0244  0.0149
15924TIP3    H169263   4.503   3.430  13.316 -0.4173 -0.7453 -0.6608
15924TIP3    H269264   4.371   3.367  13.280 -0.4159  0.4282 -2.7582
15925TIP3   OH269265   3.327   4.143  13.570 -0.0190 -0.3941  0.2934
15925TIP3    H169266   3.348   4.089  13.646 -2.5199 -1.0895  0.5057
15925TIP3    H269267   3.369   4.227  13.589  2.8989 -1.8113  0.4913
15926TIP3   OH269268   3.914   2.856   1.434 -0.3758 -0.3269  0.6550
15926TIP3    H169269   3.974   2.781   1.442 -0.7337 -0.6246  0.5541
15926TIP3    H269270   3.835   2.828   1.479 -1.1756 -0.7091 -0.9438
15927TIP3   OH269271   6.801   6.397  17.002 -0.4459 -0.0171  0.2964
15927TIP3    H169272   6.896   6.402  16.993 -0.5231  0.4909 -0.3263
15927TIP3    H269273   6.786   6.394  17.097  0.1126  2.1058  0.4919
15928TIP3   OH269274   0.614   3.279   0.576 -0.0480  0.0074  0.1578
15928TIP3    H169275   0.669   3.323   0.512  0.3663  0.5545  0.8741
15928TIP3    H269276   0.675   3.227   0.629 -0.2871  0.1795  0.6060
15929TIP3   OH269277   0.244   3.149  12.768 -0.2289  0.0252 -0.6004
15929TIP3    H169278   0.275   3.232  12.806  0.4452 -0.7410  0.5554
15929TIP3    H269279   0.322   3.093  12.766 -1.1440 -1.3662  0.8171
15930TIP3   OH269280   1.703   3.266   4.260 -0.1892  0.0583  0.2186
15930TIP3    H169281   1.770   3.235   4.322  0.0784  0.1898 -0.0038
15930TIP3    H269282   1.690   3.191   4.201 -1.1273 -0.4028  0.9986
15931TIP3   OH269283   1.068   2.314  12.099 -0.0969  0.2393 -0.8665
15931TIP3    H169284   1.061   2.307  12.195 -1.8856  0.4003 -0.9634
15931TIP3    H269285   1.113   2.234  12.073  1.1101  0.5610  0.1774
15932TIP3   OH269286   2.048   6.661   1.813 -0.0102  0.1970  0.2260
15932TIP3    H169287   2.061   6.742   1.863  2.3622 -0.1388  0.1889
15932TIP3    H269288   2.081   6.592   1.871  0.4191 -0.4614 -0.8001
15933TIP3   OH269289   2.443   5.221  11.767  0.0741  0.4602  0.2723
15933TIP3    H169290   2.414   5.311  11.758  0.9485  0.8416  1.1200
15933TIP3    H269291   2.538   5.228  11.782  0.4659 -0.6958 -1.5486
15934TIP3   OH269292   1.846   1.953  14.034  0.3456 -0.1965  0.1075
15934TIP3    H169293   1.803   1.868  14.039  1.7503 -1.0479 -1.6864
15934TIP3    H269294   1.854   1.970  13.940  1.2790  1.2943  0.4420
15935TIP3   OH269295   1.854   2.209   5.561 -0.4071 -0.4054  0.1047
15935TIP3    H169296   1.887   2.129   5.602 -0.2627 -1.0684 -1.2680
15935TIP3    H269297   1.932   2.249   5.520 -0.9718 -1.1267 -1.7457
15936TIP3   OH269298   3.477   3.722  16.778  0.6572 -0.5063 -0.6894
15936TIP3    H169299   3.443   3.805  16.812  1.5340  0.1885 -1.4658
15936TIP3    H269300   3.512   3.677  16.855  0.9326  0.2230 -0.3815
15937TIP3   OH269301   1.649   5.923   5.275 -0.3404 -0.2292 -0.3352
15937TIP3    H169302   1.623   6.012   5.253 -0.3882 -0.5778 -1.8112
15937TIP3    H269303   1.744   5.928   5.287  0.1907 -0.5352 -3.7157
15938TIP3   OH269304   3.865   3.611  10.234  0.0511  0.1434  0.2150
15938TIP3    H169305   3.960   3.619  10.218 -0.2305  1.3895 -0.9402
15938TIP3    H269306   3.836   3.700  10.250 -0.8637 -0.2947  1.0133
15939TIP3   OH269307   2.447   2.232   4.371  0.2072  0.2302  0.0417
15939TIP3    H169308   2.409   2.318   4.352 -1.6928  0.0530  2.7607
15939TIP3    H269309   2.391   2.170   4.324 -1.4305  0.1639  1.9990
15940TIP3   OH269310   0.919   0.392  13.582  1.0157 -0.3462  0.2339
15940TIP3    H169311   0.866   0.439  13.646  0.1524  0.1043 -0.7903
15940TIP3    H269312   1.004   0.436  13.583  0.9467 -0.2258  0.9231
15941TIP3   OH269313   1.714   5.349   0.946 -0.0190 -0.1556  0.0603
15941TIP3    H169314   1.731   5.369   1.038  0.1556 -2.2779  0.5164
15941TIP3    H269315   1.627   5.309   0.945  0.1441 -0.5114 -0.6411
15942TIP3   OH269316   2.502   4.854  11.836 -0.4830  0.1185 -0.5059
15942TIP3    H169317   2.590   4.875  11.804 -0.0079  0.3132  0.9172
15942TIP3    H269318   2.491   4.909  11.914 -2.1925  0.7169 -1.1417
15943TIP3   OH269319   1.421   3.032  13.171  0.0059  0.9300 -0.1063
15943TIP3    H169320   1.510   3.009  13.196 -0.3796 -0.8636 -0.3319
15943TIP3    H269321   1.416   3.127  13.184  1.6463  0.9044  0.8108
15944TIP3   OH269322   6.492   5.088   4.830 -0.3725  0.1366  0.1760
15944TIP3    H169323   6.504   5.149   4.903 -0.8192  0.9229 -0.3937
15944TIP3    H269324   6.542   5.010   4.855  1.5768  1.3463  0.2094
15945TIP3   OH269325   1.749   2.372   4.153  0.1416  0.4674  0.4184
15945TIP3    H169326   1.718   2.318   4.226 -1.2795 -0.8255 -1.0908
15945TIP3    H269327   1.840   2.346   4.142 -0.4670 -1.5753 -0.1678
15946TIP3   OH269328   4.441   4.180   3.117  0.3547  0.1160 -0.5059
15946TIP3    H169329   4.445   4.275   3.123 -1.1283  0.1003  0.8613
15946TIP3    H269330   4.521   4.150   3.161  0.1843  0.6859  0.1978
15947TIP3   OH269331   6.084   5.015  12.455  0.2874 -0.8333  0.4659
15947TIP3    H169332   6.136   4.973  12.525 -0.6967 -3.2638 -0.2072
15947TIP3    H269333   6.010   4.956  12.442 -0.9511  0.9810 -0.7959
15948TIP3   OH269334   4.949   0.922   3.934  0.3159 -0.0625 -0.1751
15948TIP3    H169335   4.918   0.964   3.854 -0.2880  0.2587  0.2173
15948TIP3    H269336   4.869   0.890   3.976  0.4934  0.9436  0.9554
15949TIP3   OH269337   4.190   3.867  13.964 -0.1052  0.0106  0.0535
15949TIP3    H169338   4.264   3.904  13.917 -0.5944  1.2727  0.2711
15949TIP3    H269339   4.184   3.918  14.044 -1.2543 -0.0485  0.0086
15950TIP3   OH269340   4.062   0.322  13.366  0.5356 -0.6350 -0.1984
15950TIP3    H169341   4.050   0.227  13.368  0.6896 -0.6503  0.0225
15950TIP3    H269342   4.077   0.346  13.457 -2.1155 -0.0657  0.1398
15951TIP3   OH269343   1.786   6.230   2.423 -0.3133 -0.1812 -0.6102
15951TIP3    H169344   1.716   6.276   2.377 -2.3581 -0.4700  2.1284
15951TIP3    H269345   1.741   6.170   2.482  2.1228  1.7377  3.3784
15952TIP3   OH269346   6.454   2.615  16.863 -0.1252 -0.2784  0.0617
15952TIP3    H169347   6.409   2.699  16.865  1.5941  0.6503  1.3010
15952TIP3    H269348   6.529   2.629  16.804 -1.2510 -1.7236 -1.7947
15953TIP3   OH269349   0.682   6.801   1.105  0.3422  0.1544  0.3329
15953TIP3    H169350   0.731   6.776   1.027 -0.1084 -1.0829  0.4389
15953TIP3    H269351   0.694   6.896   1.111  0.2742  0.2874 -1.3217
15954TIP3   OH269352   0.329   4.255  15.313 -0.1609 -0.1249 -0.5387
15954TIP3    H169353   0.266   4.327  15.317 -0.0408  0.1528 -2.9455
15954TIP3    H269354   0.298   4.200  15.242  1.8189 -0.4346 -1.2065
15955TIP3   OH269355   3.993   1.474  15.700  0.1544  0.4641  0.0701
15955TIP3    H169356   3.911   1.516  15.675  0.8327  1.6498 -0.1948
15955TIP3    H269357   4.031   1.532  15.766  0.6614 -0.2110  0.3827
15956TIP3   OH269358   0.619   3.660  14.082 -0.1157 -0.5062  0.1059
15956TIP3    H169359   0.691   3.612  14.123 -0.6780 -1.1549  0.3533
15956TIP3    H269360   0.636   3.752  14.102  0.2996 -0.7101  0.7085
15957TIP3   OH269361   3.491   1.170  15.799 -0.2092 -0.1309  0.0210
15957TIP3    H169362   3.497   1.234  15.870  1.5781 -0.8598  0.5488
15957TIP3    H269363   3.455   1.092  15.840  2.0492 -0.9874  0.4772
15958TIP3   OH269364   0.692   4.682   3.407  0.2431 -0.4558  0.6068
15958TIP3    H169365   0.760   4.617   3.426  1.9210  0.9282 -0.4882
15958TIP3    H269366   0.702   4.748   3.476  1.1994  0.6249 -0.5229
15959TIP3   OH269367   6.556   3.143  15.458  0.3308 -0.0755 -0.3179
15959TIP3    H169368   6.496   3.150  15.532  0.8856  2.3079 -0.0241
15959TIP3    H269369   6.549   3.052  15.429 -2.7378 -0.0905  0.2648
15960TIP3   OH269370   5.292   4.113   4.461 -0.1861  0.0093  0.1339
15960TIP3    H169371   5.333   4.199   4.458 -0.9626  0.4013  0.6856
15960TIP3    H269372   5.360   4.056   4.498 -0.4318  0.8239  1.8831
15961TIP3   OH269373   2.963   2.948   1.241 -0.0895  0.4566 -0.0062
15961TIP3    H169374   2.955   2.853   1.254  0.1600  0.4781  0.3342
15961TIP3    H269375   2.887   2.972   1.189 -0.2110  0.0835 -0.0045
15962TIP3   OH269376   0.035   4.638  13.007  0.1732  0.0046 -0.1979
15962TIP3    H169377  -0.047   4.588  13.006 -0.3129  0.8044 -0.7494
15962TIP3    H269378   0.018   4.710  13.068  1.0766 -0.8246  1.0559
15963TIP3   OH269379   4.537   1.279   3.270  0.3195 -0.3360  0.0026
15963TIP3    H169380   4.597   1.297   3.343 -1.0015  0.9283  0.8112
15963TIP3    H269381   4.463   1.233   3.311  0.7138 -1.8861 -0.9847
15964TIP3   OH269382   1.528   1.767   3.289 -0.9803  0.3296 -0.0139
15964TIP3    H169383   1.493   1.692   3.242 -2.5783  1.0174  0.0380
15964TIP3    H269384   1.454   1.799   3.342 -0.5483  2.3439 -0.5749
15965TIP3   OH269385   2.110   1.342  15.108  0.5129 -0.4643  0.1039
15965TIP3    H169386   2.126   1.289  15.030 -1.1040 -1.0589  0.1603
15965TIP3    H269387   2.168   1.306  15.175  0.8548 -0.8881 -0.4264
15966TIP3   OH269388   0.015   1.329  17.236  0.6940  0.0188 -0.0815
15966TIP3    H169389   0.095   1.316  17.185  0.3206 -1.9979 -0.1873
15966TIP3    H269390   0.019   1.262  17.305 -0.5947  0.3069  0.2884
15967TIP3   OH269391   2.537   5.634   3.610  0.5205 -0.3803 -0.2837
15967TIP3    H169392   2.451   5.594   3.627  0.0142  0.4334 -0.8954
15967TIP3    H269393   2.591   5.607   3.684 -0.4699 -0.2893  0.4783
15968TIP3   OH269394   5.464   3.631  14.885 -0.4175  0.6052 -0.6964
15968TIP3    H169395   5.537   3.583  14.846 -0.8657  0.5439 -1.4656
15968TIP3    H269396   5.502   3.674  14.961  0.5741  1.0708 -1.4424
15969TIP3   OH269397   3.582   0.356  13.570 -0.2918 -0.1892 -0.1285
15969TIP3    H169398   3.561   0.287  13.508  1.5380 -2.6789  1.9072
15969TIP3    H269399   3.546   0.436  13.531  1.1475 -1.5617 -4.5699
15970TIP3   OH269400   4.537   2.856   1.223  0.0020 -0.3341  0.0732
15970TIP3    H169401   4.624   2.836   1.188  0.1085  1.8830 -1.0063
15970TIP3    H269402   4.537   2.951   1.235 -1.8287 -0.4692  1.2869
15971TIP3   OH269403   2.542   3.054  14.976 -0.4353 -0.1363 -0.1194
15971TIP3    H169404   2.465   3.001  14.994 -0.9316  0.7217  0.2811
15971TIP3    H269405   2.566   3.032  14.885  0.6995 -2.7188  0.7568
15972TIP3   OH269406   4.595   5.597  15.746  0.3098 -0.1551 -0.2057
15972TIP3    H169407   4.662   5.636  15.689  1.4955 -1.3953  0.3291
15972TIP3    H269408   4.512   5.631  15.711  1.1540  0.7823 -1.3518
15973TIP3   OH269409   0.709   0.139  13.601 -0.2723  0.3753 -0.0598
15973TIP3    H169410   0.758   0.184  13.670 -2.4097  0.4836  1.4462
15973TIP3    H269411   0.732   0.046  13.611  0.2594  0.5254  0.0947
15974TIP3   OH269412   0.749   1.598   0.197  0.4359 -0.2821 -0.6236
15974TIP3    H169413   0.705   1.681   0.180 -1.1596 -1.0803 -0.4764
15974TIP3    H269414   0.764   1.561   0.109 -2.3883 -1.6139 -0.6216
15975TIP3   OH269415   5.509   0.789  16.421  0.2109 -0.4388  0.1886
15975TIP3    H169416   5.485   0.719  16.361 -0.0807  0.7122 -1.0468
15975TIP3    H269417   5.587   0.829  16.382  1.0495 -0.7836  1.4630
15976TIP3   OH269418   3.722   5.862   0.339 -0.2718  0.6314  0.2925
15976TIP3    H169419   3.797   5.818   0.301  0.5469  0.7955  1.6723
15976TIP3    H269420   3.742   5.956   0.329 -0.0978  0.6744  1.0194
15977TIP3   OH269421   0.748   6.816   5.115  0.7240  0.4306 -0.4465
15977TIP3    H169422   0.794   6.892   5.150 -0.4936 -0.6830  3.7580
15977TIP3    H269423   0.809   6.743   5.126 -1.3442 -0.8002  3.9325
15978TIP3   OH269424   1.021   1.168   6.044  0.4839 -0.0011  0.1627
15978TIP3    H169425   1.067   1.227   5.984  0.5138 -1.3284 -1.1600
15978TIP3    H269426   1.046   1.197   6.131  1.2603  1.3234 -0.4885
15979TIP3   OH269427   3.076   5.075  16.508 -0.0271 -0.4794 -0.0410
15979TIP3    H169428   3.011   5.023  16.555  0.4526  0.7215  2.0264
15979TIP3    H269429   3.076   5.159  16.553  3.5864 -0.7210  0.5415
15980TIP3   OH269430   6.720   6.605   1.089  0.6022 -0.2953 -0.4268
15980TIP3    H169431   6.629   6.631   1.103  1.0891  1.5385 -0.6088
15980TIP3    H269432   6.716   6.537   1.022 -0.6836 -0.6719  0.0302
15981TIP3   OH269433   2.891   4.850   3.078 -0.8371 -0.6484 -0.2155
15981TIP3    H169434   2.958   4.781   3.082  2.0090  1.9343 -1.0861
15981TIP3    H269435   2.891   4.878   2.987 -1.0407  1.3491  0.3742
15982TIP3   OH269436   0.053   4.217  15.539 -0.6516 -0.4991  0.0410
15982TIP3    H169437   0.062   4.276  15.465  3.0129 -2.1474 -0.9259
15982TIP3    H269438   0.099   4.261  15.611 -0.2689 -0.9424  0.0699
15983TIP3   OH269439   0.108   4.442  13.211 -0.6136 -0.1906  0.6661
15983TIP3    H169440   0.069   4.497  13.142 -2.3908 -0.3538  1.4991
15983TIP3    H269441   0.192   4.483  13.230 -0.7379  0.6881 -0.6065
15984TIP3   OH269442   4.242   4.350  14.212 -0.1380 -0.5198 -0.1734
15984TIP3    H169443   4.248   4.359  14.307 -0.7130 -0.5250 -0.1304
15984TIP3    H269444   4.201   4.432  14.183 -0.4527 -0.7431 -0.3582
15985TIP3   OH269445   3.497   6.184   4.004 -0.1205  0.6827  0.1840
15985TIP3    H169446   3.468   6.110   3.953  1.4447  0.2217 -0.0809
15985TIP3    H269447   3.575   6.153   4.050  0.0186  1.8724  0.7952
15986TIP3   OH269448   0.927   0.153  14.914 -0.1883  0.3252 -0.6434
15986TIP3    H169449   0.837   0.126  14.898 -0.0137 -0.8788  0.3276
15986TIP3    H269450   0.950   0.112  14.997  1.5237 -0.0614 -1.2877
15987TIP3   OH269451   2.890   4.047  11.619  0.3553 -0.6635  0.4383
15987TIP3    H169452   2.862   4.086  11.537 -0.9162  2.3957  2.2200
15987TIP3    H269453   2.961   4.103  11.649  0.3565 -1.3315  1.7197
15988TIP3   OH269454   6.696   3.319  15.794  0.1008  0.0710  0.1147
15988TIP3    H169455   6.625   3.261  15.766 -0.6903  1.2202 -0.3313
15988TIP3    H269456   6.747   3.267  15.856  0.0551 -1.4697 -1.1052
15989TIP3   OH269457   4.541   6.084  13.721  0.3937 -0.4473 -0.0833
15989TIP3    H169458   4.582   6.170  13.720  1.3873 -0.8753  1.6059
15989TIP3    H269459   4.465   6.094  13.778  1.6411 -1.1514  1.7555
15990TIP3   OH269460   0.399   2.414  15.606 -0.0207 -0.0464  0.2175
15990TIP3    H169461   0.480   2.366  15.591  0.5168  0.9790 -0.1596
15990TIP3    H269462   0.360   2.371  15.683  0.1609 -1.4507 -0.4701
15991TIP3   OH269463   0.094   5.797   4.377 -0.3069 -0.0664  0.2470
15991TIP3    H169464   0.035   5.771   4.306  0.9569 -2.6439  0.1156
15991TIP3    H269465   0.059   5.755   4.455 -0.3416  0.8389  0.7261
15992TIP3   OH269466   2.742   3.121   1.683 -0.6836 -0.2805  0.5510
15992TIP3    H169467   2.802   3.150   1.614 -1.7120  2.0407  0.5940
15992TIP3    H269468   2.695   3.047   1.644  0.4299 -0.5326 -0.3603
15993TIP3   OH269469   6.457   6.267  16.109  0.2256 -0.3278 -0.6707
15993TIP3    H169470   6.362   6.273  16.121  0.2414  2.2486 -1.5710
15993TIP3    H269471   6.491   6.348  16.146  1.9345 -0.5065 -1.8038
15994TIP3   OH269472   6.504   6.238  13.047 -0.0294  0.6825 -0.0267
15994TIP3    H169473   6.550   6.322  13.047  2.2825 -0.5624  1.2546
15994TIP3    H269474   6.560   6.179  13.097  0.9292 -2.9960 -5.0587
15995TIP3   OH269475   1.567   0.285   2.523  0.4519 -0.3751 -0.4687
15995TIP3    H169476   1.579   0.305   2.431  1.2013 -1.3365 -0.5939
15995TIP3    H269477   1.644   0.232   2.546  1.0415  1.1214  1.0819
15996TIP3   OH269478   4.892   5.211   3.364  0.4454  0.3974 -0.0067
15996TIP3    H169479   4.808   5.221   3.408  1.0061 -0.7759  1.3669
15996TIP3    H269480   4.928   5.129   3.398  3.2016  2.0302  1.2494
15997TIP3   OH269481   2.987   6.403   5.477 -0.2433  0.0059  0.6806
15997TIP3    H169482   2.912   6.434   5.529 -0.2776 -2.6602  2.2825
15997TIP3    H269483   2.947   6.362   5.401 -0.3042  0.6702  0.3452
15998TIP3   OH269484   6.185   4.437  13.292 -0.1987  0.1272 -0.7257
15998TIP3    H169485   6.196   4.426  13.387  1.1429  0.6313 -0.8161
15998TIP3    H269486   6.095   4.469  13.283 -0.4430 -0.2051  0.3490
15999TIP3   OH269487   0.618   5.883  17.161  0.3237 -0.5761  0.9036
15999TIP3    H169488   0.697   5.854  17.114 -0.7926 -0.1523 -1.3267
15999TIP3    H269489   0.579   5.802  17.194 -0.4573 -1.2609 -1.5504
16000TIP3   OH269490   0.555   2.034   2.183  0.5274  0.5135  0.5167
16000TIP3    H169491   0.501   2.098   2.137 -0.1053  1.3032  2.3627
16000TIP3    H269492   0.512   1.950   2.166  0.0552  0.8485  0.0407
16001TIP3   OH269493   3.319   1.911   5.564  0.3691  0.2564  0.0522
16001TIP3    H169494   3.302   1.932   5.472 -1.4596  0.7458  0.4761
16001TIP3    H269495   3.247   1.852   5.589 -0.1929  1.5700  1.6407
16002TIP3   OH269496   3.351   3.698  10.811 -0.0021  1.0638  0.2272
16002TIP3    H169497   3.408   3.765  10.774  0.2317 -1.0607 -3.5249
16002TIP3    H269498   3.411   3.633  10.848 -0.0738  0.3475 -0.9102
16003TIP3   OH269499   5.842   4.453  14.785  0.7321  0.3322 -0.0040
16003TIP3    H169500   5.901   4.440  14.859  1.9209 -1.5126 -1.2407
16003TIP3    H269501   5.829   4.548  14.782  1.3152  0.4998  2.0618
16004TIP3   OH269502   1.954   5.013  12.778  0.3770  0.0800 -0.1857
16004TIP3    H169503   2.031   5.001  12.723  0.6111 -0.4146  0.2508
16004TIP3    H269504   1.885   5.039  12.717  0.6996 -0.2198 -0.6810
16005TIP3   OH269505   2.872   4.933  15.646  0.1143  0.0912 -0.1991
16005TIP3    H169506   2.895   4.919  15.738 -0.3412 -0.7032 -0.2027
16005TIP3    H269507   2.944   4.986  15.611 -0.4809  1.7117  0.9944
16006TIP3   OH269508   1.455   2.717   0.923 -0.0542  0.5333  0.6022
16006TIP3    H169509   1.436   2.782   0.857 -0.0715  0.3500  0.4257
16006TIP3    H269510   1.548   2.695   0.910 -0.4418 -0.5814 -0.3209
16007TIP3   OH269511   0.503   3.296   2.851 -0.1202  0.2636 -0.4478
16007TIP3    H169512   0.452   3.373   2.827  0.9036  0.6419 -1.4711
16007TIP3    H269513   0.591   3.330   2.867 -0.0411 -0.4640  0.7288
16008TIP3   OH269514   2.926   6.323   3.212  0.1377  0.0425 -0.2409
16008TIP3    H169515   2.834   6.295   3.219 -0.2953  1.1129 -1.3883
16008TIP3    H269516   2.934   6.394   3.276  0.0304  0.2929 -0.5066
16009TIP3   OH269517   5.592   6.789   1.231 -0.4499 -0.2934 -0.0468
16009TIP3    H169518   5.659   6.739   1.278  0.0947  1.1790  0.7980
16009TIP3    H269519   5.627   6.798   1.142 -0.1481 -0.6762  0.0305
16010TIP3   OH269520   6.516   0.947  10.948 -0.7279 -0.1648  0.0835
16010TIP3    H169521   6.606   0.928  10.973 -0.7539 -1.9767 -1.0350
16010TIP3    H269522   6.516   0.939  10.852 -1.8535  0.8404 -0.0121
16011TIP3   OH269523   0.805   4.165   3.381 -0.1593  0.1153 -1.1093
16011TIP3    H169524   0.793   4.101   3.311 -1.1939 -1.7554  0.7139
16011TIP3    H269525   0.889   4.141   3.420  0.0713  0.6909 -1.2590
16012TIP3   OH269526   3.555   2.081  16.909  0.2281  0.7997  0.5137
16012TIP3    H169527   3.580   1.988  16.900 -0.6210  0.4328  1.8217
16012TIP3    H269528   3.475   2.079  16.961 -0.0139  2.2596  0.2086
16013TIP3   OH269529   4.587   4.189  13.844 -0.1475 -0.0794  0.2697
16013TIP3    H169530   4.563   4.096  13.838 -2.5991  0.5397 -0.2274
16013TIP3    H269531   4.596   4.217  13.753 -0.8422  0.4939  0.3685
16014TIP3   OH269532   2.552   6.696  13.848  1.0979 -0.0795 -0.3474
16014TIP3    H169533   2.489   6.766  13.828  0.4550 -0.7556 -0.6853
16014TIP3    H269534   2.633   6.724  13.805  0.5535 -0.0579 -1.3704
16015TIP3   OH269535   2.772   5.354   5.018  0.3822  0.4633 -0.4344
16015TIP3    H169536   2.686   5.334   5.055  0.9334 -0.4883  0.3430
16015TIP3    H269537   2.811   5.415   5.080  0.6464  0.1569 -0.2989
16016TIP3   OH269538   1.593   3.595  11.112  0.4413  0.2830 -0.4320
16016TIP3    H169539   1.643   3.542  11.049 -1.4885 -0.7696 -1.1028
16016TIP3    H269540   1.573   3.533  11.183  0.4083  0.8103  0.0187
16017TIP3   OH269541   0.748   6.427   3.742 -0.0958 -0.3583 -0.2906
16017TIP3    H169542   0.766   6.520   3.730  0.2326 -0.5203 -1.0923
16017TIP3    H269543   0.655   6.418   3.721 -0.2887 -0.0997  0.4497
16018TIP3   OH269544   5.356   0.632   3.695 -0.3675  0.3213  0.3680
16018TIP3    H169545   5.342   0.723   3.670  0.6651  0.6818  1.0996
16018TIP3    H269546   5.396   0.636   3.782  0.0059 -0.8193  0.2646
16019TIP3   OH269547   2.571   3.092   2.013 -0.0078  0.1019  0.1700
16019TIP3    H169548   2.643   3.029   2.013 -0.0433  0.0609  0.1620
16019TIP3    H269549   2.538   3.091   1.923 -0.0045  0.1360  0.1686
16020TIP3   OH269550   5.815   6.819   2.560 -0.1608  0.5843 -0.2402
16020TIP3    H169551   5.787   6.794   2.648  0.6778  0.0699 -0.1173
16020TIP3    H269552   5.768   6.760   2.502  1.5836 -1.1185  0.0325
16021TIP3   OH269553   0.370   6.629   3.748 -0.6795  0.3431  0.0903
16021TIP3    H169554   0.408   6.550   3.786 -2.1062 -0.3975  0.0059
16021TIP3    H269555   0.315   6.665   3.817 -2.0985 -0.1879 -0.7425
16022TIP3   OH269556   2.997   5.032   0.258  0.8543 -0.4153  0.3677
16022TIP3    H169557   2.935   5.080   0.312  0.4149 -2.3221  1.6083
16022TIP3    H269558   2.978   4.940   0.276  1.0642 -1.0912 -2.6478
16023TIP3   OH269559   5.995   3.026   2.096  0.1409 -0.6998  0.1191
16023TIP3    H169560   5.935   3.089   2.056 -0.1960 -0.1199  1.5027
16023TIP3    H269561   6.077   3.038   2.049  0.2270  1.1384  0.7196
16024TIP3   OH269562   0.469   0.650   2.488  0.0426  0.8405  0.1406
16024TIP3    H169563   0.426   0.631   2.404  1.1307 -0.8167 -0.0418
16024TIP3    H269564   0.448   0.742   2.504 -2.0907  0.5632 -0.8236
16025TIP3   OH269565   2.339   2.932  12.231 -0.0129 -0.0317  0.3331
16025TIP3    H169566   2.300   3.018  12.223 -0.9162 -0.4514  0.1910
16025TIP3    H269567   2.321   2.905  12.321 -0.8043 -0.5778  0.0213
16026TIP3   OH269568   3.107   3.984  12.838 -0.1484 -0.3760  0.0643
16026TIP3    H169569   3.183   4.020  12.883 -0.0475  0.6906 -0.9304
16026TIP3    H269570   3.139   3.904  12.796  0.0565 -0.7125  0.8713
16027TIP3   OH269571   3.661   3.405   0.676  0.4337  0.6902 -0.0173
16027TIP3    H169572   3.750   3.402   0.642  1.0873  2.6245  1.4389
16027TIP3    H269573   3.645   3.317   0.710  1.4344  0.0810 -1.0894
16028TIP3   OH269574   0.699   0.525  14.225  0.0742 -0.3405  0.3644
16028TIP3    H169575   0.646   0.594  14.266 -0.0614 -1.7045  2.5885
16028TIP3    H269576   0.673   0.445  14.272 -0.0532 -1.9812 -2.4145
16029TIP3   OH269577   4.217   4.783  16.125 -0.5950  0.0927 -0.1340
16029TIP3    H169578   4.219   4.690  16.148 -0.3942 -0.0726 -0.8224
16029TIP3    H269579   4.259   4.827  16.199  1.1202 -0.5476 -0.7124
16030TIP3   OH269580   6.046   3.413   5.561 -0.1766  0.7311  0.3527
16030TIP3    H169581   6.005   3.404   5.475 -1.4266 -0.2665  1.0430
16030TIP3    H269582   6.103   3.489   5.552  1.0608 -0.3896 -1.8881
16031TIP3   OH269583   6.728   0.765  15.233  0.4689 -0.1394  0.1048
16031TIP3    H169584   6.651   0.804  15.191  0.5238  0.2256  0.3441
16031TIP3    H269585   6.763   0.834  15.289  1.1430 -0.2081 -0.2205
16032TIP3   OH269586   1.883   4.558   1.705  0.0348  0.5269  0.1113
16032TIP3    H169587   1.911   4.550   1.796 -1.4230  1.6464  0.6902
16032TIP3    H269588   1.959   4.533   1.654  0.4907 -1.3198  1.6389
16033TIP3   OH269589   5.551   2.592  16.353 -0.4344 -0.2556  0.6228
16033TIP3    H169590   5.581   2.501  16.354  2.3986  0.6237  1.4241
16033TIP3    H269591   5.456   2.587  16.362 -0.2564 -3.1089  1.1675
16034TIP3   OH269592   0.023   6.639  15.282 -0.2762  0.0122  0.2634
16034TIP3    H169593   0.098   6.592  15.244  0.3569  0.8320  0.4750
16034TIP3    H269594   0.021   6.722  15.234 -2.9130 -1.2172 -1.8623
16035TIP3   OH269595   1.475   5.673  13.931 -0.0985  0.1037 -0.1389
16035TIP3    H169596   1.421   5.719  13.996  1.0804  1.7510 -0.2858
16035TIP3    H269597   1.430   5.686  13.848 -0.3624  0.0520 -0.0014
16036TIP3   OH269598   2.847   4.068  12.776  0.1994  0.1057  0.5361
16036TIP3    H169599   2.833   4.015  12.698 -0.5202 -0.5649  1.1058
16036TIP3    H269600   2.929   4.115  12.759 -0.0031  0.0498 -0.6531
16037TIP3   OH269601   1.986   0.644   3.573  0.0508  0.5072 -0.5015
16037TIP3    H169602   2.021   0.559   3.545 -1.2852  0.0459 -0.8430
16037TIP3    H269603   1.917   0.663   3.509 -1.3380  0.6400  0.9999
16038TIP3   OH269604   1.398   4.181  10.509  0.9545 -0.5086  0.6364
16038TIP3    H169605   1.483   4.140  10.497  1.2928  0.6440 -1.2248
16038TIP3    H269606   1.401   4.258  10.452 -1.2456 -0.3404  0.7063
16039TIP3   OH269607   3.818   3.740   2.113 -0.4361  0.6888  0.2250
16039TIP3    H169608   3.894   3.799   2.117  0.2392 -0.2224  1.2239
16039TIP3    H269609   3.856   3.652   2.106 -1.4147  0.2588  0.2224
16040TIP3   OH269610   6.645   0.991   1.805  0.4896 -0.3803 -0.1949
16040TIP3    H169611   6.689   1.046   1.869  1.0047  1.3428 -2.0086
16040TIP3    H269612   6.617   1.051   1.736  0.3869 -2.2659 -1.8485
16041TIP3   OH269613   0.485   3.707  14.940 -0.1030 -0.4143 -0.2045
16041TIP3    H169614   0.435   3.785  14.966  0.5380 -0.5432  1.4633
16041TIP3    H269615   0.437   3.634  14.978 -0.3007 -0.7834 -1.1594
16042TIP3   OH269616   1.427   2.148   0.880  0.7611 -0.3831 -0.5099
16042TIP3    H169617   1.466   2.131   0.794  0.1986  0.1459 -0.8751
16042TIP3    H269618   1.378   2.229   0.868 -1.4791 -1.6944 -0.3992
16043TIP3   OH269619   3.036   3.856   3.712  0.2244 -0.0159  0.1492
16043TIP3    H169620   3.033   3.781   3.772  0.0720 -0.1539 -0.0318
16043TIP3    H269621   3.120   3.897   3.730  0.2949 -0.2137  0.2733
16044TIP3   OH269622   6.006   2.007   2.734 -0.1837  0.1179  0.5504
16044TIP3    H169623   6.037   2.090   2.772 -0.6925  0.4191  0.3189
16044TIP3    H269624   5.963   2.033   2.653  0.8270 -0.5116 -0.2076
16045TIP3   OH269625   1.585   4.598   4.098  0.7049  0.2110  0.0729
16045TIP3    H169626   1.567   4.664   4.031 -0.2734  0.2388  0.3504
16045TIP3    H269627   1.501   4.587   4.144  1.5203  0.6491  1.7027
16046TIP3   OH269628   1.644   2.188  11.552 -0.2628 -0.3143  0.4633
16046TIP3    H169629   1.671   2.148  11.469 -1.3068 -0.7281  0.3161
16046TIP3    H269630   1.724   2.192  11.604  0.1337 -1.2647 -0.0660
16047TIP3   OH269631   0.367   0.914   2.899 -0.1060  0.5212 -0.0917
16047TIP3    H169632   0.281   0.955   2.907 -1.4704 -2.0371 -1.0828
16047TIP3    H269633   0.373   0.858   2.977 -0.1391 -0.6946 -0.9522
16048TIP3   OH269634   6.737   6.106  16.189 -0.0598 -0.1651  0.3400
16048TIP3    H169635   6.646   6.113  16.162 -0.2991 -2.1967  0.5938
16048TIP3    H269636   6.742   6.157  16.270 -0.3652  2.0875 -0.9984
16049TIP3   OH269637   0.425   5.837   0.772 -0.0160  0.2526  0.1507
16049TIP3    H169638   0.376   5.763   0.809  0.5466  0.1661  0.7267
16049TIP3    H269639   0.447   5.891   0.847 -0.9064  1.3137 -0.3339
16050TIP3   OH269640   0.307   2.143   5.396  0.5630 -0.2036 -0.1703
16050TIP3    H169641   0.257   2.094   5.462 -0.7324  2.3656  0.8279
16050TIP3    H269642   0.269   2.115   5.313 -0.7647 -0.2533  0.4273
16051TIP3   OH269643   1.597   1.246   3.604  0.1090 -0.4322  0.4930
16051TIP3    H169644   1.595   1.159   3.643 -1.5691 -0.8824 -0.5574
16051TIP3    H269645   1.512   1.284   3.625 -0.2393 -0.1084 -1.4101
16052TIP3   OH269646   4.360   0.024  13.436  0.0232  0.3001 -0.2082
16052TIP3    H169647   4.279   0.037  13.486 -0.7057 -0.2921 -1.2095
16052TIP3    H269648   4.330  -0.002  13.349  1.2856  1.0678 -0.8800
16053TIP3   OH269649   1.763   4.104   5.513 -0.0263 -0.1083  0.4900
16053TIP3    H169650   1.802   4.018   5.495  1.2855  0.5688  0.0304
16053TIP3    H269651   1.772   4.115   5.608 -0.8377 -0.7687  0.6537
16054TIP3   OH269652   2.458   2.633  15.711  0.1482 -0.3480  0.1482
16054TIP3    H169653   2.447   2.606  15.802 -1.7187 -0.1850 -0.0028
16054TIP3    H269654   2.484   2.553  15.665  1.6293 -0.3130  0.8994
16055TIP3   OH269655   5.061   3.145   2.280 -0.2145  0.2686  0.1588
16055TIP3    H169656   4.967   3.151   2.263 -1.4022 -2.7367  4.7348
16055TIP3    H269657   5.081   3.225   2.328  0.0247  1.7780 -2.3784
16056TIP3   OH269658   3.711   6.008  15.816  0.1425 -0.3729  0.0662
16056TIP3    H169659   3.617   6.006  15.836  0.3462  0.7280  1.2038
16056TIP3    H269660   3.723   6.088  15.765  0.0901 -1.7278 -2.1235
16057TIP3   OH269661   5.718   3.728  11.442  0.4049  0.5479 -0.3864
16057TIP3    H169662   5.735   3.773  11.359  2.3826  0.9146  0.2051
16057TIP3    H269663   5.706   3.637  11.418 -0.0935  0.8148 -1.1904
16058TIP3   OH269664   0.177   2.437  11.797 -0.4451 -0.1733 -0.5689
16058TIP3    H169665   0.125   2.512  11.825  1.0621  1.3239 -1.6746
16058TIP3    H269666   0.265   2.454  11.832  0.0285 -1.1779 -1.2289
16059TIP3   OH269667   1.303   4.420  11.206 -0.1350 -0.6618  0.2575
16059TIP3    H169668   1.278   4.340  11.251 -0.6137  0.2151  1.5744
16059TIP3    H269669   1.220   4.455  11.171  0.1965 -1.2146 -1.1195
16060TIP3   OH269670   4.336   6.180  16.373  0.5043  0.5881 -0.5137
16060TIP3    H169671   4.426   6.198  16.399  0.3950  1.1624 -0.5323
16060TIP3    H269672   4.338   6.088  16.344  1.2125  0.7689 -1.0734
16061TIP3   OH269673   2.894   5.989   4.328 -0.0753  0.1235 -0.3018
16061TIP3    H169674   2.916   5.975   4.236 -0.7679  0.7300 -0.5701
16061TIP3    H269675   2.925   6.077   4.347 -0.8722  0.4056 -0.2643
16062TIP3   OH269676   5.974   1.779   0.028 -0.4667 -0.5382  0.0282
16062TIP3    H169677   5.941   1.732   0.104 -1.1398 -1.7971 -1.0253
16062TIP3    H269678   6.054   1.821   0.058 -0.8437 -0.8407  1.4828
16063TIP3   OH269679   4.865   1.992   0.469 -0.0749  0.5730 -0.3944
16063TIP3    H169680   4.947   1.973   0.515 -0.8900  1.4194  1.4627
16063TIP3    H269681   4.888   2.059   0.405  0.6110  1.1113  0.4058
16064TIP3   OH269682   4.976   3.570  13.458 -0.1032 -0.6957 -0.0470
16064TIP3    H169683   4.918   3.566  13.382 -2.4910 -3.2266  1.8620
16064TIP3    H269684   4.922   3.606  13.528  0.9930 -1.9155  1.4431
16065TIP3   OH269685   1.699   2.311   0.996 -0.3800 -0.2307 -0.0081
16065TIP3    H169686   1.685   2.356   0.913  0.8112 -0.5428 -0.3891
16065TIP3    H269687   1.612   2.302   1.034 -0.7268  1.6030 -0.3366
16066TIP3   OH269688   6.466   6.328   1.071  0.8018  0.1118  0.2320
16066TIP3    H169689   6.548   6.350   1.026  0.4630 -0.6752 -0.8012
16066TIP3    H269690   6.398   6.346   1.006  0.2816 -0.7349  0.5360
16067TIP3   OH269691   5.837   6.155  13.949 -0.2567 -0.3466 -0.3657
16067TIP3    H169692   5.913   6.211  13.966  0.1816 -0.7272 -1.0262
16067TIP3    H269693   5.769   6.214  13.918 -0.6128  0.1623  1.3164
16068TIP3   OH269694   2.557   4.321  12.777  0.4364  0.6396 -0.0434
16068TIP3    H169695   2.525   4.405  12.812  2.1163  1.4620 -0.4384
16068TIP3    H269696   2.600   4.279  12.852 -0.8791 -0.1401  0.2958
16069TIP3   OH269697   5.129   5.785  14.730 -0.0375  0.2999  0.2778
16069TIP3    H169698   5.065   5.825  14.789  0.4223  0.8185  0.4213
16069TIP3    H269699   5.119   5.833  14.648 -0.1984  0.0272  0.1347
16070TIP3   OH269700   5.246   4.636  11.297 -0.7009 -0.4862 -0.0336
16070TIP3    H169701   5.203   4.578  11.234 -1.0918 -0.6336  0.3616
16070TIP3    H269702   5.332   4.654  11.259 -1.2061  0.0136 -0.9598
16071TIP3   OH269703   5.428   4.569  16.350 -0.2356 -0.1425 -0.5251
16071TIP3    H169704   5.499   4.507  16.332 -0.7624 -0.6172 -0.9969
16071TIP3    H269705   5.349   4.525  16.318 -0.5600  0.9398 -1.2297
16072TIP3   OH269706   5.768   3.595  14.507  0.0480  0.2540  0.6312
16072TIP3    H169707   5.676   3.620  14.505  0.2982  1.1027 -2.1593
16072TIP3    H269708   5.804   3.625  14.424  2.5979 -1.0654  1.1703
16073TIP3   OH269709   0.092   1.492  14.903 -0.3228  0.2268  0.0362
16073TIP3    H169710   0.143   1.448  14.971  1.7082  1.7948 -0.4046
16073TIP3    H269711   0.032   1.425  14.870 -1.9408 -0.3295  3.8950
16074TIP3   OH269712   3.866   0.161   3.997  0.2075  0.2964  0.3852
16074TIP3    H169713   3.837   0.249   4.022 -1.3259 -0.2281  0.5354
16074TIP3    H269714   3.837   0.151   3.906 -1.7435 -0.9085  1.1119
16075TIP3   OH269715   1.254   1.647  10.498  0.2217  0.2862  0.5645
16075TIP3    H169716   1.308   1.634  10.420  0.2885  0.5978  0.5557
16075TIP3    H269717   1.268   1.739  10.521  0.2035  0.1961  0.9438
16076TIP3   OH269718   3.296   4.111  10.515  0.0820 -0.3417  0.2000
16076TIP3    H169719   3.357   4.080  10.448  0.7070  1.0321  0.1019
16076TIP3    H269720   3.336   4.192  10.548 -0.6485 -0.5371  1.6188
16077TIP3   OH269721   5.327   6.307  12.415  0.8608  0.0310  0.3181
16077TIP3    H169722   5.264   6.243  12.382  0.8640  0.7671 -1.1595
16077TIP3    H269723   5.279   6.389  12.417  1.9326  0.7147 -1.3892
16078TIP3   OH269724   0.736   1.982   1.833 -0.5209 -0.5006  0.2176
16078TIP3    H169725   0.745   2.035   1.754  0.2961 -2.6518 -1.1819
16078TIP3    H269726   0.823   1.984   1.873 -0.2259 -1.5210 -0.3472
16079TIP3   OH269727   3.584   2.813  10.986 -0.3172 -0.3271 -0.0971
16079TIP3    H169728   3.556   2.831  10.896  0.0846 -1.6646 -0.4867
16079TIP3    H269729   3.516   2.854  11.040 -0.7227  0.2181 -1.0074
16080TIP3   OH269730   4.822   2.645   0.371  0.6726 -0.6843 -0.4621
16080TIP3    H169731   4.734   2.664   0.337  0.2310 -0.6265  0.7068
16080TIP3    H269732   4.869   2.728   0.363  0.1892 -0.3435  0.2196
16081TIP3   OH269733   4.136   6.207   2.366 -0.7698  0.0801 -0.1873
16081TIP3    H169734   4.053   6.182   2.407 -1.3373 -1.1020 -2.0294
16081TIP3    H269735   4.195   6.133   2.382 -0.2043  0.7016  0.6752
16082TIP3   OH269736   0.351   4.144   3.382 -0.8153 -0.4469 -0.5452
16082TIP3    H169737   0.430   4.115   3.428 -1.0028 -2.1951 -1.2699
16082TIP3    H269738   0.373   4.231   3.350  0.2700 -0.2890  0.5669
16083TIP3   OH269739   5.641   6.554   2.685 -0.2029 -0.3104 -0.2876
16083TIP3    H169740   5.702   6.520   2.619  0.6617  1.4050 -0.3947
16083TIP3    H269741   5.555   6.524   2.656  0.1640  0.4093 -2.2155
16084TIP3   OH269742   0.086   2.652   3.604  0.7699  0.5129  0.4548
16084TIP3    H169743   0.154   2.585   3.599  0.5306  0.2356  0.9128
16084TIP3    H269744   0.049   2.655   3.516  0.5712 -0.1772  0.5147
16085TIP3   OH269745   1.045   1.455   3.953  0.4519  0.8068  0.0364
16085TIP3    H169746   1.014   1.545   3.969  1.8194  0.8380  2.9066
16085TIP3    H269747   0.965   1.404   3.943 -0.3754  2.1090 -0.2188
16086TIP3   OH269748   2.759   6.230   6.165  0.0564 -0.3847 -0.3734
16086TIP3    H169749   2.728   6.230   6.255 -2.4250  0.7132 -1.1872
16086TIP3    H269750   2.688   6.189   6.115  0.6649  0.5496 -2.0592
16087TIP3   OH269751   4.478   4.440   4.743  0.3945 -0.4197 -0.0079
16087TIP3    H169752   4.495   4.442   4.649  0.8690  1.0457  0.0961
16087TIP3    H269753   4.563   4.458   4.783 -0.3775  2.0345  0.6289
16088TIP3   OH269754   1.013   3.746   3.383  0.5048 -0.3879  0.4184
16088TIP3    H169755   1.065   3.692   3.443  1.8046 -0.4752 -0.7776
16088TIP3    H269756   1.024   3.705   3.298  2.1077  2.1311 -0.6655
16089TIP3   OH269757   3.230   3.725   2.332 -0.3674 -0.1712  0.2719
16089TIP3    H169758   3.248   3.657   2.267  1.3259 -0.3098  0.8633
16089TIP3    H269759   3.180   3.791   2.284 -0.2846 -0.8852 -0.8239
16090TIP3   OH269760   0.525   4.997  13.924  0.2885 -0.6083  0.6427
16090TIP3    H169761   0.541   4.905  13.904 -1.8754 -1.1327  1.2284
16090TIP3    H269762   0.479   5.031  13.848 -1.2213 -0.6887  1.5000
16091TIP3   OH269763   1.312   5.821  14.108  0.1998 -0.2746 -0.7968
16091TIP3    H169764   1.311   5.907  14.150 -0.1002 -0.7273  0.1519
16091TIP3    H269765   1.254   5.830  14.033 -0.0382  0.2837 -0.5505
16092TIP3   OH269766   4.150   3.363   0.969 -0.1580 -0.3243  0.0360
16092TIP3    H169767   4.184   3.398   0.887  0.4287 -0.1537  0.3424
16092TIP3    H269768   4.078   3.306   0.944  0.9905 -1.4672 -0.7156
16093TIP3   OH269769   3.623   6.125   0.189  0.0660  0.0149  0.0786
16093TIP3    H169770   3.696   6.088   0.140 -1.2066 -0.9759 -1.0778
16093TIP3    H269771   3.589   6.195   0.133 -1.1537 -0.8779 -0.3243
16094TIP3   OH269772   4.886   6.777   6.231  0.4538  0.2937  0.4403
16094TIP3    H169773   4.859   6.747   6.144  0.0129  1.5572  0.1240
16094TIP3    H269774   4.805   6.781   6.281  0.6120  0.2457  0.6998
16095TIP3   OH269775   2.007   3.655   6.441  0.3880  0.2377 -0.1531
16095TIP3    H169776   2.089   3.691   6.408  0.3609  1.6526  1.2817
16095TIP3    H269777   1.944   3.728   6.434 -0.6152 -0.6592 -0.7173
16096TIP3   OH269778   2.238   2.406   4.199 -0.2137 -0.0777  0.0515
16096TIP3    H169779   2.250   2.455   4.281  1.3494 -1.1396  0.4818
16096TIP3    H269780   2.160   2.353   4.213  0.3307 -0.6202  1.0386
16097TIP3   OH269781   3.977   2.295  11.834 -0.2850  0.2029 -0.5509
16097TIP3    H169782   4.072   2.303  11.825 -0.2912 -0.3990 -1.1956
16097TIP3    H269783   3.942   2.366  11.780 -0.1949  0.9569  0.3632
16098TIP3   OH269784   1.593   5.669   6.198 -0.1890  0.4346 -0.0045
16098TIP3    H169785   1.539   5.720   6.259  3.1779  1.2308  2.4192
16098TIP3    H269786   1.571   5.578   6.217 -2.1234  0.7716 -0.4792
16099TIP3   OH269787   5.146   3.221  14.290 -0.1383 -0.4465 -0.1788
16099TIP3    H169788   5.168   3.228  14.382 -5.2473 -2.3493  1.3832
16099TIP3    H269789   5.137   3.312  14.260  1.8970  0.1794  1.0602
16100TIP3   OH269790   5.466   5.244  13.233 -0.1838 -0.0739 -0.6284
16100TIP3    H169791   5.440   5.215  13.321 -0.4247  0.6625 -0.4539
16100TIP3    H269792   5.383   5.263  13.189  0.0081  1.3679 -0.3892
16101TIP3   OH269793   5.877   0.776   3.923 -0.2641 -0.0138 -0.1141
16101TIP3    H169794   5.876   0.700   3.980  0.4181  0.5847  0.7059
16101TIP3    H269795   5.790   0.815   3.933 -0.2913 -0.1516  0.1776
16102TIP3   OH269796   5.039   0.947  13.082 -0.2247  0.1379  0.3467
16102TIP3    H169797   5.020   1.005  13.008  2.3331 -1.5908 -1.7497
16102TIP3    H269798   4.958   0.899  13.096 -0.2822 -0.6973 -2.4807
16103TIP3   OH269799   2.587   4.397  11.963  0.3311  0.0045 -0.7534
16103TIP3    H169800   2.535   4.323  11.931  0.3602  0.1109 -1.0491
16103TIP3    H269801   2.677   4.375  11.939  0.5512 -0.6116  0.5638
16104TIP3   OH269802   4.909   2.507   1.338  0.0330  0.4427 -0.1880
16104TIP3    H169803   4.977   2.527   1.274  1.8162  0.0790  1.5192
16104TIP3    H269804   4.862   2.433   1.301  0.2755  0.9976 -1.6162
16105TIP3   OH269805   5.687   4.205   5.813 -0.3055 -0.1209 -0.1900
16105TIP3    H169806   5.772   4.224   5.852 -0.2210 -0.1277 -0.3692
16105TIP3    H269807   5.626   4.203   5.887  0.0615 -1.3626  0.0951
16106TIP3   OH269808   3.695   4.197   5.008  0.3648 -0.3186  0.1268
16106TIP3    H169809   3.742   4.280   5.009  0.4337 -0.3272 -1.6198
16106TIP3    H269810   3.759   4.132   5.035  0.5172  0.0862  0.7455
16107TIP3   OH269811   2.975   3.998   4.410 -0.4933  0.1848  0.1564
16107TIP3    H169812   3.005   4.089   4.407  0.6334 -0.2246 -1.6842
16107TIP3    H269813   2.881   4.004   4.396 -0.4438  1.0777  0.1685
16108TIP3   OH269814   4.745   5.194   3.709 -0.8784 -0.1387 -0.1924
16108TIP3    H169815   4.699   5.202   3.626 -2.0810 -1.2966  0.3426
16108TIP3    H269816   4.742   5.101   3.730  1.9221 -0.2823 -0.2402
16109TIP3   OH269817   1.615   1.088  12.146 -0.0421  0.5857 -0.0572
16109TIP3    H169818   1.646   1.111  12.233 -0.8315 -0.6894  0.5769
16109TIP3    H269819   1.694   1.061  12.098  0.0250 -1.5475  1.1932
16110TIP3   OH269820   2.286   4.211  11.395  0.2766  0.4368  0.3153
16110TIP3    H169821   2.289   4.264  11.315  1.2331  1.0455  0.7393
16110TIP3    H269822   2.270   4.274  11.465 -2.7277 -0.3530  0.3900
16111TIP3   OH269823   6.541   0.645   3.153 -0.0913  0.1410 -0.1490
16111TIP3    H169824   6.528   0.653   3.058 -0.7961 -0.9963 -0.1637
16111TIP3    H269825   6.510   0.557   3.173 -0.4102  0.5672  1.2240
16112TIP3   OH269826   0.879   3.549  16.597  0.5511  0.4520  0.0680
16112TIP3    H169827   0.885   3.470  16.651 -2.7247  0.4888  0.6428
16112TIP3    H269828   0.841   3.615  16.656 -1.0905  1.0949 -1.6729
16113TIP3   OH269829   4.636   0.283   4.629 -0.0539 -0.1423  0.4664
16113TIP3    H169830   4.593   0.228   4.563  0.1374 -0.2392  0.4221
16113TIP3    H269831   4.692   0.223   4.677 -1.8687 -0.5029  2.1763
16114TIP3   OH269832   0.177   1.143  15.562 -0.0360  0.0468  0.2386
16114TIP3    H169833   0.263   1.102  15.562  0.0030  0.1276 -0.1083
16114TIP3    H269834   0.181   1.208  15.632 -1.5283 -3.5159  3.7977
16115TIP3   OH269835   2.434   0.587  15.776  0.3132 -0.2192 -0.5133
16115TIP3    H169836   2.459   0.634  15.696 -1.5403  0.8665 -0.4821
16115TIP3    H269837   2.441   0.652  15.846  0.3452 -0.7197 -0.0481
16116TIP3   OH269838   3.353   2.920  10.805 -0.2808  0.0519  0.1550
16116TIP3    H169839   3.440   2.957  10.820 -0.6849  0.6691  1.0320
16116TIP3    H269840   3.348   2.906  10.711  1.0042 -0.5605  0.1693
16117TIP3   OH269841   3.518   3.015  17.182 -0.0268  0.2937 -0.1691
16117TIP3    H169842   3.530   3.014  17.277  0.0418 -0.9234 -0.1872
16117TIP3    H269843   3.563   3.095  17.154 -0.9002  1.1898  0.9271
16118TIP3   OH269844   2.253   5.634  12.805 -0.6771  0.4084 -0.8554
16118TIP3    H169845   2.211   5.547  12.804 -0.3493  0.2605 -1.8139
16118TIP3    H269846   2.182   5.695  12.787 -0.3699  0.1063 -3.1484
16119TIP3   OH269847   1.424   3.263  12.649  0.9529  0.5565  0.2313
16119TIP3    H169848   1.423   3.216  12.566  0.4014  1.2500 -0.1635
16119TIP3    H269849   1.430   3.356  12.625 -0.5911  0.8599  0.8977
16120TIP3   OH269850   2.597   0.763  16.933  0.1255  0.4490  0.1664
16120TIP3    H169851   2.650   0.707  16.876  1.9598  0.9276  1.3320
16120TIP3    H269852   2.642   0.848  16.931  1.4674 -0.0922  3.9250
16121TIP3   OH269853   1.327   0.968  16.774  0.7183 -0.0154  0.3689
16121TIP3    H169854   1.336   0.873  16.783 -0.3029 -0.3096 -1.4605
16121TIP3    H269855   1.235   0.986  16.793  0.1196  0.1556 -2.4308
16122TIP3   OH269856   4.628   5.714   0.711 -0.7938 -0.2874 -0.5081
16122TIP3    H169857   4.583   5.645   0.662 -1.5847  0.1511 -0.4064
16122TIP3    H269858   4.710   5.673   0.740 -0.6094 -0.7570 -1.6427
16123TIP3   OH269859   0.307   4.537  15.512  0.3676 -0.1618  0.6718
16123TIP3    H169860   0.228   4.575  15.550  0.7543  0.3348  0.9752
16123TIP3    H269861   0.362   4.515  15.587  0.9565  0.4460  0.4210
16124TIP3   OH269862   4.948   1.714   0.912 -0.1313  0.1112 -0.0077
16124TIP3    H169863   5.037   1.733   0.941 -0.0646 -0.9563  0.5187
16124TIP3    H269864   4.946   1.619   0.903 -1.3202  0.1010  0.3184
16125TIP3   OH269865   1.534   1.404  16.294  0.1409 -0.4254  0.1472
16125TIP3    H169866   1.523   1.358  16.378  0.3944 -1.1542 -0.2127
16125TIP3    H269867   1.499   1.491  16.310  1.1929 -0.2036  1.3353
16126TIP3   OH269868   2.557   4.152   1.505  0.5310 -0.2381 -0.2500
16126TIP3    H169869   2.576   4.240   1.535  0.8506 -0.9654  1.7725
16126TIP3    H269870   2.469   4.158   1.468  0.6367  0.9645 -0.3232
16127TIP3   OH269871   0.800   5.534  17.081  0.0837  0.4639 -0.0022
16127TIP3    H169872   0.723   5.505  17.129  0.3327 -2.0547 -1.0250
16127TIP3    H269873   0.774   5.616  17.039 -1.4039  0.6147  1.1869
16128TIP3   OH269874   1.714   6.644  12.960  0.0055  0.0064  0.0220
16128TIP3    H169875   1.673   6.593  12.890 -0.9701 -1.0389  1.3182
16128TIP3    H269876   1.774   6.583  13.003 -0.6413  0.1243  1.1359
16129TIP3   OH269877   0.106   1.374   1.977 -0.0547  0.2694  0.8057
16129TIP3    H169878   0.148   1.337   2.054  0.2849 -0.9626  0.0387
16129TIP3    H269879   0.166   1.442   1.947  0.2359  0.1393  1.0930
16130TIP3   OH269880   3.740   5.291   2.301 -0.5886 -0.1922 -0.1357
16130TIP3    H169881   3.833   5.290   2.324 -0.0595 -3.3772 -2.1183
16130TIP3    H269882   3.694   5.271   2.383  0.5406  0.2082  0.5997
16131TIP3   OH269883   3.084   0.986  11.980  0.6638 -0.2015  0.1777
16131TIP3    H169884   3.009   1.040  11.953 -0.7603 -2.2762 -0.1438
16131TIP3    H269885   3.160   1.030  11.942 -0.0507  3.3770  2.6430
16132TIP3   OH269886   2.244   1.157  10.981  0.6570  0.2764 -0.4220
16132TIP3    H169887   2.323   1.108  10.960  0.6591  0.2649 -0.3872
16132TIP3    H269888   2.244   1.163  11.076 -1.2370 -2.9183 -0.1265
16133TIP3   OH269889   1.678   4.090   0.215 -0.3655  0.3010  0.3933
16133TIP3    H169890   1.616   4.161   0.231 -1.5699 -0.5241 -0.4708
16133TIP3    H269891   1.626   4.023   0.171  1.5494  0.2668 -1.8683
16134TIP3   OH269892   0.284   6.062  11.037  0.6856  0.1617  0.0318
16134TIP3    H169893   0.356   6.124  11.030  0.5861  0.2696 -0.0251
16134TIP3    H269894   0.213   6.101  10.987  0.1674  0.6607  1.1298
16135TIP3   OH269895   3.274   4.616   3.552  0.0299 -0.8256 -0.0366
16135TIP3    H169896   3.315   4.571   3.625 -0.5863 -3.1428 -1.0320
16135TIP3    H269897   3.209   4.674   3.592  1.1119 -0.5469  1.3214
16136TIP3   OH269898   5.115   4.917  15.197 -0.1769  0.2583  0.3543
16136TIP3    H169899   5.091   4.880  15.282  1.5371 -0.8252  0.4093
16136TIP3    H269900   5.203   4.953  15.211  0.0510  0.2036 -0.9148
16137TIP3   OH269901   0.170   2.865   4.477 -0.0985 -0.2948 -0.6735
16137TIP3    H169902   0.195   2.953   4.449 -1.9824  0.7887  0.8910
16137TIP3    H269903   0.180   2.867   4.572 -3.6084 -0.5849 -0.2452
16138TIP3   OH269904   3.733   6.694   2.338 -0.0742 -0.2177 -0.1323
16138TIP3    H169905   3.723   6.732   2.425  2.4228  0.3816 -0.0703
16138TIP3    H269906   3.737   6.600   2.353  1.8310 -0.0398  0.5759
16139TIP3   OH269907   4.316   2.196   0.767  0.0813  0.9509 -0.1320
16139TIP3    H169908   4.231   2.203   0.724  0.2839  1.7925 -0.3984
16139TIP3    H269909   4.304   2.126   0.832 -0.4281  0.1857 -1.0498
16140TIP3   OH269910   6.568   3.340   1.695 -0.4029  0.0214 -0.0946
16140TIP3    H169911   6.623   3.311   1.622  0.9646  0.4540  0.7668
16140TIP3    H269912   6.626   3.391   1.751 -1.3291 -0.7414  1.5837
16141TIP3   OH269913   5.293   1.033  13.060  0.1704  0.4290 -0.3211
16141TIP3    H169914   5.297   1.105  13.124 -0.6077 -0.7231  1.0672
16141TIP3    H269915   5.202   1.003  13.064  0.7911 -1.4470  0.0540
16142TIP3   OH269916   1.857   6.211  15.947  0.4774  0.2035  0.0718
16142TIP3    H169917   1.803   6.209  15.868  0.8513  1.0017 -0.2148
16142TIP3    H269918   1.912   6.133  15.940 -0.2753 -0.3310  0.1071
16143TIP3   OH269919   3.780   5.954  11.963  0.0098  0.0922  0.0018
16143TIP3    H169920   3.767   6.007  12.041 -2.1020  0.4014 -0.5273
16143TIP3    H269921   3.778   5.863  11.994  1.3897  0.2642  0.5972
16144TIP3   OH269922   1.993   6.276  14.840 -0.4511  0.6123 -0.2879
16144TIP3    H169923   2.011   6.299  14.749 -0.4179  0.0004 -0.4362
16144TIP3    H269924   2.072   6.303  14.887 -0.3277  0.6093 -0.4917
16145TIP3   OH269925   3.604   6.329  14.635  0.2968 -0.5001  0.3057
16145TIP3    H169926   3.594   6.302  14.726 -0.3766  1.0173  0.7003
16145TIP3    H269927   3.521   6.372  14.613 -0.3243 -2.5560 -1.6584
16146TIP3   OH269928   0.938   1.026   4.576 -0.0563  0.1197 -0.5057
16146TIP3    H169929   0.898   0.994   4.495  2.3672 -1.8118 -1.0103
16146TIP3    H269930   0.948   1.120   4.563 -4.1085  0.6568 -0.4436
16147TIP3   OH269931   4.987   1.518  13.225  0.3601  0.1520  0.1763
16147TIP3    H169932   4.932   1.467  13.284 -1.3123  0.6554 -0.9177
16147TIP3    H269933   4.933   1.531  13.147  2.8080 -1.1971 -1.8205
16148TIP3   OH269934   2.958   1.554  13.908 -0.0786  0.5116 -0.3727
16148TIP3    H169935   3.030   1.614  13.925  0.0704  0.1452  0.3191
16148TIP3    H269936   2.916   1.542  13.993 -0.9650  0.7332 -0.7731
16149TIP3   OH269937   3.557   5.470  14.519 -0.5727  0.5855  0.1116
16149TIP3    H169938   3.650   5.470  14.544 -0.3840  2.0984 -0.4940
16149TIP3    H269939   3.536   5.563  14.507 -1.7421  0.1522 -1.3151
16150TIP3   OH269940   1.142   5.593  11.022 -0.0428 -0.0190  0.5065
16150TIP3    H169941   1.182   5.550  11.098 -0.3471  0.1007  0.7348
16150TIP3    H269942   1.048   5.579  11.033 -0.0876 -0.0342  0.1303
16151TIP3   OH269943   4.252   4.593   1.943 -0.1424  0.5134  0.2817
16151TIP3    H169944   4.340   4.565   1.918 -0.1127  0.6552  0.2264
16151TIP3    H269945   4.225   4.651   1.872 -0.5652 -0.1001 -0.0670
16152TIP3   OH269946   6.741   5.031   4.984 -0.2824 -0.0570  0.1765
16152TIP3    H169947   6.796   5.109   4.983 -0.8452  0.3468 -0.0183
16152TIP3    H269948   6.710   5.025   5.075  0.2551 -0.4067  0.3356
16153TIP3   OH269949   5.359   4.789  16.197  0.3138 -0.0492 -0.3788
16153TIP3    H169950   5.382   4.711  16.246  0.7119 -1.2832 -2.4441
16153TIP3    H269951   5.443   4.830  16.176  0.1449  0.5066  0.0140
16154TIP3   OH269952   4.328   2.536   5.525  0.1389 -0.7355 -0.6942
16154TIP3    H169953   4.375   2.460   5.560 -0.4069 -1.0735 -0.6842
16154TIP3    H269954   4.391   2.607   5.529  0.1390 -0.8041  0.8138
16155TIP3   OH269955   5.825   2.396  13.707  0.6097  0.0184 -0.1075
16155TIP3    H169956   5.791   2.480  13.738  0.3716 -0.4376  0.8978
16155TIP3    H269957   5.832   2.406  13.612  0.0969  0.9963 -0.0432
16156TIP3   OH269958   4.458   5.733   5.446  0.0454 -0.6755 -0.3875
16156TIP3    H169959   4.412   5.799   5.394  0.6672 -0.2923 -0.4578
16156TIP3    H269960   4.550   5.750   5.430  0.2262 -0.9953  0.3055
16157TIP3   OH269961   5.902   5.640   6.040  0.2612  0.2517 -0.0231
16157TIP3    H169962   5.939   5.597   5.962 -1.4642 -1.5945  0.1313
16157TIP3    H269963   5.915   5.577   6.111  1.6865  1.8627  1.1729
16158TIP3   OH269964   2.654   2.061  15.478 -0.0025 -0.4699 -0.1579
16158TIP3    H169965   2.695   2.030  15.559 -0.6489 -0.1088  0.3193
16158TIP3    H269966   2.696   2.145  15.460  0.9821 -1.0983 -0.8575
16159TIP3   OH269967   6.289   1.622  16.687  0.1423 -0.1573  0.1601
16159TIP3    H169968   6.298   1.597  16.779 -0.1273 -1.4524 -0.1425
16159TIP3    H269969   6.203   1.587  16.662  0.4944 -0.3776 -0.7476
16160TIP3   OH269970   1.592   5.231  12.340  0.2288  0.0429 -0.1370
16160TIP3    H169971   1.656   5.194  12.280  0.2304  1.3872 -0.9780
16160TIP3    H269972   1.593   5.325  12.322 -1.1905  0.2133  0.5917
16161TIP3   OH269973   3.383   1.151   4.387  0.4263  0.2493 -0.3731
16161TIP3    H169974   3.425   1.172   4.304 -0.5989  1.4077 -0.6111
16161TIP3    H269975   3.321   1.081   4.366 -0.8230  1.4940 -0.8605
16162TIP3   OH269976   3.276   4.074  13.068  0.0116  0.6347  0.1590
16162TIP3    H169977   3.210   4.127  13.113  0.4840  1.4999 -0.1672
16162TIP3    H269978   3.315   4.021  13.138 -3.0675 -2.0860 -0.1013
16163TIP3   OH269979   5.070   2.180  12.751  0.1748 -0.7274 -0.7875
16163TIP3    H169980   5.033   2.214  12.669 -2.6043 -2.8524 -0.4455
16163TIP3    H269981   5.024   2.228  12.820  1.1686 -0.2945 -0.4128
16164TIP3   OH269982   6.735   4.113   1.548  0.3754  0.1289  0.4052
16164TIP3    H169983   6.708   4.030   1.509  0.1435 -0.4755  1.7952
16164TIP3    H269984   6.668   4.131   1.615  0.3398  1.5096  0.0171
16165TIP3   OH269985   1.481   5.714   4.477  0.3723 -0.1078  0.2192
16165TIP3    H169986   1.463   5.638   4.532  2.0424 -0.2065  0.6573
16165TIP3    H269987   1.480   5.788   4.538  0.3910  0.0204  0.0645
16166TIP3   OH269988   5.786   3.039   1.386 -0.0823 -0.2474  0.0988
16166TIP3    H169989   5.784   3.055   1.481 -1.1856 -1.3043  0.2639
16166TIP3    H269990   5.704   2.993   1.368  1.0666 -1.8767 -1.0574
16167TIP3   OH269991   0.325   1.443  12.004  0.8030 -0.7371  0.3841
16167TIP3    H169992   0.321   1.348  12.017 -0.8273 -0.5205  1.6495
16167TIP3    H269993   0.237   1.466  11.973  1.1481  0.3916  0.2362
16168TIP3   OH269994   4.433   4.823   2.813 -0.4486 -0.1978 -1.0080
16168TIP3    H169995   4.453   4.758   2.745 -0.5404 -1.7177  0.3786
16168TIP3    H269996   4.339   4.812   2.829 -0.1570 -0.8529  0.3511
16169TIP3   OH269997   6.172   0.821   5.410 -0.0415  0.5104  0.3989
16169TIP3    H169998   6.127   0.904   5.428 -1.6000 -0.1863 -0.1878
16169TIP3    H269999   6.240   0.843   5.347  0.0785  1.4826  0.8594
16170TIP3   OH270000   1.180   2.636  12.913  0.2397 -0.1357 -0.4545
16170TIP3    H170001   1.237   2.686  12.972 -0.2953 -0.6377  0.4961
16170TIP3    H270002   1.136   2.573  12.970 -0.7916 -0.1759 -1.2855
16171TIP3   OH270003   0.031   0.874  15.512  0.1382  0.1545  0.6191
16171TIP3    H170004   0.014   0.939  15.443  0.6102  0.1486  0.4982
16171TIP3    H270005   0.095   0.916  15.569 -2.0621  1.1689  2.4515
16172TIP3   OH270006   2.330   2.988   0.610  0.1700  0.1253  0.0535
16172TIP3    H170007   2.355   2.899   0.586 -0.9662 -0.4252  0.8570
16172TIP3    H270008   2.407   3.023   0.654 -0.3001 -1.4176  2.1875
16173TIP3   OH270009   5.837   1.684  15.097  0.5738 -0.9862 -0.0597
16173TIP3    H170010   5.925   1.657  15.073 -0.4554 -3.0029 -1.7785
16173TIP3    H270011   5.816   1.756  15.038  0.1411 -2.2191 -1.4473
16174TIP3   OH270012   2.157   0.808  14.021  0.0399 -0.0376 -0.0665
16174TIP3    H170013   2.145   0.872  14.092 -1.3428  0.4405 -0.7296
16174TIP3    H270014   2.071   0.769  14.009  0.2471 -0.0565 -1.5500
16175TIP3   OH270015   3.659   6.543   5.085  0.0416  0.1870 -0.8774
16175TIP3    H170016   3.669   6.571   5.176  3.1751  2.9304 -1.9878
16175TIP3    H270017   3.709   6.461   5.080  0.7482  0.5843 -0.3792
16176TIP3   OH270018   1.531   0.772   5.352  0.4206 -0.3125  0.7795
16176TIP3    H170019   1.573   0.711   5.292  0.2458 -0.2645  0.6078
16176TIP3    H270020   1.521   0.853   5.302  1.2274  0.0598  1.2088
16177TIP3   OH270021   3.586   0.255  16.503  0.5261 -0.3556 -0.1724
16177TIP3    H170022   3.502   0.270  16.461 -0.0303  0.0320  1.0613
16177TIP3    H270023   3.633   0.196  16.444 -0.5034 -0.3483 -0.9940
16178TIP3   OH270024   4.192   0.159  14.262 -0.3149  0.7825 -0.0255
16178TIP3    H170025   4.119   0.185  14.206 -1.3362 -0.7934  0.5270
16178TIP3    H270026   4.193   0.224  14.333  0.2156  2.0723 -1.1955
16179TIP3   OH270027   4.115   5.812  11.685 -0.0564  0.6425  0.1951
16179TIP3    H170028   4.070   5.844  11.763  0.7581  1.7353  0.2245
16179TIP3    H270029   4.125   5.718  11.700 -3.4470  0.1142 -0.3850
16180TIP3   OH270030   3.103   6.040  13.767 -0.3974  0.2325  0.9266
16180TIP3    H170031   3.174   6.001  13.818 -1.8308 -0.9131  2.1012
16180TIP3    H270032   3.100   5.989  13.686  2.3212  2.4809 -0.6613
16181TIP3   OH270033   3.810   3.793  15.242  0.0547 -0.1690 -1.2852
16181TIP3    H170034   3.865   3.871  15.239 -0.1651  0.0895  0.4373
16181TIP3    H270035   3.735   3.813  15.187 -0.2326  1.0350 -0.4662
16182TIP3   OH270036   6.248   5.809   2.185 -0.1712  0.0735  0.3874
16182TIP3    H170037   6.240   5.869   2.111 -2.6901  0.4194  0.8809
16182TIP3    H270038   6.292   5.732   2.148  3.3992  2.2871 -0.1660
16183TIP3   OH270039   0.656   0.558  14.528  0.0467  0.3193 -0.0044
16183TIP3    H170040   0.624   0.490  14.470 -1.4467  0.2512  0.8716
16183TIP3    H270041   0.648   0.521  14.616  2.6015  0.2861  0.2584
16184TIP3   OH270042   0.881   5.498  16.791 -0.4983 -0.2637  0.3185
16184TIP3    H170043   0.935   5.429  16.752 -0.1448 -0.8625  1.8116
16184TIP3    H270044   0.919   5.580  16.758 -0.6844 -0.7606 -1.1607
16185TIP3   OH270045   4.140   6.494  12.834 -0.1591  0.4112  0.6778
16185TIP3    H170046   4.210   6.456  12.781 -1.4162 -0.8648 -0.1181
16185TIP3    H270047   4.177   6.501  12.922  0.2430 -2.3612  0.7649
16186TIP3   OH270048   1.319   1.104   2.296  0.1283  0.1773  0.1676
16186TIP3    H170049   1.253   1.083   2.230 -0.1913  1.4148  0.0769
16186TIP3    H270050   1.399   1.118   2.246  0.4510 -1.1982  0.2669
16187TIP3   OH270051   3.371   2.258   5.239 -0.0240 -0.0280 -0.6434
16187TIP3    H170052   3.465   2.275   5.246  0.1048  0.0620 -2.4484
16187TIP3    H270053   3.365   2.163   5.229 -0.0690  0.0313 -1.2165
16188TIP3   OH270054   1.820   2.471   5.933  0.1046  0.9349 -0.0606
16188TIP3    H170055   1.749   2.533   5.913  2.0568  2.5310 -2.4056
16188TIP3    H270056   1.821   2.466   6.029 -2.7671  1.3282  0.0429
16189TIP3   OH270057   1.242   6.345   1.257 -0.6448  0.4831  1.2004
16189TIP3    H170058   1.185   6.269   1.248  1.1124 -0.8002  0.4832
16189TIP3    H270059   1.326   6.308   1.284  0.4934  2.0896 -0.0617
16190TIP3   OH270060   0.309   6.715   2.345  0.1800 -0.2248  0.3603
16190TIP3    H170061   0.221   6.698   2.312  0.4731 -1.5036  0.1973
16190TIP3    H270062   0.365   6.712   2.268  0.2533  1.5192  0.3343
16191TIP3   OH270063   2.333   4.971   0.115  0.4506  1.1665  0.7010
16191TIP3    H170064   2.378   4.905   0.061  0.6175  0.3692  1.7899
16191TIP3    H270065   2.247   4.981   0.074  0.2076 -0.1705  0.8354
16192TIP3   OH270066   2.085   1.012  15.707 -0.5816 -0.3697 -0.2695
16192TIP3    H170067   2.177   0.986  15.699 -0.6593 -1.0259  0.8613
16192TIP3    H270068   2.046   0.988  15.622  0.3001 -0.0285 -0.7762
16193TIP3   OH270069   1.978   2.563   0.759 -0.1030  0.7241  0.0669
16193TIP3    H170070   2.027   2.645   0.766  0.3371  0.6124 -1.5417
16193TIP3    H270071   1.932   2.555   0.842  0.6183  2.1166  0.6060
16194TIP3   OH270072   1.458   1.778  13.684  0.3637  1.1124 -0.3471
16194TIP3    H170073   1.394   1.769  13.755  0.1727 -0.8383 -0.7186
16194TIP3    H270074   1.471   1.872  13.674 -0.1031  1.4389  1.8413
16195TIP3   OH270075   6.004   5.532   5.815  0.5052  0.1026 -0.3723
16195TIP3    H170076   6.020   5.563   5.726 -0.8311 -0.5366 -0.8501
16195TIP3    H270077   6.025   5.439   5.813 -2.2660 -0.5684 -0.7986
16196TIP3   OH270078   3.254   5.186   5.432  0.4747  0.1225 -0.5875
16196TIP3    H170079   3.301   5.239   5.496  2.5105 -1.1165 -1.0420
16196TIP3    H270080   3.318   5.166   5.364 -0.9465 -0.7877 -1.7033
16197TIP3   OH270081   1.869   2.027  11.782 -0.3333 -0.0494 -0.3531
16197TIP3    H170082   1.891   2.112  11.744 -1.1993  1.8344  3.1655
16197TIP3    H270083   1.952   1.980  11.786  0.7421  1.8901  0.6095
16198TIP3   OH270084   2.582   6.222   5.835  0.4796 -0.6006  0.1137
16198TIP3    H170085   2.607   6.159   5.903  2.5891  0.6182  0.4803
16198TIP3    H270086   2.567   6.304   5.882 -1.5088 -0.5938 -0.4668
16199TIP3   OH270087   3.569   3.284  10.401  0.3739  0.1947 -0.0458
16199TIP3    H170088   3.538   3.232  10.327 -2.8100 -0.0680  1.4088
16199TIP3    H270089   3.615   3.221  10.457 -0.4009 -0.3539 -0.0168
16200TIP3   OH270090   5.420   6.649  15.253  0.2976  0.1025  0.6350
16200TIP3    H170091   5.364   6.706  15.306  1.3349  2.1043 -0.3619
16200TIP3    H270092   5.380   6.651  15.166  1.1968  0.5228  0.2280
16201TIP3   OH270093   4.213   0.366  12.684  0.3240  0.1179  0.3396
16201TIP3    H170094   4.152   0.433  12.714  1.4816  1.6538 -0.6553
16201TIP3    H270095   4.244   0.399  12.599  0.6212 -1.8630 -0.3442
16202TIP3   OH270096   5.340   4.997  15.376  0.7130 -0.3017 -0.1159
16202TIP3    H170097   5.402   4.924  15.382 -0.0722 -1.0164 -0.4985
16202TIP3    H270098   5.380   5.057  15.313  0.8757 -0.9143 -0.6102
16203TIP3   OH270099   4.574   5.935   0.212 -0.2997  0.4696 -0.3878
16203TIP3    H170100   4.625   5.945   0.131 -0.6795  0.4454 -0.6317
16203TIP3    H270101   4.596   5.848   0.244  0.0987  0.6061 -0.2949
16204TIP3   OH270102   0.562   3.502  16.134 -0.5332 -0.0530 -0.7017
16204TIP3    H170103   0.635   3.492  16.194 -1.4685 -1.1184  0.2898
16204TIP3    H270104   0.541   3.595  16.135  1.6382  0.4720 -2.0098
16205TIP3   OH270105   0.187   0.538   5.916 -0.2688  0.7822  0.1108
16205TIP3    H170106   0.197   0.446   5.894 -0.7182  0.6424  0.4907
16205TIP3    H270107   0.277   0.570   5.927 -0.0330  0.8834 -2.0074
16206TIP3   OH270108   2.941   6.716   1.137 -0.0427  0.0726  0.3558
16206TIP3    H170109   2.872   6.762   1.089 -1.4578  0.3494  2.6055
16206TIP3    H270110   2.931   6.624   1.112 -1.2162  0.1101  0.6735
16207TIP3   OH270111   0.881   6.199  13.270  0.1489  0.4156 -0.1511
16207TIP3    H170112   0.932   6.174  13.193 -0.1255 -2.0740  0.4421
16207TIP3    H270113   0.925   6.277  13.303  4.8149 -2.6830  1.4785
16208TIP3   OH270114   1.241   6.715  15.399  0.0146  0.2281  0.2715
16208TIP3    H170115   1.154   6.682  15.424 -0.2596  1.1567  0.5524
16208TIP3    H270116   1.276   6.647  15.341 -0.6306 -0.4597  0.6725
16209TIP3   OH270117   1.940   2.485  16.015  0.4599  0.0343  0.5748
16209TIP3    H170118   1.899   2.400  15.998 -0.4440  0.6872 -0.6770
16209TIP3    H270119   2.034   2.467  16.013  0.3070 -0.7126 -1.0309
16210TIP3   OH270120   2.740   3.337  17.074  0.1128 -0.1291  0.1108
16210TIP3    H170121   2.825   3.300  17.095  0.2787  0.1707 -0.0288
16210TIP3    H270122   2.677   3.268  17.097  0.3653 -0.2064  0.5627
16211TIP3   OH270123   3.011   4.335  15.414  0.4862  0.5626  0.6582
16211TIP3    H170124   3.062   4.339  15.495 -0.1900  1.5143  1.0601
16211TIP3    H270125   3.033   4.416  15.368  0.3664  0.3347  0.2031
16212TIP3   OH270126   1.668   5.073   3.236  0.1697 -0.7470  0.7642
16212TIP3    H170127   1.622   5.104   3.314 -0.3613 -0.5930  0.3932
16212TIP3    H270128   1.599   5.054   3.174  0.5986 -0.7460  0.2852
16213TIP3   OH270129   2.714   4.039  16.215  0.1945 -0.3397 -0.4811
16213TIP3    H170130   2.640   3.994  16.255  0.2593  0.2959  0.3838
16213TIP3    H270131   2.695   4.132  16.226  0.0047 -0.1329 -2.3527
16214TIP3   OH270132   4.799   2.687   4.385 -0.5251 -0.3168  0.5308
16214TIP3    H170133   4.853   2.700   4.308 -1.4765 -0.4112 -0.1654
16214TIP3    H270134   4.780   2.776   4.416  0.0685 -0.2847  0.8114
16215TIP3   OH270135   2.685   1.900   1.259 -0.4657  0.5032 -0.0310
16215TIP3    H170136   2.741   1.954   1.203 -0.2655  0.4633  0.1283
16215TIP3    H270137   2.641   1.840   1.198 -0.3200  0.5210 -0.1541
16216TIP3   OH270138   6.753   4.682   5.138  0.6192 -0.4033 -0.2339
16216TIP3    H170139   6.798   4.699   5.055  2.0500  0.0852  0.6240
16216TIP3    H270140   6.768   4.589   5.155  0.3765 -0.4901 -0.4979
16217TIP3   OH270141   3.394   5.368  12.243  0.2308  0.0997  0.0852
16217TIP3    H170142   3.411   5.351  12.150 -0.1889  2.6225 -0.4871
16217TIP3    H270143   3.405   5.463  12.252 -1.8863  0.1848  2.1474
16218TIP3   OH270144   1.387   2.039   5.419 -0.1680  0.5395  0.4684
16218TIP3    H170145   1.460   2.083   5.462 -1.5927  1.5878  1.8622
16218TIP3    H270146   1.310   2.063   5.471 -1.6657  0.3246 -1.5825
16219TIP3   OH270147   3.979   3.489  16.792  0.0456  0.3365 -0.0861
16219TIP3    H170148   4.006   3.505  16.701  2.0559 -0.5167  0.3337
16219TIP3    H270149   3.886   3.512  16.793 -0.0506  0.2375 -2.3943
16220TIP3   OH270150   1.464   4.185   0.853  0.0803 -0.1552  0.0481
16220TIP3    H170151   1.442   4.115   0.915  1.1724 -0.8631 -0.3470
16220TIP3    H270152   1.410   4.259   0.880  0.5996 -0.4280  1.9114
16221TIP3   OH270153   6.370   1.700   3.552 -0.0088 -0.2042 -0.1645
16221TIP3    H170154   6.358   1.611   3.584  0.2619 -0.4670 -0.7743
16221TIP3    H270155   6.293   1.748   3.583 -1.5024 -1.3040 -2.0784
16222TIP3   OH270156   0.262   1.214   4.511  0.1981 -0.5660 -0.0407
16222TIP3    H170157   0.248   1.208   4.606 -0.2910 -1.7857 -0.1841
16222TIP3    H270158   0.226   1.300   4.488 -0.6080 -0.6787  0.7257
16223TIP3   OH270159   3.755   6.377   1.872  0.2332  0.4610 -0.5747
16223TIP3    H170160   3.810   6.299   1.866  0.8466  0.8828 -0.4406
16223TIP3    H270161   3.670   6.349   1.839 -0.2916 -0.9823  1.8857
16224TIP3   OH270162   5.709   3.827   1.516  0.1149 -0.4105 -0.4085
16224TIP3    H170163   5.775   3.893   1.496  0.6890 -0.2432  1.8328
16224TIP3    H270164   5.625   3.872   1.503  0.4678  0.0766 -1.0194
16225TIP3   OH270165   4.197   1.779  11.063  0.0155 -0.5287  0.1340
16225TIP3    H170166   4.242   1.706  11.107  0.9269 -0.6987 -1.0344
16225TIP3    H270167   4.108   1.747  11.049  0.0086 -0.8670  0.9218
16226TIP3   OH270168   5.258   5.445   1.230 -0.7597  0.7261  0.0160
16226TIP3    H170169   5.244   5.498   1.151  0.6563  1.0712 -0.0178
16226TIP3    H270170   5.303   5.367   1.199 -0.9391  0.4795  0.3695
16227TIP3   OH270171   3.205   4.832   2.129 -0.2741  0.4317  0.3613
16227TIP3    H170172   3.180   4.753   2.081 -0.6387  1.7723 -1.7777
16227TIP3    H270173   3.260   4.881   2.067 -0.4174  2.0475  1.4772
16228TIP3   OH270174   1.286   0.467  15.168  0.3539 -0.0686  0.0313
16228TIP3    H170175   1.233   0.469  15.247  0.6445 -1.5173  0.2730
16228TIP3    H270176   1.231   0.423  15.103  0.8305 -0.5591 -0.0411
16229TIP3   OH270177   4.012   0.505  13.170  0.0581 -0.2556  0.5769
16229TIP3    H170178   3.917   0.501  13.176 -0.0101  0.6085  0.2198
16229TIP3    H270179   4.042   0.423  13.208 -0.8143 -0.3410  1.1031
16230TIP3   OH270180   0.534   0.305   1.448 -1.2765 -0.2796  0.5815
16230TIP3    H170181   0.455   0.252   1.446 -1.9645  0.7149 -3.4683
16230TIP3    H270182   0.511   0.385   1.400  1.6722  0.7791  0.8229
16231TIP3   OH270183   2.364   6.768   0.445  0.3300 -0.0270  0.5320
16231TIP3    H170184   2.280   6.763   0.490  0.4596 -1.0410  0.6865
16231TIP3    H270185   2.412   6.691   0.476  0.3888 -0.8048 -1.3992
16232TIP3   OH270186   0.365   3.734   3.148  0.0894 -0.5654 -0.5622
16232TIP3    H170187   0.291   3.724   3.089 -1.2016 -0.2214  0.9741
16232TIP3    H270188   0.441   3.709   3.095 -0.8907  0.9015 -2.7145
16233TIP3   OH270189   4.372   0.301   2.345  0.0115 -0.7261 -0.0180
16233TIP3    H170190   4.337   0.268   2.428  0.3262 -0.5868  0.1716
16233TIP3    H270191   4.453   0.346   2.369  0.1684 -0.7889 -0.4154
16234TIP3   OH270192   2.568   2.806   4.941  0.1931 -0.5915 -0.9410
16234TIP3    H170193   2.483   2.821   4.982  0.8116 -2.0175  0.9216
16234TIP3    H270194   2.625   2.874   4.979  0.8185 -2.0425  0.8378
16235TIP3   OH270195   0.936   2.850  14.237 -0.3972 -0.1854  0.5130
16235TIP3    H170196   0.903   2.919  14.296  0.3592  1.8217 -1.3506
16235TIP3    H270197   1.027   2.838  14.263  1.0116  3.2904 -2.5224
16236TIP3   OH270198   4.265   6.559   1.864 -0.0824 -0.3818 -0.1076
16236TIP3    H170199   4.173   6.531   1.869 -0.4385  0.5690 -0.9428
16236TIP3    H270200   4.267   6.642   1.912  0.3655 -0.4622  0.0103
16237TIP3   OH270201   2.336   1.010   1.523 -0.9254 -0.3180 -0.1357
16237TIP3    H170202   2.330   1.078   1.590  2.2998 -1.3016  1.2687
16237TIP3    H270203   2.280   0.940   1.555 -0.5450 -0.1967  0.8105
16238TIP3   OH270204   4.207   6.455  17.124 -0.0204 -1.1785  0.5369
16238TIP3    H170205   4.155   6.389  17.170 -1.0079 -0.2538  0.7445
16238TIP3    H270206   4.163   6.467  17.041  1.6875 -2.7431 -0.6558
16239TIP3   OH270207   6.660   3.305   4.612  0.8177  0.3927 -0.3260
16239TIP3    H170208   6.678   3.247   4.537  1.1833  0.7034 -0.4794
16239TIP3    H270209   6.746   3.339   4.636  0.8301 -0.4182  0.8227
16240TIP3   OH270210   0.445   0.594   2.004 -0.2362  0.3258  0.3038
16240TIP3    H170211   0.482   0.657   1.942  1.4298  0.2194  1.1772
16240TIP3    H270212   0.519   0.540   2.032 -1.4876 -1.5021  0.2039
16241TIP3   OH270213   4.380   0.334  12.897  0.7825  0.7620 -0.2394
16241TIP3    H170214   4.394   0.426  12.917  0.9352  0.7908 -0.4830
16241TIP3    H270215   4.336   0.334  12.812 -0.2356  0.6535  0.2818
16242TIP3   OH270216   5.246   4.534  15.923 -0.3846  0.4461  0.3996
16242TIP3    H170217   5.179   4.594  15.956 -0.3278  0.6033  0.2279
16242TIP3    H270218   5.219   4.448  15.957 -0.4835  0.5619  0.6166
16243TIP3   OH270219   5.533   1.745  13.401 -0.0098  0.6725  0.4356
16243TIP3    H170220   5.446   1.720  13.369 -0.2137  1.1955  0.5821
16243TIP3    H270221   5.517   1.781  13.488  0.4142  0.3070  0.6653
16244TIP3   OH270222   2.946   2.409   5.746 -0.1259  0.1577  0.1344
16244TIP3    H170223   2.987   2.327   5.721  0.4776  0.1424  1.1296
16244TIP3    H270224   2.872   2.419   5.686  0.4570 -0.5477 -0.7076
16245TIP3   OH270225   5.915   5.117  16.172 -0.2953  0.6228 -0.1635
16245TIP3    H170226   5.832   5.142  16.133  0.5347  0.7945 -1.8841
16245TIP3    H270227   5.974   5.189  16.151  0.1282  0.8271  1.6414
16246TIP3   OH270228   3.605   1.389   4.976 -0.0215  0.2726  0.5498
16246TIP3    H170229   3.679   1.421   4.925  0.3694  1.4827  1.8299
16246TIP3    H270230   3.578   1.464   5.028 -2.3225 -0.0913 -0.0730
16247TIP3   OH270231   3.881   4.112  15.739  0.1030  0.1998 -0.2713
16247TIP3    H170232   3.853   4.139  15.826 -1.9963 -0.3578 -0.7543
16247TIP3    H270233   3.886   4.017  15.744  0.7545  0.2181 -0.5350
16248TIP3   OH270234   1.308   1.153   3.646 -0.3671 -0.3420  0.2222
16248TIP3    H170235   1.356   1.129   3.567  0.2668  0.1492  0.4550
16248TIP3    H270236   1.218   1.166   3.617  0.1966  1.5499 -0.7445
16249TIP3   OH270237   5.516   0.635   3.470 -0.8033 -0.7910 -0.1585
16249TIP3    H170238   5.487   0.634   3.561 -1.7750  0.2001 -0.4548
16249TIP3    H270239   5.530   0.543   3.448  1.7828 -0.9132  1.7314
16250TIP3   OH270240   4.464   0.956  16.865 -0.7405 -0.0193 -0.1396
16250TIP3    H170241   4.436   0.913  16.946 -0.6831  0.1605 -0.0220
16250TIP3    H270242   4.549   0.917  16.845 -0.1275  0.9149  0.6286
16251TIP3   OH270243   3.290   5.432  13.111 -0.0547  0.2754 -0.3560
16251TIP3    H170244   3.282   5.526  13.127 -1.4152  0.1111 -0.0501
16251TIP3    H270245   3.382   5.420  13.087  0.1521  1.6677 -0.3067
16252TIP3   OH270246   0.413   2.699   2.337  0.0704 -0.2734 -0.5315
16252TIP3    H170247   0.399   2.781   2.383 -0.1332 -0.7196  0.2037
16252TIP3    H270248   0.458   2.724   2.256  5.3199  0.0616  2.2447
16253TIP3   OH270249   5.386   0.022  14.021 -0.6611  0.5317 -0.4980
16253TIP3    H170250   5.455   0.022  13.955 -0.0906 -0.5992  0.0770
16253TIP3    H270251   5.413   0.088  14.084  0.3155 -0.4495  0.1324
16254TIP3   OH270252   0.847   4.283   0.926  0.3791 -0.4660  0.3884
16254TIP3    H170253   0.801   4.365   0.942  0.0367 -0.6059  0.1297
16254TIP3    H270254   0.888   4.262   1.010 -1.1287 -1.0175  1.0094
16255TIP3   OH270255   5.392   3.448  15.851 -0.5806  0.2173 -0.3321
16255TIP3    H170256   5.417   3.444  15.759 -1.3668  0.9171 -0.5789
16255TIP3    H270257   5.475   3.447  15.899 -0.1654  0.1613 -1.0532
16256TIP3   OH270258   5.895   5.319  15.027  0.4130 -0.0799 -0.2369
16256TIP3    H170259   5.946   5.324  15.108  1.2651  0.2177 -0.7791
16256TIP3    H270260   5.888   5.410  14.998  2.1874 -0.4024 -1.7531
16257TIP3   OH270261   4.495   2.037  15.072 -0.1986  0.4842  0.5829
16257TIP3    H170262   4.406   2.010  15.093  0.1282 -0.9208  0.1878
16257TIP3    H270263   4.529   2.075  15.153 -1.8137  2.8597  0.1952
16258TIP3   OH270264   6.231   5.811  13.299  0.4409  0.4237 -0.3672
16258TIP3    H170265   6.215   5.906  13.304 -0.1225  0.2565  1.3068
16258TIP3    H270266   6.326   5.803  13.299  0.4880  0.9617 -0.0491
16259TIP3   OH270267   4.673   0.042  11.302  0.8430 -0.7491  0.5021
16259TIP3    H170268   4.735   0.103  11.262  0.1396 -0.6097 -0.4027
16259TIP3    H270269   4.678   0.060  11.396  2.0288 -0.6128  0.4194
16260TIP3   OH270270   0.271   0.530   5.576 -0.1562 -0.2853 -0.6246
16260TIP3    H170271   0.289   0.562   5.665 -1.9845 -0.5999 -0.1198
16260TIP3    H270272   0.328   0.582   5.520  1.1098 -0.1564  0.7386
16261TIP3   OH270273   2.404   3.909  13.153  0.1430 -0.6167 -0.2845
16261TIP3    H170274   2.337   3.864  13.204  0.4282 -0.5390  0.1564
16261TIP3    H270275   2.479   3.850  13.154  0.6774  0.0694  0.6880
16262TIP3   OH270276   0.918   1.540  16.234  0.4063  0.2485  0.1754
16262TIP3    H170277   0.836   1.509  16.196  1.4981 -3.6606  0.7869
16262TIP3    H270278   0.960   1.590  16.163 -0.6055 -1.2595 -1.5269
16263TIP3   OH270279   3.348   6.592   3.265  0.7200  0.4789 -0.0027
16263TIP3    H170280   3.254   6.572   3.257  1.2342 -1.9162 -0.3983
16263TIP3    H270281   3.359   6.620   3.355 -0.0210 -1.4093  0.7084
16264TIP3   OH270282   4.588   3.166   1.888 -0.2971 -0.3920  0.3360
16264TIP3    H170283   4.556   3.087   1.845 -1.3213  1.2898 -2.1089
16264TIP3    H270284   4.545   3.238   1.842  1.4490  1.6496  1.7719
16265TIP3   OH270285   6.504   0.513  14.659 -0.0033 -0.0060 -0.4492
16265TIP3    H170286   6.558   0.439  14.633 -0.9572 -0.9179  0.1432
16265TIP3    H270287   6.543   0.588  14.614 -1.0931 -1.3954 -3.8895
16266TIP3   OH270288   6.187   4.429   5.693 -0.1446 -0.2665  0.2163
16266TIP3    H170289   6.265   4.438   5.747  0.4785 -0.5932 -0.6026
16266TIP3    H270290   6.190   4.338   5.662  0.1525  0.2416 -1.3024
16267TIP3   OH270291   0.771   4.697  17.188 -0.3785  0.1247  0.4022
16267TIP3    H170292   0.736   4.765  17.130 -1.0961 -1.3200 -0.8966
16267TIP3    H270293   0.851   4.667  17.145 -0.2053 -0.0451  0.8401
16268TIP3   OH270294   3.116   2.313  14.239  0.0441  0.9764 -0.6224
16268TIP3    H170295   3.033   2.360  14.229 -1.6524 -1.5379  1.0071
16268TIP3    H270296   3.132   2.275  14.153 -1.2300  0.3390 -0.5916
16269TIP3   OH270297   0.729   4.618  14.846  0.0189 -0.7762  0.2331
16269TIP3    H170298   0.659   4.554  14.830 -0.4919 -0.0865 -0.3142
16269TIP3    H270299   0.745   4.613  14.940  0.4614 -2.2012  0.0960
16270TIP3   OH270300   6.285   2.153  17.157  0.3099  0.4105  0.2915
16270TIP3    H170301   6.274   2.223  17.221 -0.2859  1.0984 -0.5482
16270TIP3    H270302   6.376   2.162  17.127  0.5142  0.2388  0.8414
16271TIP3   OH270303   5.894   3.048  12.417  0.6854  0.0189  0.0716
16271TIP3    H170304   5.953   3.124  12.411  2.2510 -1.2499 -0.9001
16271TIP3    H270305   5.911   3.012  12.504 -0.1772  0.8500  0.6002
16272TIP3   OH270306   6.091   5.245  12.283  0.9734  0.3729  0.5258
16272TIP3    H170307   6.085   5.156  12.319  1.5823  0.3908  0.6656
16272TIP3    H270308   6.184   5.265  12.283  0.9767  0.4320 -0.9236
16273TIP3   OH270309   0.027   0.877   3.822  0.2620 -0.5910  0.1374
16273TIP3    H170310  -0.063   0.874   3.856 -0.6249 -0.1005 -2.0625
16273TIP3    H270311   0.050   0.785   3.807 -1.0512 -0.5624 -2.2059
16274TIP3   OH270312   4.377   2.739  11.150  0.3217 -0.3164 -0.5382
16274TIP3    H170313   4.441   2.748  11.080  0.3892  0.5780 -0.3714
16274TIP3    H270314   4.422   2.772  11.228 -0.1756 -0.1497 -0.3217
16275TIP3   OH270315   6.033   2.526   3.671 -0.2809 -0.0021 -0.3003
16275TIP3    H170316   5.967   2.591   3.692 -2.4880 -2.4441  0.5747
16275TIP3    H270317   6.038   2.470   3.748  3.0634  0.2793 -0.2244
16276TIP3   OH270318   3.226   3.980   4.213  0.5320  0.5851 -0.1882
16276TIP3    H170319   3.196   4.036   4.142  0.1510 -1.2587 -1.4999
16276TIP3    H270320   3.252   3.898   4.171  0.0622 -0.6299  1.8161
16277TIP3   OH270321   0.666   0.402  11.323 -0.0242 -0.2457 -0.0189
16277TIP3    H170322   0.597   0.396  11.390  1.3616  0.9164  1.5411
16277TIP3    H270323   0.666   0.494  11.297  0.3867 -0.4144 -0.6065
16278TIP3   OH270324   3.119   4.855   0.862  0.1904  0.3679 -0.7783
16278TIP3    H170325   3.176   4.847   0.938 -0.1467 -0.8157 -0.6320
16278TIP3    H270326   3.110   4.765   0.830 -0.6657  0.6971 -1.4722
16279TIP3   OH270327   4.251   5.577   1.107 -0.5649 -0.2965  0.2553
16279TIP3    H170328   4.340   5.544   1.121 -0.1986  0.6304  0.1409
16279TIP3    H270329   4.239   5.643   1.175 -1.7584 -1.5570  1.2856
16280TIP3   OH270330   5.205   3.198   0.650 -0.1468  0.6328 -0.1070
16280TIP3    H170331   5.200   3.211   0.555  1.1578 -2.1063 -0.5733
16280TIP3    H270332   5.251   3.115   0.661 -2.2661 -0.2324  2.8708
16281TIP3   OH270333   2.812   4.943  12.866 -0.1351 -0.0342 -0.1726
16281TIP3    H170334   2.858   5.018  12.905  0.4513 -1.2666  1.5607
16281TIP3    H270335   2.725   4.945  12.905 -0.9846  1.2152 -2.0631
16282TIP3   OH270336   6.002   6.785  12.242 -0.3028  0.3368 -0.4986
16282TIP3    H170337   5.923   6.811  12.288 -0.2244 -1.1567  0.5052
16282TIP3    H270338   5.984   6.695  12.213  0.8196  0.1789 -0.7157
16283TIP3   OH270339   5.212   4.072  10.742 -0.1425  0.5595 -0.0241
16283TIP3    H170340   5.138   4.038  10.792 -0.2649  0.7611 -0.0673
16283TIP3    H270341   5.176   4.090  10.655 -0.2037  1.3032  0.1555
16284TIP3   OH270342   6.302   1.766  13.269  0.1526  0.3277 -0.1950
16284TIP3    H170343   6.326   1.725  13.186 -0.8859  0.6901 -0.6825
16284TIP3    H270344   6.365   1.837  13.280  0.3137  0.2554 -0.6615
16285TIP3   OH270345   0.506   1.103   4.558  0.4631  0.0375 -0.3882
16285TIP3    H170346   0.414   1.128   4.558  0.6152  0.6002 -0.3009
16285TIP3    H270347   0.532   1.106   4.650  0.7025  0.3761 -0.4672
16286TIP3   OH270348   4.644   5.825   4.016  0.1758 -0.2473  0.1033
16286TIP3    H170349   4.703   5.898   4.032  0.8245 -0.6096 -0.6016
16286TIP3    H270350   4.692   5.748   4.043 -0.5524 -0.4142  0.9518
16287TIP3   OH270351   0.167   1.036   0.515 -0.3982  0.8471  0.3920
16287TIP3    H170352   0.231   1.074   0.454  0.4453 -0.8677  0.1731
16287TIP3    H270353   0.214   0.963   0.556 -0.9306  2.0161  3.1704
16288TIP3   OH270354   1.845   1.325   1.846  0.1898 -0.4103 -0.1978
16288TIP3    H170355   1.892   1.395   1.892  1.2837 -1.2240 -0.0717
16288TIP3    H270356   1.871   1.336   1.754  1.3910 -1.4565  0.0107
16289TIP3   OH270357   0.221   4.699   4.111  0.2392  0.1578 -0.3369
16289TIP3    H170358   0.314   4.716   4.126  0.6830 -2.0324 -0.4668
16289TIP3    H270359   0.187   4.781   4.075  2.3622  0.5985 -1.4108
16290TIP3   OH270360   3.972   3.361  14.168  0.2037 -0.7400  0.0657
16290TIP3    H170361   3.923   3.313  14.235 -0.3058  0.8647  0.8789
16290TIP3    H270362   3.906   3.386  14.104  0.2573 -0.1016  0.2584
16291TIP3   OH270363   5.024   1.143  16.637  0.1683  0.2195  0.0152
16291TIP3    H170364   4.949   1.164  16.692  0.4523  0.4752  0.3091
16291TIP3    H270365   4.986   1.102  16.559 -0.2332 -0.1407  0.3970
16292TIP3   OH270366   4.336   6.696   0.113  0.2419  0.1264 -0.2012
16292TIP3    H170367   4.323   6.731   0.201  1.7427  0.8371 -0.2455
16292TIP3    H270368   4.390   6.618   0.126  0.3448  0.1515 -0.4747
16293TIP3   OH270369   5.610   4.622  12.041  0.7850 -0.2257  0.6661
16293TIP3    H170370   5.564   4.598  11.960  0.2111  0.6022  0.7457
16293TIP3    H270371   5.693   4.573  12.037  0.5890 -0.4906 -0.2297
16294TIP3   OH270372   1.918   2.338  16.755  0.2631 -0.2762 -0.0151
16294TIP3    H170373   1.971   2.384  16.821  1.8295 -0.0204 -1.4096
16294TIP3    H270374   1.904   2.403  16.687  0.4162 -1.1433 -0.8775
16295TIP3   OH270375   1.371   1.696  15.450 -0.2685 -0.5686 -0.1947
16295TIP3    H170376   1.334   1.746  15.377 -0.2268  0.3764  0.4210
16295TIP3    H270377   1.321   1.615  15.452 -0.1010 -0.7167 -1.4329
16296TIP3   OH270378   6.574   2.143   1.285 -0.8882  0.0714 -0.0905
16296TIP3    H170379   6.486   2.175   1.304 -1.3800 -1.0413 -0.4397
16296TIP3    H270380   6.590   2.075   1.350 -0.4793 -0.0674 -0.3290
16297TIP3   OH270381   1.069   5.687   1.424 -0.1579 -0.4397  0.5384
16297TIP3    H170382   1.066   5.712   1.331 -1.4919  0.7897  0.8912
16297TIP3    H270383   1.043   5.767   1.471  0.2519 -1.1306  1.9597
16298TIP3   OH270384   1.363   1.816   2.606  0.7905 -0.2142  0.0703
16298TIP3    H170385   1.278   1.788   2.641 -0.0449  1.5662 -0.4488
16298TIP3    H270386   1.414   1.736   2.599 -1.1251 -1.4387 -0.3208
16299TIP3   OH270387   3.886   3.446  11.359 -0.1704 -0.0781  0.1738
16299TIP3    H170388   3.974   3.473  11.387  0.3850 -1.6661  0.0174
16299TIP3    H270389   3.870   3.364  11.406 -0.1940 -1.5418 -2.3177
16300TIP3   OH270390   5.003   5.425  11.954  0.0768 -0.0906 -0.3783
16300TIP3    H170391   5.062   5.378  12.013  0.2527 -0.7168 -1.0465
16300TIP3    H270392   4.917   5.421  11.997 -0.0683 -1.6828 -0.7815
16301TIP3   OH270393   4.941   5.168  16.757 -0.1474  0.1462 -0.5195
16301TIP3    H170394   4.875   5.185  16.690 -0.9283 -0.6461  0.0348
16301TIP3    H270395   4.971   5.079  16.739 -0.4664 -0.1224  0.2631
16302TIP3   OH270396   1.353   4.747  11.824  0.1353 -0.5407  0.2454
16302TIP3    H170397   1.337   4.712  11.912 -1.8155 -0.2822  0.0203
16302TIP3    H270398   1.435   4.706  11.797 -0.7353 -2.9186  1.0474
16303TIP3   OH270399   4.753   1.691   3.210  0.4972  0.1041 -0.3522
16303TIP3    H170400   4.764   1.780   3.175  1.4969 -0.1167 -0.6271
16303TIP3    H270401   4.843   1.659   3.220  0.1106 -1.1535 -0.9562
16304TIP3   OH270402   2.355   2.191  15.805  0.4676 -0.3570 -0.5120
16304TIP3    H170403   2.341   2.097  15.792 -0.5173 -0.3476  0.4722
16304TIP3    H270404   2.301   2.232  15.737  0.5698 -0.4840 -0.6717
16305TIP3   OH270405   1.358   5.614   2.734  0.0528 -0.2081 -0.1448
16305TIP3    H170406   1.426   5.680   2.722 -1.2714  1.7067  2.2856
16305TIP3    H270407   1.396   5.552   2.797  0.2948 -0.2553 -0.3368
16306TIP3   OH270408   4.805   6.464  10.732 -0.4028 -0.3866  0.1967
16306TIP3    H170409   4.808   6.558  10.712 -0.3581 -0.5262 -0.4521
16306TIP3    H270410   4.724   6.434  10.690  0.6521 -1.0567 -1.4092
16307TIP3   OH270411   3.092   1.277   1.679 -0.0191  1.1392 -0.2717
16307TIP3    H170412   3.017   1.262   1.622  0.2295  0.1316 -0.3512
16307TIP3    H270413   3.138   1.193   1.680  0.6196  1.4920  0.4756
16308TIP3   OH270414   3.079   0.941   1.043 -0.3690 -0.1979 -0.0810
16308TIP3    H170415   3.064   0.976   1.131 -1.6413 -0.3337 -0.2280
16308TIP3    H270416   2.992   0.914   1.013  0.3265 -1.9625 -0.6053
16309TIP3   OH270417   5.873   1.908   4.048 -0.0408  0.1115  0.0850
16309TIP3    H170418   5.841   1.823   4.017  0.3865 -0.7227  1.8468
16309TIP3    H270419   5.948   1.886   4.103  0.2266  1.6645  0.3677
16310TIP3   OH270420   0.090   4.996  12.591 -0.2796 -0.1331  0.2234
16310TIP3    H170421   0.037   4.968  12.666 -2.0757  0.1401 -0.9012
16310TIP3    H270422   0.037   4.973  12.515  2.0037 -1.4176 -1.0274
16311TIP3   OH270423   3.199   1.261  15.922  0.0475 -0.0534 -0.3386
16311TIP3    H170424   3.174   1.214  16.001 -0.4466 -0.4680 -0.7303
16311TIP3    H270425   3.186   1.198  15.851 -0.5996  0.6587 -0.8716
16312TIP3   OH270426   1.377   4.321  16.029  0.1053 -0.1147  0.0192
16312TIP3    H170427   1.408   4.367  15.951  0.3317 -1.0108 -0.4236
16312TIP3    H270428   1.282   4.321  16.020  0.0099  1.5110  0.7429
16313TIP3   OH270429   2.282   5.307   2.490 -0.5216  0.3809 -0.2149
16313TIP3    H170430   2.364   5.354   2.473  0.3565 -0.3972  1.6590
16313TIP3    H270431   2.233   5.313   2.408  0.5847  2.5156 -0.7489
16314TIP3   OH270432   1.633   3.842  13.999 -0.2179 -0.1639 -0.5340
16314TIP3    H170433   1.714   3.863  13.952  0.1642  0.3849  0.3513
16314TIP3    H270434   1.574   3.915  13.978 -0.0774  0.0366 -0.2367
16315TIP3   OH270435   2.818   0.869  12.590 -0.2922 -0.2267  0.4485
16315TIP3    H170436   2.768   0.804  12.539  1.2845 -0.2303 -1.1298
16315TIP3    H270437   2.810   0.839  12.680 -0.7355 -1.8508 -0.1077
16316TIP3   OH270438   6.081   0.846   5.671 -0.2115  0.1078 -0.0376
16316TIP3    H170439   6.162   0.831   5.720  0.4917  1.4225 -0.7499
16316TIP3    H270440   6.108   0.835   5.579 -0.9905 -0.0676 -0.2453
16317TIP3   OH270441   2.086   2.676   2.193 -0.1863  0.1424 -0.2477
16317TIP3    H170442   2.128   2.711   2.115 -0.2786  0.5202 -0.1263
16317TIP3    H270443   2.053   2.590   2.166  1.3227 -0.4916 -0.1427
16318TIP3   OH270444   4.590   5.131  13.173  0.3389 -0.1669  0.0535
16318TIP3    H170445   4.527   5.063  13.196  1.6806 -0.2425  3.9087
16318TIP3    H270446   4.538   5.211  13.166 -0.6830 -0.8662 -0.3568
16319TIP3   OH270447   4.188   3.233  14.797 -0.3271  0.3657 -0.1142
16319TIP3    H170448   4.154   3.280  14.873 -0.6653  2.5021 -1.5459
16319TIP3    H270449   4.277   3.207  14.823 -0.5642  0.7499  1.1257
16320TIP3   OH270450   5.624   0.052  11.102 -0.0317 -0.1960 -0.2050
16320TIP3    H170451   5.686   0.124  11.090  0.3655 -0.6783 -1.1319
16320TIP3    H270452   5.622   0.038  11.196 -0.3663  1.2429  0.0176
16321TIP3   OH270453   5.245   5.035  16.793 -0.2312  0.6065 -0.2941
16321TIP3    H170454   5.226   5.050  16.886  0.9698 -2.1274  0.4352
16321TIP3    H270455   5.323   5.088  16.776 -0.4247  1.0768  0.2608
16322TIP3   OH270456   5.871   2.766   3.702 -0.1517 -0.3409 -0.4423
16322TIP3    H170457   5.796   2.776   3.644 -1.1426  0.1477  0.8873
16322TIP3    H270458   5.833   2.733   3.784  1.1489 -0.5268  0.0970
16323TIP3   OH270459   4.731   3.973  15.847 -0.3791  0.2343 -0.6223
16323TIP3    H170460   4.787   3.896  15.858  1.3486  1.4513 -0.6753
16323TIP3    H270461   4.768   4.038  15.907 -1.8801  0.9939 -0.5063
16324TIP3   OH270462   6.108   3.707   0.603  0.4921  0.5159 -0.0746
16324TIP3    H170463   6.184   3.652   0.621 -1.6216 -2.3675  0.3205
16324TIP3    H270464   6.120   3.784   0.659  2.9876  0.0240  0.1265
16325TIP3   OH270465   4.291   2.039   6.288  0.1410  0.7702 -0.3631
16325TIP3    H170466   4.376   1.995   6.299 -0.0695  0.3424 -0.4395
16325TIP3    H270467   4.241   2.014   6.366  0.6593  2.3396  0.4804
16326TIP3   OH270468   2.478   0.128   4.307 -0.3434 -0.5374 -0.0760
16326TIP3    H170469   2.387   0.111   4.281 -0.2126 -0.2304 -0.7446
16326TIP3    H270470   2.524   0.046   4.288 -0.3411 -0.4640 -0.3883
16327TIP3   OH270471   0.475   6.805  16.387  0.1729  0.1961  0.0265
16327TIP3    H170472   0.405   6.850  16.435  0.2796 -0.9100  1.2528
16327TIP3    H270473   0.530   6.875  16.353  0.6290  1.0035  2.3374
16328TIP3   OH270474   3.488   0.561   4.782  0.0078  0.4937 -0.2830
16328TIP3    H170475   3.482   0.619   4.705  0.1839  0.2182 -0.5067
16328TIP3    H270476   3.479   0.620   4.857 -0.5433  0.7142 -0.5220
16329TIP3   OH270477   0.001   0.549  15.951  0.2168 -0.6767 -0.1576
16329TIP3    H170478   0.018   0.642  15.968 -1.7390 -0.2987 -0.0569
16329TIP3    H270479  -0.074   0.550  15.892 -0.2728 -2.2027  0.4190
16330TIP3   OH270480   2.205   4.175   2.099  0.7610 -0.6060 -0.0399
16330TIP3    H170481   2.280   4.209   2.147 -0.0214  1.4119 -0.2083
16330TIP3    H270482   2.213   4.079   2.106  2.3749 -0.3816  1.3984
16331TIP3   OH270483   5.649   0.737   2.571 -0.1772 -0.0138 -0.2117
16331TIP3    H170484   5.560   0.764   2.548  0.4905  1.3663 -1.2198
16331TIP3    H270485   5.681   0.807   2.629 -0.2270 -1.2046  1.2948
16332TIP3   OH270486   4.324   4.620  16.315  0.6132  0.3179 -0.0048
16332TIP3    H170487   4.321   4.529  16.286 -4.6079  0.5514 -0.6619
16332TIP3    H270488   4.294   4.617  16.406  1.1852  1.3187  0.2240
16333TIP3   OH270489   3.780   6.220  15.624 -0.2132 -0.2059  0.4059
16333TIP3    H170490   3.774   6.266  15.541  1.3489  0.8770  0.8653
16333TIP3    H270491   3.758   6.286  15.690  0.5640 -0.4918  0.9702
16334TIP3   OH270492   5.436   3.086  16.593 -0.1704 -0.0994 -0.2075
16334TIP3    H170493   5.510   3.145  16.593  0.8541 -1.3303 -1.7386
16334TIP3    H270494   5.375   3.123  16.529  0.2668 -0.4211 -0.8228
16335TIP3   OH270495   4.643   4.050  12.741 -0.3489  0.3316  0.2211
16335TIP3    H170496   4.677   4.133  12.775 -1.8765  1.5826 -1.2407
16335TIP3    H270497   4.697   4.032  12.664 -1.0792  0.8113 -0.4051
16336TIP3   OH270498   0.737   1.485   5.940 -0.3800 -0.0392 -0.3576
16336TIP3    H170499   0.729   1.404   5.990 -2.4600  1.0152  1.0932
16336TIP3    H270500   0.784   1.545   5.998  0.8823 -0.0671 -1.3083
16337TIP3   OH270501   3.534   1.758  14.420 -0.0880 -0.2219  0.3318
16337TIP3    H170502   3.523   1.829  14.356 -0.3367 -0.1827  0.4157
16337TIP3    H270503   3.572   1.801  14.496  3.4097 -0.8633 -0.9598
16338TIP3   OH270504   0.437   1.281   0.130 -0.1524 -0.1020 -0.5706
16338TIP3    H170505   0.469   1.350   0.072 -0.2924  0.3461 -0.1181
16338TIP3    H270506   0.442   1.201   0.078 -0.7621  0.3758 -1.3730
16339TIP3   OH270507   3.796   1.942   0.403  0.7709  1.0872 -0.5143
16339TIP3    H170508   3.868   1.879   0.406 -0.6198 -0.5644 -0.7343
16339TIP3    H270509   3.763   1.937   0.313 -1.5011 -0.3913  0.3620
16340TIP3   OH270510   0.447   1.558   2.641  0.5043  0.1381  0.4358
16340TIP3    H170511   0.454   1.648   2.609  1.7690  0.4554  1.5476
16340TIP3    H270512   0.530   1.517   2.616 -0.2704 -0.8780 -0.5095
16341TIP3   OH270513   2.412   0.823  11.754  0.0908  0.5048  0.0717
16341TIP3    H170514   2.339   0.802  11.812  0.7341 -0.3243  0.6009
16341TIP3    H270515   2.436   0.739  11.715  2.5861  0.2186  2.0621
16342TIP3   OH270516   6.788   2.279   3.802  1.0446 -0.0408 -0.3699
16342TIP3    H170517   6.869   2.231   3.784  2.1160  1.2276  0.9992
16342TIP3    H270518   6.791   2.298   3.895 -0.5937  0.4690 -0.4076
16343TIP3   OH270519   0.884   2.121  11.083 -0.4025 -0.0147  0.4880
16343TIP3    H170520   0.860   2.077  11.002 -0.6917  0.5870  0.2358
16343TIP3    H270521   0.910   2.209  11.055  1.0149 -0.2968  0.8804
16344TIP3   OH270522   1.404   5.860  17.181 -0.1126 -0.4549 -1.1626
16344TIP3    H170523   1.473   5.802  17.149  0.7451  0.3201 -0.7433
16344TIP3    H270524   1.421   5.944  17.139 -0.1330  0.0437 -0.1926
16345TIP3   OH270525   2.407   1.623   1.929 -0.6018 -0.6338 -0.8147
16345TIP3    H170526   2.312   1.629   1.919 -0.9771 -0.1897  2.4902
16345TIP3    H270527   2.421   1.548   1.986  0.7662  1.4393  1.7036
16346TIP3   OH270528   1.938   5.980   5.259 -0.5036  0.4769  0.0110
16346TIP3    H170529   2.027   5.967   5.291 -0.4360  1.6173  0.3394
16346TIP3    H270530   1.940   5.951   5.168 -0.7022 -2.8583  1.0312
16347TIP3   OH270531   4.097   6.743  14.393 -0.1283  0.5137  0.4048
16347TIP3    H170532   4.030   6.787  14.446  1.1529  1.0892  1.6073
16347TIP3    H270533   4.110   6.801  14.318 -1.2279  0.2082 -0.0374
16348TIP3   OH270534   4.528   4.547  12.791 -0.1768 -0.7803 -0.0599
16348TIP3    H170535   4.536   4.640  12.769 -2.3787 -0.7278 -0.7228
16348TIP3    H270536   4.606   4.529  12.844 -0.8981  2.0478  2.1098
16349TIP3   OH270537   6.103   6.629   1.050  0.2786 -0.4977  0.2943
16349TIP3    H170538   6.105   6.641   1.145  1.4937 -0.8824  0.3251
16349TIP3    H270539   6.195   6.630   1.024 -0.0976  1.0409 -1.0598
16350TIP3   OH270540   4.869   0.136   1.414  0.2266  0.0480  0.0346
16350TIP3    H170541   4.954   0.101   1.440 -0.1116 -0.1687  0.8715
16350TIP3    H270542   4.876   0.149   1.319  1.2465  0.2077  0.1315
16351TIP3   OH270543   6.013   6.480  15.601 -0.1216 -0.0486 -0.0523
16351TIP3    H170544   6.088   6.437  15.641  0.8196  1.8531  0.3017
16351TIP3    H270545   5.937   6.432  15.634  0.9094 -1.6915 -0.0391
16352TIP3   OH270546   1.815   4.697   3.310 -0.1245 -0.2185  0.4739
16352TIP3    H170547   1.893   4.642   3.318 -0.0086 -0.3579 -1.3276
16352TIP3    H270548   1.816   4.727   3.219 -2.1612 -0.2224  0.4162
16353TIP3   OH270549   1.682   5.701   5.432  0.5038 -0.5580  0.2532
16353TIP3    H170550   1.649   5.769   5.373  1.9126 -0.1057 -0.0263
16353TIP3    H270551   1.699   5.747   5.515  0.1524 -0.8495  0.4894
16354TIP3   OH270552   6.311   0.657   4.910 -0.1431  0.1737 -0.2046
16354TIP3    H170553   6.344   0.687   4.995 -2.8269 -1.2179  1.3978
16354TIP3    H270554   6.236   0.714   4.892  0.3075  0.3548 -1.6023
16355TIP3   OH270555   1.356   4.105  15.365  0.4512 -0.2943  0.5861
16355TIP3    H170556   1.295   4.177  15.385 -0.2387 -0.8786  0.5849
16355TIP3    H270557   1.305   4.026  15.380  0.4278 -0.7677 -1.8934
16356TIP3   OH270558   2.022   0.761  13.112  0.5801 -0.2314  0.1545
16356TIP3    H170559   2.106   0.716  13.122  1.0575  0.2829 -1.3371
16356TIP3    H270560   2.013   0.772  13.017 -0.8797  0.2767  0.3481
16357TIP3   OH270561   5.479   3.380   4.433  0.0224  0.1580 -0.0616
16357TIP3    H170562   5.444   3.465   4.408  0.5762  0.3040 -0.3547
16357TIP3    H270563   5.466   3.324   4.356  2.1536  0.7367 -0.8819
16358TIP3   OH270564   6.075   1.631  12.451  0.0121 -0.6087  0.2235
16358TIP3    H170565   6.166   1.601  12.452  0.0059 -0.6432 -0.0976
16358TIP3    H270566   6.074   1.701  12.385 -0.3485 -1.0931 -0.2853
16359TIP3   OH270567   5.486   1.887   6.209  0.2508  1.1907 -0.2322
16359TIP3    H170568   5.554   1.949   6.235  0.8094  0.5304 -0.1067
16359TIP3    H270569   5.472   1.831   6.285  0.0097  0.9283 -0.4642
16360TIP3   OH270570   0.594   6.448   5.749  0.5431  0.1795 -0.0719
16360TIP3    H170571   0.654   6.485   5.684 -1.6001 -0.4680 -2.4726
16360TIP3    H270572   0.516   6.502   5.744  0.5432  0.4762  2.4337
16361TIP3   OH270573   0.881   5.380   3.966 -0.0611 -0.0738 -0.2565
16361TIP3    H170574   0.921   5.432   3.896  1.0962 -0.0243  0.4431
16361TIP3    H270575   0.953   5.331   4.004 -0.4917  0.7729  1.6687
16362TIP3   OH270576   4.923   2.234  11.843  0.8090 -0.0872 -0.4587
16362TIP3    H170577   4.965   2.230  11.758  1.4553 -2.7659 -0.0506
16362TIP3    H270578   4.872   2.154  11.849 -1.1023  1.1718  0.7458
16363TIP3   OH270579   0.494   0.028   5.066 -0.7004 -0.2523 -0.1931
16363TIP3    H170580   0.572   0.004   5.115 -1.4134  0.6052  1.3801
16363TIP3    H270581   0.483  -0.044   5.003 -0.3746 -1.9240  1.6027
16364TIP3   OH270582   3.312   5.291   3.500  0.1213 -0.1457 -0.0514
16364TIP3    H170583   3.245   5.336   3.449  0.0346 -0.8912 -0.6121
16364TIP3    H270584   3.395   5.314   3.458  0.0788 -0.4849 -0.3252
16365TIP3   OH270585   1.421   4.357   0.592  0.5201  0.0035  0.0710
16365TIP3    H170586   1.367   4.283   0.619 -1.3755  0.9942 -0.9210
16365TIP3    H270587   1.499   4.317   0.553  0.1914 -1.4457  0.8834
16366TIP3   OH270588   1.854   5.794   2.879 -0.1723 -0.5671 -0.4664
16366TIP3    H170589   1.875   5.791   2.972  0.6480 -0.3192 -0.6380
16366TIP3    H270590   1.939   5.798   2.835 -0.5602  2.2062 -1.1032
16367TIP3   OH270591   0.282   2.727   2.604 -0.2259 -0.4801 -0.3835
16367TIP3    H170592   0.271   2.725   2.509  1.3628 -0.6782 -0.5769
16367TIP3    H270593   0.251   2.814   2.630 -0.9907 -0.5517 -1.0254
16368TIP3   OH270594   5.585   0.374   0.911 -0.0245  0.8037 -1.0902
16368TIP3    H170595   5.632   0.453   0.938 -0.1950  0.4751  0.1746
16368TIP3    H270596   5.542   0.343   0.990  0.4977 -0.8884 -1.4560
16369TIP3   OH270597   0.286   5.774  11.050  0.1351  0.1218 -0.3547
16369TIP3    H170598   0.297   5.866  11.026 -0.4488 -0.1079 -1.5407
16369TIP3    H270599   0.219   5.741  10.989 -1.1310 -0.5705  1.3789
16370TIP3   OH270600   2.839   4.422   2.587  0.2168 -0.5362  0.1092
16370TIP3    H170601   2.899   4.420   2.661  1.2418 -1.5971 -0.7199
16370TIP3    H270602   2.829   4.330   2.562  0.1042 -0.1698 -1.2284
16371TIP3   OH270603   2.369   3.412  15.380  0.0990 -0.0976 -0.2919
16371TIP3    H170604   2.453   3.390  15.420 -0.5852  0.7539  1.7000
16371TIP3    H270605   2.392   3.460  15.300  1.5106 -0.0860  0.1161
16372TIP3   OH270606   1.183   2.069   3.519  0.0883 -0.0166  0.3474
16372TIP3    H170607   1.189   2.159   3.550 -1.5169  0.7750 -1.5377
16372TIP3    H270608   1.243   2.064   3.445  1.0620 -0.8364  1.1804
16373TIP3   OH270609   0.365   6.374  10.591  0.0359  0.1501 -0.0138
16373TIP3    H170610   0.309   6.357  10.515  0.6442 -0.3373 -0.3510
16373TIP3    H270611   0.345   6.302  10.652 -0.8025  0.7985  0.5020
16374TIP3   OH270612   1.131   5.970  16.652  0.6457 -0.3977  0.2209
16374TIP3    H170613   1.183   5.948  16.575 -0.8627  2.4480 -1.6995
16374TIP3    H270614   1.042   5.944  16.630  0.4527 -0.9558  1.6274
16375TIP3   OH270615   0.455   5.962  12.642  0.0118 -0.5506  0.2459
16375TIP3    H170616   0.436   5.992  12.553  0.2939 -2.2574 -0.3986
16375TIP3    H270617   0.402   6.019  12.698 -1.1236 -0.2853 -1.0827
16376TIP3   OH270618   4.004   5.354   3.468  0.2524 -0.1993  0.3146
16376TIP3    H170619   3.945   5.375   3.540  0.7169 -0.7348  0.8546
16376TIP3    H270620   4.049   5.274   3.496  0.3886 -0.4520 -0.5905
16377TIP3   OH270621   2.593   2.201  16.266  0.2592 -0.6259 -0.1682
16377TIP3    H170622   2.562   2.188  16.355  1.1918  0.2853  0.3096
16377TIP3    H270623   2.651   2.127  16.249  1.9813  0.4431  0.8778
16378TIP3   OH270624   2.062   0.911  12.144  0.6318  0.7570  0.0256
16378TIP3    H170625   2.121   0.849  12.188 -1.0852 -0.6312  0.4469
16378TIP3    H270626   2.070   0.992  12.195 -0.8069 -0.6145  2.5172
16379TIP3   OH270627   2.920   5.763  15.036  0.6054 -0.0946  0.0702
16379TIP3    H170628   2.959   5.676  15.025 -0.4679 -0.6386  0.5113
16379TIP3    H270629   2.878   5.760  15.122  0.5621  0.8604  0.0890
16380TIP3   OH270630   0.998   2.936  10.047  0.3393 -0.1835  0.1791
16380TIP3    H170631   0.912   2.977  10.051  0.4057  0.1379 -1.3086
16380TIP3    H270632   0.994   2.866  10.112 -0.8976  0.0928  0.4198
16381TIP3   OH270633   2.811   4.864   4.721 -0.1294 -0.2065  0.3618
16381TIP3    H170634   2.741   4.920   4.754 -0.6402 -0.1876 -0.7476
16381TIP3    H270635   2.778   4.775   4.734 -0.9918 -0.1849 -1.4677
16382TIP3   OH270636   2.852   5.590  14.090  0.4472 -0.0979 -0.0538
16382TIP3    H170637   2.912   5.594  14.016  0.5489  3.2122  0.1424
16382TIP3    H270638   2.765   5.591  14.050  0.5051  0.8894 -0.1585
16383TIP3   OH270639   1.366   0.491   4.371 -0.3217  0.8966  0.1205
16383TIP3    H170640   1.428   0.421   4.391 -0.3103  1.4054  1.9801
16383TIP3    H270641   1.287   0.467   4.420 -0.7479  1.5424 -0.2407
16384TIP3   OH270642   4.096   0.541  12.896  0.7102  0.8698  0.3066
16384TIP3    H170643   4.182   0.584  12.888  1.2689  0.1033  1.8559
16384TIP3    H270644   4.077   0.545  12.990  0.6598 -2.0219  0.4657
16385TIP3   OH270645   1.720   4.304   2.279 -0.1230 -1.0027  0.2329
16385TIP3    H170646   1.790   4.242   2.261 -1.0544 -1.9974 -0.0505
16385TIP3    H270647   1.760   4.370   2.335  0.6109 -2.4295  1.4263
16386TIP3   OH270648   1.409   4.627   0.824  0.4489  0.1210 -0.6674
16386TIP3    H170649   1.494   4.616   0.868  0.2286  1.1403  0.0361
16386TIP3    H270650   1.353   4.561   0.864  0.1987  1.1691  0.7361
16387TIP3   OH270651   0.226   5.408   6.057 -0.2057 -0.4707 -0.7238
16387TIP3    H170652   0.321   5.399   6.051 -0.5446 -4.0636 -2.0499
16387TIP3    H270653   0.207   5.394   6.149  0.5724  0.8110 -0.3512
16388TIP3   OH270654   4.432   3.761  16.797  0.7462  0.5463  0.0132
16388TIP3    H170655   4.447   3.679  16.750 -0.2153  1.2594 -1.5492
16388TIP3    H270656   4.447   3.738  16.889  0.8654 -1.2865 -0.4353
16389TIP3   OH270657   2.029   3.261   3.629 -0.2987 -0.8110  0.5325
16389TIP3    H170658   2.061   3.253   3.539 -0.0760 -0.1587  0.5513
16389TIP3    H270659   1.984   3.345   3.632  1.5922  0.2061  1.5953
16390TIP3   OH270660   2.284   4.561   0.919  0.5404 -0.3235  0.0356
16390TIP3    H170661   2.355   4.509   0.881  0.0379 -1.7556  1.0272
16390TIP3    H270662   2.205   4.523   0.882  0.0876 -1.2194  1.8547
16391TIP3   OH270663   5.839   1.249  11.321 -0.3860 -0.1864 -0.3454
16391TIP3    H170664   5.884   1.332  11.335 -1.7914  0.7397 -1.2608
16391TIP3    H270665   5.874   1.216  11.238 -1.2438  0.4359 -0.9566
16392TIP3   OH270666   4.400   2.781  12.360 -0.5983 -0.5243 -0.2621
16392TIP3    H170667   4.476   2.780  12.301  0.0297  0.8107  0.4789
16392TIP3    H270668   4.341   2.715  12.325  0.1250 -0.3201 -1.9115
16393TIP3   OH270669   1.676   6.555   5.736  0.3311 -0.4350 -0.1787
16393TIP3    H170670   1.611   6.588   5.798 -0.5068  0.6134 -1.5934
16393TIP3    H270671   1.726   6.491   5.786 -0.5798  0.1103  1.4692
16394TIP3   OH270672   5.068   2.780  10.973 -0.2671 -0.2207 -0.1384
16394TIP3    H170673   5.024   2.758  10.891 -0.8296  1.0632 -0.1969
16394TIP3    H270674   5.017   2.736  11.041 -0.7421  0.0009 -0.3449
16395TIP3   OH270675   1.927   1.278  12.563 -0.2533 -0.5737 -0.5557
16395TIP3    H170676   1.841   1.318  12.578 -0.7816 -2.1264  0.7299
16395TIP3    H270677   1.972   1.339  12.505 -1.6547  1.0443  0.0009
16396TIP3   OH270678   0.391   4.464   5.199 -0.2948  0.1891  0.1627
16396TIP3    H170679   0.479   4.444   5.168  0.1956  0.4821  1.3163
16396TIP3    H270680   0.394   4.558   5.219 -0.4550 -0.0782  1.4921
16397TIP3   OH270681   0.605   5.851  13.324  0.3490 -0.6817  0.0506
16397TIP3    H170682   0.698   5.872  13.317  0.0345  1.3924  1.9953
16397TIP3    H270683   0.570   5.869  13.236  0.9380  2.8487  0.4753
16398TIP3   OH270684   3.438   6.717  16.481 -0.0172  0.6056  0.3231
16398TIP3    H170685   3.478   6.633  16.460  1.0523  0.7356  1.7470
16398TIP3    H270686   3.467   6.776  16.412 -0.6465 -0.1605 -0.5972
16399TIP3   OH270687   0.593   4.363  13.375 -0.6353  0.4674  0.1887
16399TIP3    H170688   0.523   4.332  13.432  1.3382  0.1630  2.5590
16399TIP3    H270689   0.601   4.296  13.307 -1.7567 -0.1414  0.6469
16400TIP3   OH270690   4.332   2.494   0.828  0.0854  0.3312  0.3605
16400TIP3    H170691   4.352   2.401   0.836  2.3847  0.5216 -2.7486
16400TIP3    H270692   4.358   2.531   0.912 -0.2987 -1.6920  1.4084
16401TIP3   OH270693   4.041   5.928  13.224  0.0261  0.1564  0.0842
16401TIP3    H170694   4.084   5.843  13.230 -1.5409 -0.5364  2.1252
16401TIP3    H270695   3.947   5.907  13.225 -0.3753  1.9186  0.6049
16402TIP3   OH270696   0.153   0.996  11.828 -0.4727  0.1186 -0.1052
16402TIP3    H170697   0.127   1.062  11.764  0.1711 -0.1797 -0.6835
16402TIP3    H270698   0.196   0.928  11.777 -1.2992 -0.8526  0.4603
16403TIP3   OH270699   3.705   1.273  13.504 -0.3324  0.1849  0.3494
16403TIP3    H170700   3.614   1.297  13.485 -1.1121 -1.7805  1.4623
16403TIP3    H270701   3.699   1.185  13.541  1.9785  0.2990  1.0365
16404TIP3   OH270702   2.426   1.232   4.126  0.2451 -0.1684 -0.4497
16404TIP3    H170703   2.360   1.213   4.059  1.2854 -0.2994 -1.4565
16404TIP3    H270704   2.428   1.153   4.181  0.4135 -0.6459 -1.1359
16405TIP3   OH270705   3.638   0.109  15.533 -0.8038 -0.1486 -0.0742
16405TIP3    H170706   3.642   0.191  15.483  3.6759  0.3252  0.9169
16405TIP3    H270707   3.653   0.041  15.467 -0.3244  0.0946 -0.2184
16406TIP3   OH270708   3.038   2.305  15.028  0.4882 -0.8431  0.2867
16406TIP3    H170709   3.028   2.245  14.955  1.5920 -0.2938 -0.3375
16406TIP3    H270710   3.084   2.381  14.991 -0.6633  0.2875  1.0994
16407TIP3   OH270711   6.769   2.575  15.163  0.2693  0.0488  0.5606
16407TIP3    H170712   6.828   2.502  15.143  0.9693  0.4510  1.1260
16407TIP3    H270713   6.815   2.625  15.230 -0.2717  0.9343  0.2787
16408TIP3   OH270714   6.263   2.174   1.897  0.3320  0.2835  0.3778
16408TIP3    H170715   6.249   2.109   1.828 -2.8108  0.6185  0.6152
16408TIP3    H270716   6.266   2.124   1.978 -0.0696  0.2307  0.3635
16409TIP3   OH270717   6.025   1.123   1.043 -0.3041  0.4883  0.7192
16409TIP3    H170718   6.002   1.073   0.965 -0.9761 -0.8366  1.7509
16409TIP3    H270719   6.106   1.168   1.020 -0.2095 -0.3248 -0.5515
16410TIP3   OH270720   5.948   2.037  12.586  0.0103  0.1210 -0.1773
16410TIP3    H170721   5.997   2.043  12.669  1.0641 -1.3087 -0.6715
16410TIP3    H270722   6.014   2.051  12.518 -0.5435 -0.2993 -0.8099
16411TIP3   OH270723   5.590   1.704  17.265  0.1875 -0.1389  0.1073
16411TIP3    H170724   5.624   1.754  17.339  0.1810 -0.3931  0.2832
16411TIP3    H270725   5.497   1.723  17.264  0.2724  0.2727 -0.1495
16412TIP3   OH270726   3.732   3.429   3.990 -0.0431  0.2277  0.0359
16412TIP3    H170727   3.791   3.357   4.007 -0.4291  0.5129  2.7501
16412TIP3    H270728   3.789   3.506   3.983  0.1974 -0.0330 -0.8929
16413TIP3   OH270729   1.622   4.683   0.993  0.3721  0.3342 -0.4385
16413TIP3    H170730   1.578   4.667   1.077  0.1070 -0.3178 -0.7038
16413TIP3    H270731   1.657   4.772   1.002 -2.3387  1.5082 -0.7981
16414TIP3   OH270732   2.835   3.900  12.569  0.0432  0.2797 -0.1147
16414TIP3    H170733   2.750   3.893  12.525 -0.1039  0.2054  0.1797
16414TIP3    H270734   2.859   3.809  12.587  0.1665  0.3033 -0.1561
16415TIP3   OH270735   0.324   2.544   3.522 -0.0380  0.3785 -0.0952
16415TIP3    H170736   0.375   2.495   3.457  0.1789 -1.1790  1.2202
16415TIP3    H270737   0.361   2.632   3.520 -0.0919  0.3899 -2.1393
16416TIP3   OH270738   4.804   1.922   1.807  0.2360  0.1616 -0.2455
16416TIP3    H170739   4.773   1.987   1.870 -0.2176 -0.0702 -0.2304
16416TIP3    H270740   4.760   1.840   1.832 -0.4844  0.2198 -1.2747
16417TIP3   OH270741   0.919   4.848  16.738 -0.4305  0.3137 -0.0522
16417TIP3    H170742   0.908   4.901  16.659 -0.4699  1.6935  0.8575
16417TIP3    H270743   0.830   4.830  16.767 -0.4305  2.2438  1.2483
16418TIP3   OH270744   0.920   0.949   2.573 -0.3620 -0.2135  0.1022
16418TIP3    H170745   0.966   0.904   2.502 -0.0407  0.3335 -0.0402
16418TIP3    H270746   0.914   1.040   2.544 -1.1884 -0.2030  0.2983
16419TIP3   OH270747   5.053   0.682   5.327  0.3642  0.3652  0.0992
16419TIP3    H170748   5.033   0.768   5.290  2.9592  1.8189  1.9301
16419TIP3    H270749   5.019   0.685   5.416 -2.5626 -1.8024 -0.8426
16420TIP3   OH270750   2.678   3.034  16.415 -0.1378 -0.0437 -0.0460
16420TIP3    H170751   2.759   3.084  16.401  0.7113 -1.2903  0.3095
16420TIP3    H270752   2.703   2.943  16.397 -1.6007 -0.3725 -0.4386
16421TIP3   OH270753   0.736   5.675   4.236  0.1296 -0.5924 -0.3793
16421TIP3    H170754   0.824   5.712   4.221  0.5481 -1.4711 -0.1333
16421TIP3    H270755   0.686   5.701   4.159  0.4414  0.4112 -0.2564
16422TIP3   OH270756   0.665   1.406   4.792  0.2003 -0.3158  0.1082
16422TIP3    H170757   0.655   1.357   4.711  0.6402 -2.7730  1.4941
16422TIP3    H270758   0.746   1.372   4.831  0.8114  1.8896  0.8819
16423TIP3   OH270759   5.842   4.958  12.749 -0.6548  0.2103  0.8878
16423TIP3    H170760   5.772   5.021  12.765 -1.8633 -1.0542  0.5929
16423TIP3    H270761   5.837   4.898  12.824  0.1933  0.1798  0.9230
16424TIP3   OH270762   5.286   1.653   6.003 -0.4852 -0.4320 -0.0645
16424TIP3    H170763   5.277   1.558   5.994 -0.8521 -0.3051 -1.0765
16424TIP3    H270764   5.241   1.673   6.085 -0.9008 -1.0699 -0.1272
16425TIP3   OH270765   0.769   0.751  13.704  0.2400  0.0419 -0.0773
16425TIP3    H170766   0.719   0.671  13.689  0.6119 -0.1141 -0.4933
16425TIP3    H270767   0.783   0.754  13.799  1.7908 -1.3377 -0.2372
16426TIP3   OH270768   4.531   1.526   4.322  0.4521  1.1742  0.3853
16426TIP3    H170769   4.521   1.505   4.415 -1.0565  0.1097 -0.0156
16426TIP3    H270770   4.442   1.529   4.287  1.0878 -0.8752 -1.5589
16427TIP3   OH270771   6.695   0.930  12.918 -0.3360 -0.4102 -0.2053
16427TIP3    H170772   6.677   0.951  12.827  0.0914 -0.5682 -0.3272
16427TIP3    H270773   6.678   1.011  12.966  0.5136 -0.0158 -0.5644
16428TIP3   OH270774   0.721   1.457   1.214  0.0726  0.2472  0.2810
16428TIP3    H170775   0.763   1.398   1.151  0.2394 -0.2134  0.8182
16428TIP3    H270776   0.741   1.418   1.300  0.4243  1.2332  0.6551
16429TIP3   OH270777   2.813   3.090   0.351 -0.3750  0.2716 -0.2391
16429TIP3    H170778   2.753   3.151   0.396  1.1821  1.7821 -0.1401
16429TIP3    H270779   2.770   3.073   0.267 -1.9007 -0.2582  0.6130
16430TIP3   OH270780   4.643   3.100   2.709 -0.3021  0.3322 -0.1501
16430TIP3    H170781   4.659   3.192   2.728  0.0357  0.2987 -0.2639
16430TIP3    H270782   4.584   3.100   2.634 -1.9250  0.4684  1.1102
16431TIP3   OH270783   0.595   3.528  16.524 -0.3985  0.2612 -0.5114
16431TIP3    H170784   0.686   3.550  16.504 -0.8261  0.2589 -2.6076
16431TIP3    H270785   0.601   3.467  16.597  1.3029  0.1879 -0.6873
16432TIP3   OH270786   3.806   2.992   2.664 -0.4058 -0.1429  0.1226
16432TIP3    H170787   3.842   2.970   2.578  1.4137  0.0313  0.8042
16432TIP3    H270788   3.728   3.044   2.645 -0.0046 -0.0686 -1.4295
16433TIP3   OH270789   0.845   5.194  17.224 -0.0913  0.4111 -0.3239
16433TIP3    H170790   0.889   5.212  17.141 -0.0983  1.8657 -0.0146
16433TIP3    H270791   0.867   5.103  17.243  0.6397  0.3388 -1.4744
16434TIP3   OH270792   3.349   5.705   2.135 -0.1891  0.3875  0.3378
16434TIP3    H170793   3.271   5.688   2.082 -0.3690  1.4524  0.2475
16434TIP3    H270794   3.390   5.619   2.146 -0.5663  0.0427 -0.8881
16435TIP3   OH270795   3.239   2.308  12.458 -0.7668  0.3941  0.2856
16435TIP3    H170796   3.154   2.333  12.421 -0.5904 -0.5114 -0.7386
16435TIP3    H270797   3.238   2.344  12.547 -3.0371 -1.3692  0.9962
16436TIP3   OH270798   5.577   4.036   6.262 -0.6412 -0.4667 -0.8548
16436TIP3    H170799   5.532   3.952   6.261  0.7152 -1.2250 -0.4660
16436TIP3    H270800   5.663   4.016   6.300 -0.5431  1.2160 -0.1434
16437TIP3   OH270801   5.692   3.451   1.090 -0.0259 -0.5952 -0.1048
16437TIP3    H170802   5.661   3.364   1.116 -0.3856 -1.1016 -2.1892
16437TIP3    H270803   5.773   3.463   1.140 -0.5363 -1.6615  1.0259
16438TIP3   OH270804   5.768   2.019   2.138  0.2934  0.4027 -0.4870
16438TIP3    H170805   5.832   1.966   2.090  0.0582 -0.2526 -0.0799
16438TIP3    H270806   5.708   1.956   2.177  1.8073  0.7396  2.5829
16439TIP3   OH270807   3.785   1.462   0.780 -0.1717  0.0580 -0.5286
16439TIP3    H170808   3.769   1.502   0.695 -0.1163 -1.1106 -1.0940
16439TIP3    H270809   3.873   1.491   0.805 -0.6244  1.3088 -0.3456
16440TIP3   OH270810   5.425   5.189  13.514  0.9016  0.1811 -0.1576
16440TIP3    H170811   5.507   5.153  13.550 -1.0098 -1.0478  3.1749
16440TIP3    H270812   5.430   5.282  13.534  0.9075 -0.1103  1.2483
16441TIP3   OH270813   1.213   0.592  14.228 -0.2778 -0.2487  0.1021
16441TIP3    H170814   1.289   0.616  14.176 -0.3833 -0.0202  0.0538
16441TIP3    H270815   1.139   0.607  14.169 -0.4588  0.7699  0.5900
16442TIP3   OH270816   0.151   4.854   4.661  0.0885 -0.5619  0.1242
16442TIP3    H170817   0.081   4.875   4.600  0.7493 -0.4536 -0.5995
16442TIP3    H270818   0.142   4.760   4.676  0.0317 -0.6197 -0.2673
16443TIP3   OH270819   4.194   6.200  11.730  0.1372 -0.1820  0.5359
16443TIP3    H170820   4.114   6.159  11.763 -0.4683  0.7038  0.1756
16443TIP3    H270821   4.196   6.179  11.637 -0.9272  1.8110  0.0513
16444TIP3   OH270822   1.395   0.944  15.058 -0.0055 -0.0673  0.1938
16444TIP3    H170823   1.427   0.914  14.973  1.7677 -0.4505  0.9775
16444TIP3    H270824   1.412   0.870  15.117 -0.0977  0.6589  1.1398
16445TIP3   OH270825   1.726   4.447  12.287 -0.2029  0.5798  0.1052
16445TIP3    H170826   1.724   4.351  12.295  1.5783  0.5173  0.0545
16445TIP3    H270827   1.691   4.465  12.200 -0.0995 -0.0573 -0.0717
16446TIP3   OH270828   1.342   5.832  14.437 -0.0412 -0.2988 -0.9250
16446TIP3    H170829   1.355   5.911  14.384  1.1711 -0.4595 -0.8841
16446TIP3    H270830   1.329   5.762  14.373 -0.1264 -0.2392 -0.9743
16447TIP3   OH270831   2.319   4.007   1.874  0.4291 -0.4434 -0.2726
16447TIP3    H170832   2.281   4.094   1.888 -0.6709 -0.9385 -0.1482
16447TIP3    H270833   2.253   3.960   1.823  0.0820 -1.8860  1.4517
16448TIP3   OH270834   5.729   1.181   2.773 -0.2822 -0.3862  0.0506
16448TIP3    H170835   5.821   1.154   2.776 -0.3615 -0.8494 -1.1328
16448TIP3    H270836   5.727   1.266   2.818  0.5483 -0.8265  0.9332
16449TIP3   OH270837   4.105   5.783  15.734 -0.1539  0.2470  0.4494
16449TIP3    H170838   4.196   5.771  15.760  0.1547  0.9533 -0.2826
16449TIP3    H270839   4.061   5.703  15.763  1.0717 -0.9479 -0.8994
16450TIP3   OH270840   4.797   0.173  13.028 -0.5908 -0.2063 -0.4131
16450TIP3    H170841   4.792   0.265  13.001  2.7881  0.5461  1.3073
16450TIP3    H270842   4.779   0.124  12.948  4.6264  1.9792 -3.1835
16451TIP3   OH270843   3.255   1.855  15.616 -0.0486 -0.0066 -0.0364
16451TIP3    H170844   3.163   1.853  15.640  0.2774 -2.0209  1.1641
16451TIP3    H270845   3.258   1.903  15.533 -1.9623  1.4648  0.7301
16452TIP3   OH270846   6.222   0.192   0.944 -0.1813 -0.0286 -0.1540
16452TIP3    H170847   6.311   0.176   0.910  0.1493 -2.1208  1.6048
16452TIP3    H270848   6.236   0.238   1.026 -0.6276 -2.0812  1.0914
16453TIP3   OH270849   3.513   4.114  15.211  0.5873 -0.3307  0.4947
16453TIP3    H170850   3.461   4.035  15.226 -1.5867  0.6749 -1.4040
16453TIP3    H270851   3.514   4.159  15.295  1.3395 -2.0595  1.4343
16454TIP3   OH270852   1.605   3.067  11.796 -0.0644 -0.0619  0.5559
16454TIP3    H170853   1.547   3.016  11.740  1.6824 -0.8426 -0.5719
16454TIP3    H270854   1.693   3.046  11.765  0.7986  1.5948  1.8168
16455TIP3   OH270855   5.309   4.076  15.309 -0.0557  0.0919  0.4372
16455TIP3    H170856   5.336   4.167  15.311 -0.2910  0.1721  0.1187
16455TIP3    H270857   5.374   4.032  15.254 -2.0586  0.8088 -2.6520
16456TIP3   OH270858   3.738   0.974   3.472 -0.4729  0.3988  0.3929
16456TIP3    H170859   3.722   1.068   3.465  3.1508  1.1516  1.3760
16456TIP3    H270860   3.800   0.954   3.402 -1.5762 -1.3984 -0.1275
16457TIP3   OH270861   5.235   4.000   2.534 -0.4112 -0.1599  0.1556
16457TIP3    H170862   5.278   4.074   2.575  0.1149 -0.5512  0.3265
16457TIP3    H270863   5.297   3.927   2.546 -1.1117 -0.7185  0.3699
16458TIP3   OH270864   3.062   5.157   0.817 -0.2910 -0.8921  0.3180
16458TIP3    H170865   3.108   5.207   0.884  0.0082 -0.6632 -0.0591
16458TIP3    H270866   3.107   5.073   0.815  0.5997 -0.4129 -0.5681
16459TIP3   OH270867   6.099   4.695   1.542 -0.2808 -0.3164  0.0621
16459TIP3    H170868   6.129   4.766   1.599  1.6447 -0.8334 -0.2810
16459TIP3    H270869   6.175   4.637   1.533 -1.8777 -2.5730  0.5436
16460TIP3   OH270870   1.400   5.405   2.906 -0.0222 -0.0055 -0.4085
16460TIP3    H170871   1.333   5.352   2.863 -1.3975  1.8925 -0.6342
16460TIP3    H270872   1.480   5.353   2.898 -1.4154 -2.2559 -0.2273
16461TIP3   OH270873   2.215   6.416   6.537 -0.1201 -0.2950 -0.2511
16461TIP3    H170874   2.189   6.325   6.523 -0.8959 -0.4661  2.1025
16461TIP3    H270875   2.161   6.466   6.476 -2.1534 -1.1352  0.8218
16462TIP3   OH270876   3.856   2.272   0.156  0.1438  0.7574  0.3565
16462TIP3    H170877   3.787   2.298   0.095  1.7874  1.9068 -1.0588
16462TIP3    H270878   3.893   2.192   0.117  0.4401  0.8526  0.4416
16463TIP3   OH270879   4.353   2.831   5.730 -0.1394  0.0941  0.0805
16463TIP3    H170880   4.277   2.883   5.758  0.2943 -0.0083  1.5011
16463TIP3    H270881   4.331   2.741   5.756  0.2062 -0.0344 -0.0656
16464TIP3   OH270882   3.185   0.407  14.350  0.4779 -0.5002 -0.1802
16464TIP3    H170883   3.250   0.339  14.332  0.2873 -0.6124 -0.4487
16464TIP3    H270884   3.102   0.368  14.323  0.0681 -0.9544  1.6365
16465TIP3   OH270885   2.452   0.710   1.643  0.4630 -0.6452 -0.3657
16465TIP3    H170886   2.415   0.798   1.634  0.0220 -0.7046  0.7628
16465TIP3    H270887   2.414   0.661   1.571  0.8094  0.1146 -1.0821
16466TIP3   OH270888   3.060   3.032  14.247 -0.2561  0.5681 -0.4175
16466TIP3    H170889   3.144   2.987  14.237 -0.1050 -0.0505  3.1212
16466TIP3    H270890   3.078   3.122  14.220  1.5354  0.4421  0.3013
16467TIP3   OH270891   2.000   0.410  13.199  0.1415 -0.4820  0.1388
16467TIP3    H170892   1.999   0.502  13.227  0.4047 -0.2260 -0.6812
16467TIP3    H270893   2.056   0.366  13.264 -0.3838 -0.1581  0.8158
16468TIP3   OH270894   2.988   3.696   6.676  0.0988  0.3262 -0.0553
16468TIP3    H170895   2.930   3.679   6.602 -2.5738  0.3342  1.9719
16468TIP3    H270896   2.965   3.784   6.705  2.3433  1.0129 -0.2412
16469TIP3   OH270897   4.111   2.501  12.728 -0.3398  0.7798 -0.5635
16469TIP3    H170898   4.058   2.538  12.798  0.3473  0.7851 -0.0376
16469TIP3    H270899   4.166   2.574  12.697  1.1759  0.1715  0.6289
16470TIP3   OH270900   0.340   1.161  13.291 -0.1448 -0.5903  0.2505
16470TIP3    H170901   0.420   1.210  13.275 -0.5687 -0.2048 -0.7065
16470TIP3    H270902   0.356   1.076  13.251 -1.3760  0.5224 -2.7365
16471TIP3   OH270903   1.525   3.975   4.005 -0.5843  0.0003 -0.4299
16471TIP3    H170904   1.464   3.907   4.034 -1.6033  1.0908  0.0246
16471TIP3    H270905   1.471   4.036   3.954  0.1933  0.7775 -0.3432
16472TIP3   OH270906   4.845   0.164   3.687  0.1100 -0.4689 -1.0832
16472TIP3    H170907   4.839   0.204   3.600 -0.3475  0.2772 -0.7207
16472TIP3    H270908   4.896   0.227   3.738  1.4410 -1.4877 -1.1281
16473TIP3   OH270909   4.297   6.390  15.946 -0.6202  0.3991  0.2937
16473TIP3    H170910   4.235   6.451  15.987 -0.1588  1.4052 -0.4916
16473TIP3    H270911   4.383   6.421  15.973 -0.4118 -0.3890  0.5468
16474TIP3   OH270912   5.066   1.402  13.704 -0.3070 -0.4676 -0.1650
16474TIP3    H170913   5.106   1.388  13.790 -0.3425  0.8882  0.0824
16474TIP3    H270914   5.140   1.404  13.644 -0.2022 -0.5099 -0.0378
16475TIP3   OH270915   2.444   6.689   4.107 -0.2756  0.8388  0.4944
16475TIP3    H170916   2.494   6.653   4.180 -2.8999 -1.2182  1.3260
16475TIP3    H270917   2.482   6.649   4.029 -1.1758 -1.3746  1.1822
16476TIP3   OH270918   0.445   2.532  13.499  0.3568 -0.2190 -0.5316
16476TIP3    H170919   0.527   2.508  13.454  0.5421  1.1901 -0.9691
16476TIP3    H270920   0.470   2.601  13.560 -0.9937  2.3296 -2.7753
16477TIP3   OH270921   1.330   2.031   4.172 -0.3001  0.3040 -0.3803
16477TIP3    H170922   1.322   1.985   4.256 -0.2714  2.2321  0.6922
16477TIP3    H270923   1.247   2.012   4.127 -0.4049 -0.5617  0.1671
16478TIP3   OH270924   3.073   3.552   5.163  0.4526  0.2675  0.1542
16478TIP3    H170925   3.089   3.646   5.169  2.8990 -0.1328  0.4360
16478TIP3    H270926   3.054   3.526   5.253  0.9641  0.2998  0.2737
16479TIP3   OH270927   6.368   1.349  11.169  0.5781 -0.2393  0.2865
16479TIP3    H170928   6.354   1.322  11.260 -1.6531  0.1658  0.0909
16479TIP3    H270929   6.432   1.419  11.175 -1.9737  2.0656  1.9347
16480TIP3   OH270930   5.091   3.236   0.390  0.6010 -0.5595  0.2323
16480TIP3    H170931   5.057   3.259   0.304 -0.0808  0.2132  0.7069
16480TIP3    H270932   5.014   3.213   0.442  1.1227 -2.4303  0.2238
16481TIP3   OH270933   3.626   2.519   5.131  0.2486  0.0223 -0.1055
16481TIP3    H170934   3.712   2.506   5.172 -0.4950 -0.8211  1.1902
16481TIP3    H270935   3.566   2.536   5.203 -0.7968  0.0630 -0.9668
16482TIP3   OH270936   2.791   6.429   5.673  0.0774 -0.7961 -0.2868
16482TIP3    H170937   2.834   6.398   5.752 -1.8905 -2.4367  0.1752
16482TIP3    H270938   2.724   6.490   5.704 -1.3562 -2.1923 -0.6039
16483TIP3   OH270939   5.658   3.752  13.173 -0.4084 -0.3140 -0.1491
16483TIP3    H170940   5.719   3.719  13.107 -0.4848 -1.1346  0.1875
16483TIP3    H270941   5.702   3.828  13.211 -0.2458 -0.0087 -0.9498
16484TIP3   OH270942   5.136   2.276  12.008  0.5521  0.1837 -0.7032
16484TIP3    H170943   5.056   2.277  11.955  0.5086 -0.1433 -0.6415
16484TIP3    H270944   5.192   2.211  11.967  0.5171 -0.0732 -0.3436
16485TIP3   OH270945   1.296   2.894   0.772 -0.2650 -0.3555  0.1250
16485TIP3    H170946   1.244   2.955   0.824  0.5739 -0.8610  1.5808
16485TIP3    H270947   1.300   2.934   0.685 -1.1584  0.8008  0.5985
16486TIP3   OH270948   0.673   0.844   2.645  0.4753 -0.2443  0.0276
16486TIP3    H170949   0.598   0.867   2.590  0.6670  0.3761  0.0156
16486TIP3    H270950   0.749   0.855   2.587  0.6346 -0.0957  0.2644
16487TIP3   OH270951   5.094   5.000   1.789  0.1045  0.4500  0.1962
16487TIP3    H170952   5.070   5.088   1.818 -1.4059  0.3572 -0.7036
16487TIP3    H270953   5.113   4.953   1.871  1.1136  1.6463  0.6674
16488TIP3   OH270954   1.362   6.757   3.062 -0.6696 -0.0444 -0.5852
16488TIP3    H170955   1.374   6.693   2.992  0.5312 -0.8813  0.3616
16488TIP3    H270956   1.282   6.804   3.038 -0.7866 -0.9434 -2.0259
16489TIP3   OH270957   3.639   6.019   0.619 -0.3871  0.3504 -0.9308
16489TIP3    H170958   3.630   6.114   0.619  2.2005  0.6372  1.0807
16489TIP3    H270959   3.680   5.999   0.534  1.2003  1.2642 -0.3871
16490TIP3   OH270960   0.116   3.472   1.172 -0.2626  0.9409  0.4712
16490TIP3    H170961   0.187   3.427   1.217 -0.5456  0.2200  0.2072
16490TIP3    H270962   0.085   3.409   1.107 -0.0779  1.8471 -0.5108
16491TIP3   OH270963   0.755   5.405  13.018  0.0773 -0.3663 -0.2517
16491TIP3    H170964   0.694   5.368  12.954  0.6912 -0.8620 -0.5534
16491TIP3    H270965   0.832   5.429  12.966  0.7762 -1.2371  0.3841
16492TIP3   OH270966   3.315   2.119  13.138 -0.2315 -0.4173  0.3001
16492TIP3    H170967   3.381   2.082  13.079  0.2053 -0.4406  0.8031
16492TIP3    H270968   3.272   2.187  13.086 -1.0675 -1.6572 -0.6522
16493TIP3   OH270969   5.598   5.547   0.615  0.0242 -0.0084 -0.7711
16493TIP3    H170970   5.671   5.607   0.596  0.6810 -0.1431  1.2373
16493TIP3    H270971   5.522   5.590   0.576  0.5884  1.8567  0.1025
16494TIP3   OH270972   0.108   5.893  12.971  0.4526  0.3389 -0.5001
16494TIP3    H170973   0.176   5.829  12.992 -1.2071 -0.8225  1.5515
16494TIP3    H270974   0.142   5.976  13.003  0.4376 -0.4366  1.6245
16495TIP3   OH270975   1.840   2.840   0.800 -0.0179  0.3146  0.3999
16495TIP3    H170976   1.763   2.832   0.744  0.3517  0.1910 -0.0904
16495TIP3    H270977   1.836   2.764   0.857  2.4841 -2.4888 -3.0074
16496TIP3   OH270978   5.391   2.620   4.925 -0.3449  0.7888  0.3579
16496TIP3    H170979   5.468   2.648   4.875 -0.3951  0.2322 -0.0424
16496TIP3    H270980   5.423   2.604   5.013 -0.3013  2.0264  0.5658
16497TIP3   OH270981   5.328   2.553  13.341 -0.3394  0.4504  0.6759
16497TIP3    H170982   5.406   2.602  13.315 -1.7054  2.6411  0.5897
16497TIP3    H270983   5.324   2.479  13.280  0.8984  1.1127 -0.2161
16498TIP3   OH270984   0.286   4.019  15.170  0.0684  0.1398  0.3862
16498TIP3    H170985   0.203   3.977  15.148 -0.1363  0.8507 -0.1675
16498TIP3    H270986   0.347   3.989  15.102 -0.3356  1.5834 -0.6200
16499TIP3   OH270987   4.920   2.526   4.589 -0.4465  0.3158  0.0350
16499TIP3    H170988   5.015   2.540   4.595 -0.2041 -0.5046 -1.4530
16499TIP3    H270989   4.890   2.592   4.526 -0.1781 -2.0573 -2.6746
16500TIP3   OH270990   0.274   1.894  13.020 -0.5669 -0.7177 -0.3606
16500TIP3    H170991   0.306   1.848  12.942 -1.8753  0.9297 -1.8878
16500TIP3    H270992   0.179   1.898  13.008 -0.6593  0.5828  0.7460
16501TIP3   OH270993   4.017   6.220   2.895 -0.0651  0.2874 -0.0074
16501TIP3    H170994   4.058   6.303   2.873  0.9603  0.1952  1.5294
16501TIP3    H270995   3.937   6.244   2.942 -0.1230  0.4147 -0.1720
16502TIP3   OH270996   6.574   4.310  12.752 -0.3846 -0.0413  0.3513
16502TIP3    H170997   6.656   4.358  12.745 -0.0819 -0.9089 -2.5736
16502TIP3    H270998   6.591   4.244  12.819  0.8203  0.6955  0.7981
16503TIP3   OH270999   4.730   5.174   4.317 -0.1703  0.0787  0.0040
16503TIP3    H171000   4.762   5.123   4.391  0.6553 -0.5906 -0.8054
16503TIP3    H271001   4.646   5.133   4.294 -0.0063 -0.2623  0.0106
16504TIP3   OH271002   1.584   0.518   0.638 -0.1254  0.3475 -1.2811
16504TIP3    H171003   1.523   0.562   0.578 -2.1905 -0.5811  0.0911
16504TIP3    H271004   1.556   0.427   0.637 -1.5176  0.6417  2.6053
16505TIP3   OH271005   1.838   1.929   2.799  0.1858 -0.4429  0.5465
16505TIP3    H171006   1.759   1.906   2.848 -0.5077 -1.0652 -0.8318
16505TIP3    H271007   1.899   1.857   2.816 -0.1594 -0.8018  0.2629
16506TIP3   OH271008   0.511   0.167  14.581 -0.0266 -0.3958 -0.2186
16506TIP3    H171009   0.565   0.105  14.631  0.9030 -0.1614 -0.9097
16506TIP3    H271010   0.457   0.112  14.525  1.3921 -0.5721 -1.4332
16507TIP3   OH271011   2.572   3.886   1.009  0.5255  0.1341  0.0745
16507TIP3    H171012   2.621   3.831   1.071  0.2236 -1.2045 -0.8358
16507TIP3    H271013   2.629   3.894   0.933 -0.4099 -0.9686 -0.7682
16508TIP3   OH271014   4.374   1.474  13.870  0.5750 -0.4948  0.1899
16508TIP3    H171015   4.330   1.510  13.792  0.3602 -0.0386  0.5207
16508TIP3    H271016   4.305   1.471  13.937  1.4354  1.6958  1.1826
16509TIP3   OH271017   2.344   1.736  11.707  0.0352 -0.4077 -0.1758
16509TIP3    H171018   2.360   1.814  11.655  2.2650 -0.5298  0.2434
16509TIP3    H271019   2.396   1.749  11.786  0.3889 -2.2633 -0.0765
16510TIP3   OH271020   0.117   4.603   2.719  0.2525 -0.4691  0.0254
16510TIP3    H171021   0.127   4.545   2.643  0.6144  0.6403 -0.7789
16510TIP3    H271022   0.187   4.667   2.710  0.6259 -0.6308  1.5905
16511TIP3   OH271023   3.533   6.113   2.627 -0.1542 -0.4406 -0.8829
16511TIP3    H171024   3.547   6.123   2.533 -1.7433 -1.0972 -1.2016
16511TIP3    H271025   3.545   6.020   2.643  0.5044 -0.2730 -0.3494
16512TIP3   OH271026   6.178   0.660  12.919 -0.0590 -0.0357  0.4093
16512TIP3    H171027   6.253   0.719  12.925  0.2582 -0.3264 -0.6637
16512TIP3    H271028   6.102   0.718  12.927  0.2502  0.5373 -0.7042
16513TIP3   OH271029   0.837   4.501   1.753 -0.1203  0.2926  0.1664
16513TIP3    H171030   0.810   4.486   1.843  1.4388 -1.0237  0.4490
16513TIP3    H271031   0.912   4.443   1.741 -0.5308  0.1752 -2.0860
16514TIP3   OH271032   2.811   6.126  11.423 -0.1357 -0.1441  0.9814
16514TIP3    H171033   2.876   6.158  11.360 -0.6136 -0.2385  0.4287
16514TIP3    H271034   2.844   6.154  11.508  0.9360 -0.7006  0.7620
16515TIP3   OH271035   3.125   4.848   3.668 -0.3532  0.5238  0.3102
16515TIP3    H171036   3.158   4.860   3.757 -1.1421 -2.4495  1.0573
16515TIP3    H271037   3.030   4.846   3.677 -0.4049 -0.9888 -0.3987
16516TIP3   OH271038   6.387   4.632   3.609  0.0603 -0.4179 -0.7274
16516TIP3    H171039   6.299   4.635   3.646  0.9066 -0.1460  1.3462
16516TIP3    H271040   6.389   4.704   3.546 -0.5090  1.0157  0.8541
16517TIP3   OH271041   4.280   1.061   5.198 -0.0295 -0.5502  0.4023
16517TIP3    H171042   4.338   0.985   5.203  1.3020  0.4617  0.6977
16517TIP3    H271043   4.231   1.048   5.117  2.1002 -0.4132 -0.9607
16518TIP3   OH271044   5.053   3.213  15.504  0.4824 -0.1929  0.2086
16518TIP3    H171045   4.959   3.229  15.516  0.4731 -0.7202  0.8566
16518TIP3    H271046   5.085   3.193  15.592  1.3305  0.6269  0.0974
16519TIP3   OH271047   3.801   1.749   4.102  0.1134  0.1806 -0.4508
16519TIP3    H171048   3.834   1.735   4.014  0.5948  2.3183 -0.6484
16519TIP3    H271049   3.707   1.732   4.095  0.1554  0.3019 -1.3690
16520TIP3   OH271050   6.023   0.252  15.708  0.4629  0.7347 -0.1123
16520TIP3    H171051   6.038   0.303  15.788 -0.7846  0.0319  0.5814
16520TIP3    H271052   5.993   0.167  15.739  1.4074 -0.0549 -1.2989
16521TIP3   OH271053   0.896   4.740  11.197  0.1260 -0.2392  0.4589
16521TIP3    H171054   0.854   4.730  11.282  1.1707  0.5894  1.0851
16521TIP3    H271055   0.839   4.799  11.148 -0.1933 -0.2675  0.7990
16522TIP3   OH271056   1.244   6.157   5.753  0.6044  0.4459 -0.3922
16522TIP3    H171057   1.289   6.233   5.791  0.7311 -0.5234  1.4316
16522TIP3    H271058   1.151   6.173   5.769  0.5074  0.9397 -1.3854
16523TIP3   OH271059   6.637   1.669   4.089  0.2203 -0.0536 -0.0239
16523TIP3    H171060   6.711   1.699   4.036  0.5175  1.9514  1.4674
16523TIP3    H271061   6.560   1.688   4.035  0.6300  0.4351 -0.4431
16524TIP3   OH271062   6.405   5.653   6.573 -0.5037 -0.0946  0.4253
16524TIP3    H171063   6.490   5.678   6.610 -0.9302  0.3736  1.1136
16524TIP3    H271064   6.342   5.710   6.618 -0.8925  1.5720 -2.1234
16525TIP3   OH271065   3.743   1.791  16.669 -0.3906 -0.2135  0.1197
16525TIP3    H171066   3.831   1.803  16.704 -0.6874  2.3503  0.1435
16525TIP3    H271067   3.715   1.880  16.645 -2.5356 -1.1287 -0.9200
16526TIP3   OH271068   4.585   4.973   2.974  0.1101  0.4770 -0.3600
16526TIP3    H171069   4.657   4.984   2.912  1.2833 -0.6720  0.7559
16526TIP3    H271070   4.525   4.913   2.930  0.3528  0.5908 -0.8575
16527TIP3   OH271071   5.212   3.740  15.424 -0.4441  0.0624 -0.0051
16527TIP3    H171072   5.208   3.648  15.398  1.7403  0.1090 -0.5868
16527TIP3    H271073   5.212   3.789  15.342  2.4742  0.3841  0.1535
16528TIP3   OH271074   0.840   2.633  16.987  0.0061 -0.1610 -0.3399
16528TIP3    H171075   0.832   2.728  16.979 -0.4647 -0.2090 -0.4239
16528TIP3    H271076   0.873   2.605  16.902  1.5528  0.0852  0.1618
16529TIP3   OH271077   3.981   1.950  15.897  0.1366 -0.4235  0.2732
16529TIP3    H171078   3.954   2.011  15.966 -0.4487 -0.3308 -0.0320
16529TIP3    H271079   3.909   1.953  15.833 -0.5389 -2.4561  0.8971
16530TIP3   OH271080   6.280   1.119   5.368  0.2572  0.2109  0.4907
16530TIP3    H171081   6.238   1.075   5.441  1.8598 -1.0794  0.6583
16530TIP3    H271082   6.223   1.194   5.349 -0.9700 -0.3034  2.0567
16531TIP3   OH271083   2.785   2.676  10.510  0.2064 -0.3658  0.3629
16531TIP3    H171084   2.752   2.682  10.600 -0.7376  1.2186 -0.0613
16531TIP3    H271085   2.807   2.583  10.498 -1.4139 -0.9394  1.6290
16532TIP3   OH271086   4.262   0.532   3.377  0.2870 -0.1755 -0.2688
16532TIP3    H171087   4.305   0.469   3.319 -0.4861 -0.9498  0.0076
16532TIP3    H271088   4.267   0.493   3.464  0.3248  0.4191  0.0052
16533TIP3   OH271089   0.879   1.221   2.758 -0.2182 -0.7469  0.6296
16533TIP3    H171090   0.880   1.224   2.663 -1.1647 -1.5082  0.5878
16533TIP3    H271091   0.805   1.163   2.780 -0.8003  0.4065  1.8394
16534TIP3   OH271092   0.293   1.785  13.273 -0.3414  0.4641  0.3361
16534TIP3    H171093   0.250   1.844  13.336 -1.1081 -0.4213  0.6637
16534TIP3    H271094   0.273   1.822  13.187 -2.8126 -0.5679  0.4155
16535TIP3   OH271095   3.937   3.905  11.839  0.8749  0.7247  0.2979
16535TIP3    H171096   3.870   3.934  11.901  0.0415 -2.3210  0.8824
16535TIP3    H271097   4.013   3.885  11.894  0.3922 -1.2300  0.2624
16536TIP3   OH271098   5.194   4.421  16.292  0.3380 -0.1960  0.2221
16536TIP3    H171099   5.143   4.496  16.323 -1.5433 -1.1568 -0.4448
16536TIP3    H271100   5.188   4.358  16.363 -0.5017 -0.7993 -0.3692
16537TIP3   OH271101   2.505   2.495   0.337 -0.3202 -0.1368  0.0012
16537TIP3    H171102   2.411   2.480   0.337 -0.3244 -0.2921  2.1925
16537TIP3    H271103   2.535   2.459   0.420  1.2258  2.4881  0.6634
16538TIP3   OH271104   4.558   1.298  13.161  0.0975  0.7860 -0.4923
16538TIP3    H171105   4.463   1.290  13.150  0.1095 -1.4547  0.8348
16538TIP3    H271106   4.591   1.311  13.073 -1.3743  0.8536 -1.0563
16539TIP3   OH271107   5.450   6.229   1.292  0.2802 -0.2815  0.3115
16539TIP3    H171108   5.507   6.238   1.215 -2.0535 -2.6389 -1.8206
16539TIP3    H271109   5.425   6.137   1.292 -2.9258  0.5406  1.6151
16540TIP3   OH271110   5.659   5.838   0.529 -0.4217 -0.4815  0.2465
16540TIP3    H171111   5.633   5.930   0.535 -2.0291 -0.9848  1.4204
16540TIP3    H271112   5.667   5.810   0.620 -1.3679 -1.8794 -0.0861
16541TIP3   OH271113   0.904   2.247   4.421 -0.0199  0.1416  0.3006
16541TIP3    H171114   0.841   2.320   4.421 -1.4419 -1.0626 -0.5423
16541TIP3    H271115   0.909   2.220   4.513 -0.2434  0.6612  0.4679
16542TIP3   OH271116   1.672   6.772  11.456  0.2298 -0.2581 -0.0631
16542TIP3    H171117   1.758   6.764  11.415  0.2322 -3.1648  0.4380
16542TIP3    H271118   1.690   6.794  11.547  0.3367  1.3791 -0.4504
16543TIP3   OH271119   1.137   6.261   6.312 -0.3469 -0.5387 -0.1258
16543TIP3    H171120   1.149   6.249   6.218 -2.3452  2.3659 -0.8181
16543TIP3    H271121   1.045   6.239   6.327 -0.2062 -0.3647  1.0314
16544TIP3   OH271122   2.819   6.431  11.270  0.6160 -0.0847 -0.1716
16544TIP3    H171123   2.880   6.378  11.218 -1.3750 -0.6910 -1.9546
16544TIP3    H271124   2.805   6.509  11.216 -0.6825 -0.2567 -0.0852
16545TIP3   OH271125   4.540   5.963   4.362 -0.2424  0.0845  0.0294
16545TIP3    H171126   4.545   6.043   4.309  0.1178  0.9162  1.2899
16545TIP3    H271127   4.624   5.960   4.408 -0.2109 -1.0935 -0.0911
16546TIP3   OH271128   5.464   5.407  12.806  0.3835  0.5672  0.1702
16546TIP3    H171129   5.530   5.425  12.873  0.9181  2.7275 -0.9161
16546TIP3    H271130   5.388   5.459  12.832 -0.4453 -0.8557  0.6686
16547TIP3   OH271131   1.498   3.613   3.038 -0.1915  0.0341 -0.7795
16547TIP3    H171132   1.450   3.616   2.955  0.7375 -1.1776 -1.3760
16547TIP3    H271133   1.469   3.533   3.080  1.4607 -0.8429 -1.2601
16548TIP3   OH271134   0.991   5.915   1.539 -0.4758  0.0707 -0.3243
16548TIP3    H171135   1.045   5.973   1.592 -0.2729 -0.7766  0.4031
16548TIP3    H271136   0.903   5.953   1.544 -0.4483  0.0208  0.5819
16549TIP3   OH271137   1.027   4.444   3.842  0.3238  0.3751 -0.6088
16549TIP3    H171138   0.933   4.443   3.862  0.2080  0.0865 -1.1658
16549TIP3    H271139   1.058   4.358   3.867  0.9325  1.2772  1.8625
16550TIP3   OH271140   3.947   6.166  12.447 -0.0073  0.7051 -0.4400
16550TIP3    H171141   3.962   6.074  12.470  0.5449  0.7369 -0.6553
16550TIP3    H271142   3.976   6.214  12.524 -0.0667  0.7086 -0.4203
16551TIP3   OH271143   3.307   1.461   5.146 -0.2134 -0.0249 -0.6655
16551TIP3    H171144   3.284   1.483   5.056 -1.7850  0.2848 -0.1995
16551TIP3    H271145   3.374   1.525   5.170 -0.6252  0.6243 -1.2342
16552TIP3   OH271146   5.475   5.133   4.903 -0.0672  0.6907 -0.2475
16552TIP3    H171147   5.519   5.214   4.875 -0.3509  1.2366  0.8305
16552TIP3    H271148   5.529   5.101   4.975  0.1396 -0.1852 -0.7893
16553TIP3   OH271149   6.517   4.469   1.270  0.1581  0.4200 -0.2054
16553TIP3    H171150   6.493   4.543   1.215 -3.6160  0.2261  1.0593
16553TIP3    H271151   6.522   4.395   1.210 -2.2677  0.5225 -0.5682
16554TIP3   OH271152   2.841   0.407   5.171  0.3535  0.3695  0.0567
16554TIP3    H171153   2.897   0.331   5.188 -1.6137 -0.7499  1.8547
16554TIP3    H271154   2.841   0.416   5.076  0.6680 -1.8575 -0.1759
16555TIP3   OH271155   3.313   3.167   0.224  0.2042 -0.0247 -0.0819
16555TIP3    H171156   3.284   3.249   0.264  1.8601  0.9134 -0.7500
16555TIP3    H271157   3.233   3.126   0.193 -0.5632  1.8953 -0.7551
16556TIP3   OH271158   2.779   4.133  11.095 -0.0737  0.0380  0.0887
16556TIP3    H171159   2.751   4.052  11.136  2.2849 -0.7684  0.1716
16556TIP3    H271160   2.717   4.199  11.126 -1.2911 -1.4977  0.9552
16557TIP3   OH271161   2.213   3.248  12.127  0.3458  0.1126  0.3565
16557TIP3    H171162   2.186   3.214  12.041  0.2389  0.4668  0.2498
16557TIP3    H271163   2.296   3.293  12.109 -0.6601  1.8966  0.0625
16558TIP3   OH271164   5.308   2.881  14.492  0.2873  0.4049 -0.0848
16558TIP3    H171165   5.337   2.816  14.428 -0.2740  0.3391 -0.2805
16558TIP3    H271166   5.217   2.899  14.467 -0.0519  0.1033  0.9145
16559TIP3   OH271167   6.572   1.672   1.514 -0.3584  0.8097  0.1088
16559TIP3    H171168   6.505   1.605   1.499 -0.8674  1.0105  1.4445
16559TIP3    H271169   6.525   1.742   1.560  0.1846  2.0609 -1.1911
16560TIP3   OH271170   1.939   5.555  12.212 -0.1420 -0.5734 -0.6123
16560TIP3    H171171   1.911   5.511  12.292 -0.4720  0.6554 -0.0442
16560TIP3    H271172   1.868   5.541  12.150 -2.0424  2.3755  0.7584
16561TIP3   OH271173   2.373   4.329   2.263 -0.2177  0.4659 -0.2752
16561TIP3    H171174   2.412   4.258   2.313 -0.2564 -0.3682 -1.4023
16561TIP3    H271175   2.345   4.393   2.329  0.2458 -0.3429  0.7155
16562TIP3   OH271176   0.114   6.066   3.818  0.6887 -0.2618 -0.0985
16562TIP3    H171177   0.034   6.097   3.860 -0.2276 -2.0760 -0.5012
16562TIP3    H271178   0.089   6.049   3.728  1.4982 -0.9385 -0.2013
16563TIP3   OH271179   1.601   0.699  11.210  0.3481  0.6724 -0.5715
16563TIP3    H171180   1.528   0.716  11.150  1.0381 -0.0575 -1.6090
16563TIP3    H271181   1.646   0.624  11.173  0.0824 -0.5449  1.4938
16564TIP3   OH271182   2.391   6.615   5.894 -0.7594 -0.3331  0.0827
16564TIP3    H171183   2.397   6.705   5.927  3.1422 -0.9334  1.2108
16564TIP3    H271184   2.385   6.561   5.972 -2.8710 -1.0959 -0.5897
16565TIP3   OH271185   0.915   3.750  15.342 -0.2523  0.1067  0.6415
16565TIP3    H171186   0.872   3.771  15.258 -0.4455  1.5410  1.0888
16565TIP3    H271187   0.897   3.656  15.354 -1.4668  0.2026 -0.2157
16566TIP3   OH271188   4.618   6.499  15.524 -0.1566 -0.1173 -0.0635
16566TIP3    H171189   4.526   6.492  15.548 -0.0620 -0.3603  0.2337
16566TIP3    H271190   4.651   6.573  15.575 -0.2436  0.1237 -0.3540
16567TIP3   OH271191   2.789   2.045   2.642  0.2463  0.0202 -0.2750
16567TIP3    H171192   2.809   1.955   2.618  0.9488  0.1470 -0.1897
16567TIP3    H271193   2.701   2.042   2.678  0.3184 -0.6537 -0.1546
16568TIP3   OH271194   4.803   2.316   1.639 -0.5655 -0.3262 -0.5804
16568TIP3    H171195   4.891   2.284   1.618 -0.5281  0.6486 -1.9258
16568TIP3    H271196   4.815   2.365   1.721  0.4118  0.9179 -1.4393
16569TIP3   OH271197   5.739   1.553   4.569 -0.5904 -0.2495 -0.4829
16569TIP3    H171198   5.776   1.538   4.656 -1.2955 -0.3177 -0.1959
16569TIP3    H271199   5.668   1.616   4.583 -0.1547  0.4008 -1.1317
16570TIP3   OH271200   4.521   1.680  14.506  0.2474 -0.3873  0.1794
16570TIP3    H171201   4.489   1.638  14.426  0.1551 -0.6413  0.3504
16570TIP3    H271202   4.526   1.773  14.483  0.0055 -0.4289 -0.0518
16571TIP3   OH271203   3.752   2.831   3.736  0.0952 -0.9409 -0.1337
16571TIP3    H171204   3.659   2.843   3.756 -0.1193 -2.1002 -0.4236
16571TIP3    H271205   3.780   2.914   3.698 -0.6506 -0.3487  0.6053
16572TIP3   OH271206   3.762   4.632   1.627 -0.3189 -0.4816 -0.3589
16572TIP3    H171207   3.842   4.683   1.622  0.7988 -2.1010  0.6632
16572TIP3    H271208   3.791   4.541   1.626 -2.0400 -1.0876  1.3512
16573TIP3   OH271209   4.916   3.175   5.780 -0.2953  0.3366 -0.5921
16573TIP3    H171210   5.007   3.160   5.804 -0.3612 -0.0505 -0.5845
16573TIP3    H271211   4.900   3.117   5.706 -0.5237  0.4389 -0.6263
16574TIP3   OH271212   5.725   3.006  12.121 -0.4517 -0.1526 -0.3418
16574TIP3    H171213   5.774   2.938  12.168  0.5463  0.5072 -0.4165
16574TIP3    H271214   5.674   2.958  12.056 -1.0317 -0.9767  0.7155
16575TIP3   OH271215   0.710   4.939  11.132 -0.4375  0.0972 -0.1133
16575TIP3    H171216   0.622   4.944  11.169  0.4176 -1.2585  2.2159
16575TIP3    H271217   0.757   5.013  11.172  0.1433 -0.6108  0.5160
16576TIP3   OH271218   0.951   6.277  12.149 -0.1668  0.3373  0.0424
16576TIP3    H171219   0.897   6.199  12.137  0.1247  0.1456 -0.0327
16576TIP3    H271220   0.935   6.305  12.240 -0.1607  0.1077  0.1116
16577TIP3   OH271221   5.453   3.591   3.429  0.2801  0.0617 -0.1376
16577TIP3    H171222   5.375   3.639   3.403 -0.0306 -0.1859  0.3240
16577TIP3    H271223   5.518   3.611   3.362 -0.7223 -1.1408 -1.5076
16578TIP3   OH271224   5.224   0.739  12.130  0.0735  0.0242  0.1873
16578TIP3    H171225   5.239   0.787  12.048  1.0927  0.1951  0.4654
16578TIP3    H271226   5.242   0.647  12.107 -0.4297 -0.0338  0.0216
16579TIP3   OH271227   2.963   4.420  15.100  0.0184 -0.0399  0.4712
16579TIP3    H171228   3.037   4.362  15.083 -0.4165 -0.6478  0.6027
16579TIP3    H271229   2.999   4.490  15.154  0.2713 -0.9173  1.4682
16580TIP3   OH271230   3.062   0.170  15.680  0.0699  0.1423  0.0381
16580TIP3    H171231   3.106   0.235  15.735  1.2684 -1.4127  0.9687
16580TIP3    H271232   2.990   0.138  15.734 -1.1898  1.4423 -0.8309
16581TIP3   OH271233   6.286   2.921  16.044 -0.3405  0.9462  0.4623
16581TIP3    H171234   6.330   2.838  16.065 -2.7901 -0.8167 -1.0658
16581TIP3    H271235   6.247   2.949  16.126 -2.6542 -1.4235  0.2333
16582TIP3   OH271236   2.132   4.088   0.215 -0.2579  0.0663  0.3375
16582TIP3    H171237   2.051   4.067   0.168  0.8308  0.2989 -1.6676
16582TIP3    H271238   2.175   4.154   0.161  0.8197  0.6664  1.8899
16583TIP3   OH271239   5.124   3.997  14.634 -0.0882 -0.0162 -1.0805
16583TIP3    H171240   5.181   3.940  14.686  0.3692  1.5396  0.2048
16583TIP3    H271241   5.184   4.042  14.574  0.0850  1.4783  0.1408
16584TIP3   OH271242   1.948   1.670  12.473 -0.1656  0.8561 -0.1432
16584TIP3    H171243   1.898   1.713  12.404 -1.3544 -1.1850 -0.6117
16584TIP3    H271244   1.888   1.668  12.548  0.1176  0.6151  0.0807
16585TIP3   OH271245   6.717   3.668  11.220  0.6579 -0.9441  0.3683
16585TIP3    H171246   6.736   3.647  11.129  1.2446 -0.6592  0.4208
16585TIP3    H271247   6.802   3.665  11.264  0.4828 -0.3755  0.7585
16586TIP3   OH271248   0.969   3.388   5.958  0.2431  0.2439  0.2251
16586TIP3    H171249   0.889   3.352   5.920  0.4504  1.1596 -1.1088
16586TIP3    H271250   1.039   3.354   5.903  0.6141  0.9219  0.2781
16587TIP3   OH271251   2.163   5.485   2.690 -0.4366 -0.0131  0.0791
16587TIP3    H171252   2.231   5.436   2.643 -1.5499 -0.4372 -1.1387
16587TIP3    H271253   2.088   5.426   2.692 -1.1306  0.8688  0.4015
16588TIP3   OH271254   4.579   3.231  13.036  0.4053  0.0546 -0.6965
16588TIP3    H171255   4.546   3.286  13.107  0.2978 -1.0305  0.1099
16588TIP3    H271256   4.516   3.244  12.965 -0.0307  0.4012 -0.2508
16589TIP3   OH271257   2.522   3.136   1.036 -0.0368  0.5725 -0.1712
16589TIP3    H171258   2.531   3.125   0.942 -2.5233  0.1262 -0.3957
16589TIP3    H271259   2.491   3.051   1.067 -0.1340  0.9997  0.9197
16590TIP3   OH271260   1.173   0.550  16.488  1.2361  0.0302 -0.9342
16590TIP3    H171261   1.191   0.539  16.581 -1.8240  1.7374 -0.0697
16590TIP3    H271262   1.150   0.462  16.457  0.9636 -0.3209  0.2406
16591TIP3   OH271263   4.221   0.254  13.121 -0.9854  0.5446  0.1115
16591TIP3    H171264   4.278   0.278  13.194 -1.1005  0.4405  0.2366
16591TIP3    H271265   4.262   0.295  13.045  0.1203 -0.8162 -0.0454
16592TIP3   OH271266   4.373   2.484   1.264 -0.4978  0.2001 -0.0803
16592TIP3    H171267   4.350   2.540   1.338 -0.7134 -0.2764  0.2142
16592TIP3    H271268   4.318   2.407   1.274  0.3154 -0.3876 -0.0720
16593TIP3   OH271269   2.772   5.645  11.239 -0.3531 -0.1430  0.0935
16593TIP3    H171270   2.724   5.687  11.168  0.1290 -1.5555 -1.0997
16593TIP3    H271271   2.851   5.611  11.198 -0.4616 -1.7185  1.1134
16594TIP3   OH271272   5.221   0.790  16.453  0.0892 -0.2782 -0.0255
16594TIP3    H171273   5.311   0.808  16.425  0.4029 -1.3476  0.2800
16594TIP3    H271274   5.193   0.871  16.497  0.2951  0.6821 -1.6225
16595TIP3   OH271275   5.134   5.644   0.118 -0.1166 -0.2306 -0.1606
16595TIP3    H171276   5.119   5.560   0.074  1.5731 -1.0104  0.7167
16595TIP3    H271277   5.185   5.621   0.196 -0.3629  1.5147  0.5264
16596TIP3   OH271278   4.061   1.250   3.651 -1.0222 -0.2940 -0.8064
16596TIP3    H171279   3.991   1.253   3.717 -0.5674  0.1886 -0.3464
16596TIP3    H271280   4.107   1.168   3.669 -0.8069 -0.0936 -0.4237
16597TIP3   OH271281   5.968   0.013  12.910  0.4488  0.2747  0.3718
16597TIP3    H171282   5.917  -0.058  12.870  0.6493  0.8989 -1.0525
16597TIP3    H271283   5.901   0.074  12.942  0.2849  0.0723  0.4173
16598TIP3   OH271284   6.481   0.350   5.872 -0.0589 -0.0849  0.7597
16598TIP3    H171285   6.507   0.428   5.823 -0.9016  0.6757  1.4873
16598TIP3    H271286   6.388   0.363   5.889 -0.5899 -2.0264 -0.4988
16599TIP3   OH271287   0.035   3.610  16.175 -0.6595  0.4479 -0.2309
16599TIP3    H171288   0.101   3.569  16.120 -0.5391 -0.1196  0.3255
16599TIP3    H271289   0.070   3.696  16.195 -0.4116  0.4156 -0.5263
16600TIP3   OH271290   2.951   0.121   2.780 -0.1958  0.2178  0.1900
16600TIP3    H171291   2.999   0.040   2.797 -1.7753 -0.6585  0.5489
16600TIP3    H271292   2.974   0.178   2.853 -0.8374 -0.7189  1.1299
16601TIP3   OH271293   4.140   0.448   0.643  0.7357  0.1230 -0.0786
16601TIP3    H171294   4.136   0.482   0.732  1.2964 -2.9101  1.1827
16601TIP3    H271295   4.229   0.468   0.614  1.8581 -2.3242  1.5522
16602TIP3   OH271296   4.941   3.082   3.116 -0.4957 -0.6975  0.4933
16602TIP3    H171297   4.913   2.991   3.108 -2.7237 -0.0770  0.6870
16602TIP3    H271298   4.908   3.109   3.202 -0.4597  0.4825  0.1462
16603TIP3   OH271299   0.824   2.718  15.939 -0.1301 -0.1706 -0.0397
16603TIP3    H171300   0.890   2.650  15.951  0.8957  0.2918 -2.6225
16603TIP3    H271301   0.872   2.801  15.950 -0.4576  0.1565 -1.0267
16604TIP3   OH271302   0.856   5.198   3.300  0.1096 -0.4618 -0.0031
16604TIP3    H171303   0.850   5.294   3.299 -0.4483 -0.4961  0.1492
16604TIP3    H271304   0.838   5.174   3.391 -0.3113 -0.7519 -0.1656
16605TIP3   OH271305   3.398   0.363   2.904  0.3388  0.7169  0.5689
16605TIP3    H171306   3.449   0.308   2.844  0.7474  2.5651 -0.8113
16605TIP3    H271307   3.434   0.451   2.894 -1.1056  1.4922  1.8413
16606TIP3   OH271308   6.201   5.905  17.099 -0.8451  0.2716  0.0535
16606TIP3    H171309   6.228   5.967  17.166 -0.9115 -1.3001  1.5672
16606TIP3    H271310   6.277   5.849  17.084 -1.1492 -0.0179 -0.4570
16607TIP3   OH271311   1.283   1.148  15.193 -0.1942  0.7255  0.4248
16607TIP3    H171312   1.330   1.073  15.156 -2.1129 -1.0338  1.4189
16607TIP3    H271313   1.343   1.221  15.184  1.6425 -0.8825 -0.8121
16608TIP3   OH271314   3.995   2.780  11.795  0.0593 -0.5797 -0.1717
16608TIP3    H171315   3.969   2.721  11.724 -1.0819 -1.4231  0.9416
16608TIP3    H271316   3.940   2.857  11.783  0.0731 -0.6021 -0.3782
16609TIP3   OH271317   4.375   3.847  16.540  0.1820 -0.0390 -0.4534
16609TIP3    H171318   4.393   3.825  16.631 -1.8599 -1.7717 -0.4392
16609TIP3    H271319   4.422   3.782  16.489 -0.5675 -0.4855 -0.5789
16610TIP3   OH271320   3.689   4.538  13.967 -0.3233 -0.8002  0.5701
16610TIP3    H171321   3.726   4.622  13.995  0.3956 -0.9312  0.0466
16610TIP3    H271322   3.606   4.561  13.926  0.8930 -0.0784 -1.5988
16611TIP3   OH271323   2.395   3.714  12.703  0.1213 -0.1071  0.3466
16611TIP3    H171324   2.428   3.681  12.619  0.5360 -2.1239  1.2667
16611TIP3    H271325   2.472   3.747  12.748 -0.2160  1.6838 -0.3528
16612TIP3   OH271326   4.765   5.888  11.044  0.1337 -0.2229 -0.3288
16612TIP3    H171327   4.764   5.982  11.025  0.6123  0.1005  1.2340
16612TIP3    H271328   4.691   5.854  10.994 -0.6424  1.1399 -0.1561
16613TIP3   OH271329   5.432   2.112   2.517 -0.2089  0.3200  0.9353
16613TIP3    H171330   5.495   2.039   2.523 -1.6705 -1.1065 -0.7963
16613TIP3    H271331   5.468   2.169   2.449 -0.1085  0.1964  0.8838
16614TIP3   OH271332   0.594   5.085  16.638  0.1580 -0.1722 -0.4780
16614TIP3    H171333   0.665   5.052  16.584  0.6228  2.5104 -1.5371
16614TIP3    H271334   0.521   5.099  16.577 -0.7743 -1.3429  0.3336
16615TIP3   OH271335   2.495   3.260  13.837  0.2377 -0.1865 -0.0400
16615TIP3    H171336   2.428   3.328  13.839 -0.0084 -0.4111 -0.6323
16615TIP3    H271337   2.449   3.181  13.808  0.6445 -0.4645  0.0672
16616TIP3   OH271338   1.520   6.019  11.031  0.5236  0.6128  0.0861
16616TIP3    H171339   1.487   5.960  11.099  0.4860  0.8504  0.2778
16616TIP3    H271340   1.505   6.107  11.067 -0.4494  0.7697 -0.6698
16617TIP3   OH271341   4.502   5.032  14.809 -0.8261  0.1142  0.3294
16617TIP3    H171342   4.550   5.039  14.892 -0.0740 -2.0855  0.1084
16617TIP3    H271343   4.513   5.118  14.767  2.9588 -0.3492  0.2393
16618TIP3   OH271344   0.070   0.642  14.485 -0.0153 -0.0013 -0.1895
16618TIP3    H171345   0.140   0.576  14.485  0.7154  0.7227 -2.6549
16618TIP3    H271346   0.081   0.689  14.402 -1.4953  2.2093  0.8205
16619TIP3   OH271347   4.436   6.519  10.416  0.1258  0.2322 -0.0289
16619TIP3    H171348   4.390   6.499  10.497 -0.8054 -1.7213 -1.0118
16619TIP3    H271349   4.372   6.500  10.347  0.7973  2.1555 -1.2183
16620TIP3   OH271350   3.945   2.282  12.776  0.6911 -0.4581  0.4372
16620TIP3    H171351   3.992   2.205  12.807 -0.1201 -1.8546 -1.6421
16620TIP3    H271352   4.010   2.353  12.778  1.7157 -1.4118  1.4744
16621TIP3   OH271353   0.017   3.039   3.564  0.5164  0.7008 -0.3799
16621TIP3    H171354   0.107   3.056   3.536  0.3917 -0.8544 -1.8262
16621TIP3    H271355   0.024   3.005   3.653  1.5899 -1.8682 -1.4032
16622TIP3   OH271356   5.441   1.382   5.184 -0.3897 -0.5848  0.1287
16622TIP3    H171357   5.474   1.443   5.250  0.1619 -0.7119 -0.0214
16622TIP3    H271358   5.352   1.362   5.211 -0.2928 -0.3439  0.6251
16623TIP3   OH271359   1.479   2.678  11.852 -0.4560 -0.3043 -0.6027
16623TIP3    H171360   1.560   2.682  11.802  0.1274 -0.7685  0.3048
16623TIP3    H271361   1.507   2.678  11.944 -1.4831 -0.3553 -0.2818
16624TIP3   OH271362   0.483   4.462   3.459 -0.6487  0.3926 -0.3166
16624TIP3    H171363   0.454   4.415   3.381 -0.0757 -0.2842 -0.1321
16624TIP3    H271364   0.530   4.538   3.426 -1.0365  0.4945 -0.6283
16625TIP3   OH271365   4.055   5.308   5.430  0.3989 -0.0839 -0.4972
16625TIP3    H171366   4.142   5.277   5.454  0.7664  0.7290 -0.7584
16625TIP3    H271367   4.058   5.402   5.446 -1.0109 -0.3080  1.1836
16626TIP3   OH271368   2.819   0.301   4.005 -0.5669 -0.0494 -0.1943
16626TIP3    H171369   2.826   0.385   3.960  1.1917 -0.7330 -1.2304
16626TIP3    H271370   2.799   0.238   3.936 -1.6356 -0.5427  0.5396
16627TIP3   OH271371   0.023   2.380   4.412  0.4267 -0.7028  0.2392
16627TIP3    H171372   0.095   2.344   4.361  1.0441 -2.1484  2.1070
16627TIP3    H271373   0.056   2.464   4.444  0.6236 -0.5459 -0.3573
16628TIP3   OH271374   5.411   0.597   0.207 -0.1137 -0.3883  0.0013
16628TIP3    H171375   5.323   0.620   0.179  0.7520 -1.6878 -4.1414
16628TIP3    H271376   5.402   0.510   0.246 -0.8904  0.2370  1.2581
16629TIP3   OH271377   3.102   6.605  14.320  0.2737  0.0224 -0.2813
16629TIP3    H171378   3.144   6.519  14.317 -0.8004 -0.5819  1.8902
16629TIP3    H271379   3.028   6.598  14.260 -0.5413 -0.9681  0.8336
16630TIP3   OH271380   1.595   1.830   3.814 -0.0149  0.1612  0.0942
16630TIP3    H171381   1.572   1.747   3.771 -0.3213  1.5774 -2.5401
16630TIP3    H271382   1.514   1.881   3.812 -0.3887 -0.1502  3.5117
16631TIP3   OH271383   2.260   3.414   1.663 -0.4663  0.4929  0.6262
16631TIP3    H171384   2.279   3.507   1.670  0.1465  0.4541 -0.4401
16631TIP3    H271385   2.179   3.409   1.614 -0.0153  0.4354 -0.1197
16632TIP3   OH271386   2.571   5.881   6.383  0.4853 -0.5457 -0.1057
16632TIP3    H171387   2.502   5.897   6.319 -0.4541 -1.5816  0.6373
16632TIP3    H271388   2.585   5.966   6.425 -0.6614 -0.4315  0.0547
16633TIP3   OH271389   3.276   1.499   3.627 -0.1380 -0.0220  0.4332
16633TIP3    H171390   3.198   1.544   3.659  0.6778  0.8891  1.1726
16633TIP3    H271391   3.257   1.406   3.640 -1.7753  0.1030 -0.9723
16634TIP3   OH271392   3.239   0.339  17.111 -0.5699 -0.4464  0.1393
16634TIP3    H171393   3.313   0.361  17.055 -0.4760 -1.0031  0.0413
16634TIP3    H271394   3.187   0.276  17.060 -1.3122  0.2211  0.0542
16635TIP3   OH271395   5.690   0.648  13.626  0.0932  0.8245  0.6873
16635TIP3    H171396   5.750   0.682  13.559  0.0506 -0.4830 -0.0287
16635TIP3    H271397   5.626   0.718  13.638 -0.5234  0.6509 -1.4429
16636TIP3   OH271398   2.607   2.580   4.502 -0.6770  0.2715  0.0757
16636TIP3    H171399   2.572   2.623   4.580 -0.7045  0.1318  0.1399
16636TIP3    H271400   2.568   2.628   4.429 -0.8628  0.2268  0.1470
16637TIP3   OH271401   4.480   2.919  13.270 -0.1575 -1.0394 -0.0570
16637TIP3    H171402   4.486   2.864  13.192 -2.0748 -1.7740  0.2683
16637TIP3    H271403   4.392   2.959  13.264 -0.5395 -1.5110  1.9704
16638TIP3   OH271404   1.943   4.777  14.929  0.4701 -0.8512  0.4101
16638TIP3    H171405   1.886   4.841  14.970  2.3266  1.4188 -0.4209
16638TIP3    H271406   1.888   4.700  14.916 -2.4229  1.2965 -0.4748
16639TIP3   OH271407   5.636   3.134  13.148  0.3427  0.2064  0.1401
16639TIP3    H171408   5.652   3.222  13.116 -3.1202  0.8615  0.0017
16639TIP3    H271409   5.641   3.141  13.243 -1.8905  1.0412  0.2293
16640TIP3   OH271410   4.709   5.324  15.524  0.2138  0.2905 -0.4122
16640TIP3    H171411   4.736   5.240  15.487 -1.3200 -1.2570  1.8619
16640TIP3    H271412   4.788   5.361  15.562  0.6295 -0.7253 -0.2825
16641TIP3   OH271413   5.893   1.554  13.497  0.4447 -0.2216 -0.2627
16641TIP3    H171414   5.957   1.624  13.507 -0.3732  0.5999 -0.7287
16641TIP3    H271415   5.842   1.578  13.419 -0.0694 -1.1479 -0.2260
16642TIP3   OH271416   4.729   1.411  16.975  0.2769 -0.4085 -0.1908
16642TIP3    H171417   4.640   1.408  16.938  0.2979 -0.2303 -0.2586
16642TIP3    H271418   4.716   1.399  17.069  0.1830 -0.4044 -0.2032
16643TIP3   OH271419   1.465   2.557  14.936  0.2841  0.0331 -0.2602
16643TIP3    H171420   1.489   2.511  15.016 -0.6395  0.8366  0.4935
16643TIP3    H271421   1.492   2.647  14.950  1.1075 -0.0346 -1.3056
16644TIP3   OH271422   4.229   4.531   3.404 -0.4415  0.2671 -0.0087
16644TIP3    H171423   4.315   4.545   3.445 -0.2294  0.5823 -0.5509
16644TIP3    H271424   4.199   4.447   3.439  0.6676 -0.4705 -0.7933
16645TIP3   OH271425   3.951   0.184  16.730 -0.3645 -0.3264  0.0725
16645TIP3    H171426   3.881   0.137  16.774 -2.3538  1.0666 -1.5014
16645TIP3    H271427   3.966   0.135  16.649 -0.4115  0.0952 -0.1948
16646TIP3   OH271428   3.189   4.656  16.886 -0.1771  0.4084 -0.0666
16646TIP3    H171429   3.154   4.620  16.968 -0.8292  2.7761  0.7566
16646TIP3    H271430   3.279   4.623  16.882 -0.2169  0.0600  1.4883
16647TIP3   OH271431   4.217   0.095  12.818 -0.7263 -0.2691 -0.1372
16647TIP3    H171432   4.165   0.023  12.785  2.6184 -1.7967 -2.3955
16647TIP3    H271433   4.177   0.174  12.780 -1.7889 -1.3212 -1.2278
16648TIP3   OH271434   3.307   3.111  15.146  0.4739 -0.0754  0.0210
16648TIP3    H171435   3.313   3.031  15.198 -1.6400  0.5970  1.3647
16648TIP3    H271436   3.214   3.121  15.126  0.7268  1.9289 -0.3159
16649TIP3   OH271437   0.547   3.994  14.131  0.4979  0.3282 -0.2595
16649TIP3    H171438   0.531   3.933  14.204  0.9958 -2.3072 -2.2753
16649TIP3    H271439   0.483   3.970  14.065  0.5544  2.2001 -1.0275
16650TIP3   OH271440   1.264   5.448  15.737 -1.0606 -0.5100  0.2129
16650TIP3    H171441   1.179   5.408  15.718 -1.7103  0.4965  0.9253
16650TIP3    H271442   1.327   5.377  15.728 -1.8765 -1.0866 -1.1478
16651TIP3   OH271443   2.189   0.027   3.303 -0.6613  0.5678  0.1550
16651TIP3    H171444   2.273   0.058   3.340  2.4655 -2.4170 -3.9836
16651TIP3    H271445   2.193  -0.068   3.311 -2.7401  0.2710 -1.9124
16652TIP3   OH271446   3.128   3.456   0.715 -0.4422  0.0703 -0.2653
16652TIP3    H171447   3.188   3.382   0.706 -0.5899 -0.0389 -0.3391
16652TIP3    H271448   3.064   3.427   0.780  1.3430  1.3024  2.1383
16653TIP3   OH271449   3.609   5.266   4.390 -0.3606  0.4764  0.0517
16653TIP3    H171450   3.686   5.230   4.347 -0.3587  0.6581 -0.1022
16653TIP3    H271451   3.535   5.237   4.336 -0.2893  1.4505 -0.5993
16654TIP3   OH271452   1.155   2.956   1.398 -0.3319 -0.1005  0.9211
16654TIP3    H171453   1.175   2.888   1.462  0.6521 -0.6408  0.0583
16654TIP3    H271454   1.066   2.984   1.420 -0.4298 -1.0658  1.8083
16655TIP3   OH271455   1.915   5.437  11.732 -0.1637 -0.1450 -0.0850
16655TIP3    H171456   1.909   5.492  11.810  0.4518  0.1864 -0.2740
16655TIP3    H271457   1.984   5.374  11.752 -0.6815 -0.6896  0.0215
16656TIP3   OH271458   2.955   0.336  14.207  0.6589 -0.0969  0.1120
16656TIP3    H171459   3.004   0.363  14.129  3.0880 -1.0238  1.2517
16656TIP3    H271460   2.912   0.255  14.181  0.2863  0.3479 -0.6940
16657TIP3   OH271461   6.351   0.510   5.301 -0.1513 -0.5827 -0.1025
16657TIP3    H171462   6.411   0.486   5.371  0.7536 -0.0021 -0.6637
16657TIP3    H271463   6.344   0.431   5.247  1.7406 -0.0387 -1.1824
16658TIP3   OH271464   2.743   2.365  14.884 -0.0282  0.5136  0.1539
16658TIP3    H171465   2.803   2.317  14.827 -0.7678 -0.5283  0.2514
16658TIP3    H271466   2.711   2.300  14.946 -1.0145  1.1282  0.3025
16659TIP3   OH271467   5.371   3.282   2.158 -0.1166 -0.4677  0.0478
16659TIP3    H171468   5.448   3.332   2.187 -0.3512  1.0123 -1.7325
16659TIP3    H271469   5.384   3.195   2.193  0.8386  0.5788  2.3981
16660TIP3   OH271470   4.403   6.474   2.836  0.7000  0.0690 -0.2525
16660TIP3    H171471   4.480   6.510   2.879  0.8873  1.4657 -1.6880
16660TIP3    H271472   4.436   6.429   2.758  0.2409 -1.0329  0.1857
16661TIP3   OH271473   4.411   6.564  15.696 -0.4146 -0.4661 -0.1012
16661TIP3    H171474   4.336   6.504  15.703  1.0393 -2.4034 -0.4901
16661TIP3    H271475   4.382   6.633  15.636 -2.5619 -0.0991  1.3139
16662TIP3   OH271476   6.492   0.623  16.262  0.0353  0.2699 -0.0852
16662TIP3    H171477   6.459   0.576  16.338  1.7030 -1.4538 -0.3643
16662TIP3    H271478   6.558   0.564  16.225  0.2458  1.6861 -2.0419
16663TIP3   OH271479   0.268   4.641  11.890  0.6711 -0.3788  0.2113
16663TIP3    H171480   0.213   4.587  11.946  1.6167 -1.6831 -0.0849
16663TIP3    H271481   0.212   4.663  11.815  0.1721 -0.6544  0.5017
16664TIP3   OH271482   2.250   2.309   1.150  0.1635 -0.3193  0.0660
16664TIP3    H171483   2.291   2.318   1.064  1.6752 -0.0925  0.7837
16664TIP3    H271484   2.322   2.286   1.208 -0.9341 -0.9945  1.1788
16665TIP3   OH271485   4.675   3.012  16.083  0.5006  0.1763  0.6999
16665TIP3    H171486   4.699   3.103  16.068  0.6718 -0.1114 -0.9165
16665TIP3    H271487   4.754   2.973  16.121  0.8317  0.4349  0.2851
16666TIP3   OH271488   6.216   6.021  14.372 -0.0632  0.0761 -0.6617
16666TIP3    H171489   6.148   6.072  14.328 -0.2331 -0.3829 -0.9294
16666TIP3    H271490   6.253   5.965  14.304 -1.7455 -2.1459  0.1943
16667TIP3   OH271491   6.030   5.322  10.832  0.4280 -0.3144  0.3288
16667TIP3    H171492   6.055   5.357  10.918 -0.7101 -1.9080  1.3449
16667TIP3    H271493   5.976   5.245  10.853  0.5090 -0.9745 -1.8251
16668TIP3   OH271494   5.611   6.612  12.629  0.2092 -0.4368  0.0549
16668TIP3    H171495   5.622   6.579  12.540  1.5474 -0.4667  0.2140
16668TIP3    H271496   5.521   6.589  12.653 -0.4039  0.2117 -1.5457
16669TIP3   OH271497   2.520   3.370   4.290 -0.1859 -0.9870 -0.2109
16669TIP3    H171498   2.539   3.281   4.260 -0.3086 -1.2630  0.5295
16669TIP3    H271499   2.468   3.358   4.369 -0.3339 -0.2541 -0.1979
16670TIP3   OH271500   2.054   6.650   3.862 -0.2095  0.1952 -0.2223
16670TIP3    H171501   2.103   6.688   3.935  0.7408  0.5950 -1.0539
16670TIP3    H271502   1.967   6.691   3.867 -1.0220 -1.7370  2.2356
16671TIP3   OH271503   3.399   1.472  12.834 -0.1417 -0.2999 -0.1614
16671TIP3    H171504   3.375   1.398  12.779 -1.3466  0.6866 -1.0090
16671TIP3    H271505   3.481   1.446  12.877  1.2010 -0.8602 -2.9320
16672TIP3   OH271506   2.223   6.221  12.490 -0.3973  0.7085 -0.0574
16672TIP3    H171507   2.293   6.189  12.546  0.5840  3.0638  0.1231
16672TIP3    H271508   2.225   6.164  12.413  2.2231  1.2202 -0.3992
16673TIP3   OH271509   0.223   4.485  11.491  0.2860 -0.1699 -0.5714
16673TIP3    H171510   0.263   4.572  11.488  0.1876 -0.0863  0.2784
16673TIP3    H271511   0.160   4.484  11.419 -1.7793  1.4908  1.1470
16674TIP3   OH271512   3.413   0.237   5.133 -0.8688  0.4619  0.6374
16674TIP3    H171513   3.403   0.178   5.207  0.3263 -0.5659  0.0007
16674TIP3    H271514   3.397   0.183   5.056 -1.5666  1.3970  0.1119
16675TIP3   OH271515   4.783   3.466   1.398 -0.5901 -0.1529 -0.1155
16675TIP3    H171516   4.809   3.470   1.306  1.4237  0.6362  0.4787
16675TIP3    H271517   4.812   3.379   1.428  0.6415  0.3957  0.3166
16676TIP3   OH271518   6.769   1.885  11.786  0.0013 -0.3426 -0.2287
16676TIP3    H171519   6.730   1.952  11.842 -0.9289 -0.8984 -0.1982
16676TIP3    H271520   6.731   1.903  11.699  1.6733  0.7136 -0.7686
16677TIP3   OH271521   3.539   4.932  15.989 -0.5932  0.3422 -0.5129
16677TIP3    H171522   3.481   4.898  16.057 -2.4200 -0.6250 -2.4805
16677TIP3    H271523   3.559   5.021  16.017 -1.0765 -0.1376  1.4194
16678TIP3   OH271524   5.097   0.628   5.616 -0.0086  0.2037  0.2862
16678TIP3    H171525   5.078   0.536   5.595  0.4103 -0.1063  1.2404
16678TIP3    H271526   5.136   0.625   5.703  0.2860  1.2668  0.1947
16679TIP3   OH271527   3.539   2.512  13.183 -0.2995  0.0162  0.2710
16679TIP3    H171528   3.559   2.524  13.276  1.0863 -0.6108  0.0774
16679TIP3    H271529   3.598   2.573  13.139  0.2713 -0.9154 -0.2673
16680TIP3   OH271530   3.482   3.963   2.127 -0.2244 -0.2258  0.2573
16680TIP3    H171531   3.394   3.928   2.112  0.1930 -1.1518 -0.0310
16680TIP3    H271532   3.500   4.015   2.048 -0.9188  0.8102  0.7705
16681TIP3   OH271533   3.391   4.161  15.467  0.1412  0.2549  0.5093
16681TIP3    H171534   3.461   4.208  15.514 -0.6670  0.5931  1.3944
16681TIP3    H271535   3.342   4.118  15.537  0.1729 -0.9452 -0.2119
16682TIP3   OH271536   3.190   4.151   0.178  0.3264  0.2113  0.8129
16682TIP3    H171537   3.249   4.134   0.251 -0.3135 -0.7108  1.1142
16682TIP3    H271538   3.154   4.066   0.156 -2.1442  0.9999  1.6958
16683TIP3   OH271539   5.420   4.404   4.455  0.2849  0.0092  0.0095
16683TIP3    H171540   5.414   4.485   4.406 -0.4291 -0.8140 -1.2982
16683TIP3    H271541   5.514   4.386   4.462  0.4092  0.4711 -0.4988
16684TIP3   OH271542   0.163   4.262  12.910 -0.5039 -0.0969 -0.2382
16684TIP3    H171543   0.077   4.289  12.942 -0.0454  0.4028  0.6044
16684TIP3    H271544   0.170   4.169  12.933 -1.1724 -0.3623 -1.1006
16685TIP3   OH271545   0.222   2.286  16.037 -0.2780 -0.3049  0.2254
16685TIP3    H171546   0.160   2.307  16.107  1.1864  1.9781  0.9071
16685TIP3    H271547   0.227   2.366  15.985  0.1322 -1.3405 -1.3511
16686TIP3   OH271548   4.562   3.496  14.997  0.2965 -0.4868 -0.3597
16686TIP3    H171549   4.502   3.426  15.023  0.9500 -1.6576 -1.8966
16686TIP3    H271550   4.517   3.540  14.925 -0.7481  1.6353  1.5433
16687TIP3   OH271551   2.626   0.630   4.217 -0.0210 -0.4524  0.3853
16687TIP3    H171552   2.638   0.721   4.245  2.2930 -0.9293  1.0493
16687TIP3    H271553   2.682   0.579   4.276 -2.2895 -2.4704  0.8566
16688TIP3   OH271554   1.148   3.495   5.389  0.3855 -0.3300  0.1976
16688TIP3    H171555   1.115   3.536   5.309 -0.6142 -1.3948  0.0582
16688TIP3    H271556   1.110   3.548   5.460  0.4299 -0.0241 -0.0040
16689TIP3   OH271557   3.743   4.268   2.063  0.6381 -0.2964  0.1279
16689TIP3    H171558   3.781   4.256   1.976  1.5943 -0.7966  0.6047
16689TIP3    H271559   3.817   4.289   2.119  0.2472 -1.5220  1.1212
16690TIP3   OH271560   6.761   3.820  15.518 -1.1025 -0.1293  0.2398
16690TIP3    H171561   6.702   3.890  15.491 -0.3160 -0.0378 -1.2843
16690TIP3    H271562   6.709   3.766  15.577 -1.8689  1.4548  1.0344
16691TIP3   OH271563   5.398   3.650   4.693  0.2795  0.8362 -0.0927
16691TIP3    H171564   5.310   3.612   4.688  0.1811  0.7551  1.6709
16691TIP3    H271565   5.419   3.646   4.787  1.7940  1.6869 -0.3939
16692TIP3   OH271566   4.361   1.638   0.965  0.4509  0.1041  0.0708
16692TIP3    H171567   4.361   1.726   0.927 -0.0468  0.6119  1.2129
16692TIP3    H271568   4.347   1.580   0.891 -0.9999  1.1185 -0.4752
16693TIP3   OH271569   2.794   2.128   4.084 -0.5458  0.4610  0.0980
16693TIP3    H171570   2.764   2.129   3.993 -1.4007 -0.4226  0.3631
16693TIP3    H271571   2.888   2.107   4.078 -0.8948 -0.9962 -0.5107
16694TIP3   OH271572   1.179   1.015   4.108 -0.4215 -0.5092 -0.5726
16694TIP3    H171573   1.100   0.963   4.126 -0.8267  0.4197  0.3579
16694TIP3    H271574   1.168   1.042   4.016 -2.1688  1.2283  0.0926
16695TIP3   OH271575   5.867   5.659   0.496  0.1512 -0.0763 -0.4922
16695TIP3    H171576   5.902   5.607   0.423 -0.3919  1.0414 -1.5797
16695TIP3    H271577   5.827   5.735   0.453 -0.7640  0.2653  0.9386
16696TIP3   OH271578   5.614   2.994   1.659  0.1796 -0.3608 -0.0611
16696TIP3    H171579   5.576   2.962   1.741 -0.9701 -1.2051 -0.9052
16696TIP3    H271580   5.649   3.081   1.681  0.9797 -1.0721  1.6142
16697TIP3   OH271581   5.448   1.485   2.510 -0.3425  0.5937 -0.1754
16697TIP3    H171582   5.533   1.442   2.518  0.6425  2.1818 -1.7550
16697TIP3    H271583   5.434   1.526   2.596  2.1326  3.2165 -0.9470
16698TIP3   OH271584   0.931   4.215   2.554  0.2596  0.2453  0.1666
16698TIP3    H171585   0.959   4.190   2.466 -2.0581  0.0005 -0.5236
16698TIP3    H271586   0.950   4.138   2.608 -0.6707 -0.5547 -0.6321
16699TIP3   OH271587   1.969   5.250  10.480 -0.4117  0.0042 -0.0086
16699TIP3    H171588   1.983   5.161  10.447  0.1768 -0.0949  0.5043
16699TIP3    H271589   1.890   5.280  10.435  0.2298 -0.2285 -1.2920
16700TIP3   OH271590   3.826   6.062  15.360  0.1818  0.7188 -1.1383
16700TIP3    H171591   3.889   6.016  15.416  0.0981  0.1167 -1.5283
16700TIP3    H271592   3.868   6.065  15.275 -0.8265 -0.7957 -1.7107
16701TIP3   OH271593   4.871   3.488  14.189  0.1361  0.1531 -0.3041
16701TIP3    H171594   4.831   3.494  14.102 -1.0191 -1.3110  0.1126
16701TIP3    H271595   4.965   3.484  14.171 -0.0981 -0.3796 -1.5051
16702TIP3   OH271596   2.866   3.976   6.392  0.3649  0.0014 -0.6999
16702TIP3    H171597   2.814   3.907   6.433  0.9675 -0.5759 -0.8926
16702TIP3    H271598   2.820   3.996   6.310 -0.5583  0.7961 -0.0006
16703TIP3   OH271599   2.984   4.405  12.466 -0.0853  0.4625  0.3873
16703TIP3    H171600   2.945   4.318  12.458  2.3719 -0.7543  1.2372
16703TIP3    H271601   2.932   4.448  12.535 -0.2152 -0.9699  1.2081
16704TIP3   OH271602   6.530   6.768  14.966  0.3153  0.0566 -0.5820
16704TIP3    H171603   6.478   6.716  15.027  1.3178  1.8380  1.8634
16704TIP3    H271604   6.468   6.794  14.898 -1.3528 -0.1867  0.8103
16705TIP3   OH271605   3.184   6.381   1.238  0.5187 -0.2683  0.0268
16705TIP3    H171606   3.239   6.459   1.234 -0.7935  0.8054  1.8028
16705TIP3    H271607   3.237   6.316   1.284  1.2385 -0.0968 -0.5569
16706TIP3   OH271608   3.436   0.644  13.010  0.0527 -0.5455  0.0917
16706TIP3    H171609   3.411   0.723  12.961  1.2995 -0.2845 -0.1425
16706TIP3    H271610   3.476   0.587  12.944  0.2749 -0.8610  0.5030
16707TIP3   OH271611   6.577   4.721   3.070  0.1844  0.3816 -0.9337
16707TIP3    H171612   6.576   4.683   3.158  0.2534 -0.8968 -1.4603
16707TIP3    H271613   6.660   4.689   3.032 -1.3366 -1.7738 -2.5804
16708TIP3   OH271614   5.172   4.935  11.300  0.2421  0.6816  0.0665
16708TIP3    H171615   5.198   4.897  11.384  0.5525  1.2175  0.2137
16708TIP3    H271616   5.203   4.873  11.234 -1.3419 -0.5072  0.4131
16709TIP3   OH271617   2.624   5.067   5.749  0.1173 -0.5952  0.0144
16709TIP3    H171618   2.659   5.151   5.779 -2.3038  1.2897 -2.1404
16709TIP3    H271619   2.587   5.028   5.828  0.4197  0.8155  0.8906
16710TIP3   OH271620   2.200   3.847   1.212  0.0186 -0.3606  0.1037
16710TIP3    H171621   2.153   3.900   1.276  0.1458 -1.3472  1.0453
16710TIP3    H271622   2.287   3.834   1.251  0.2184 -0.6794 -0.4338
16711TIP3   OH271623   2.041   1.141  12.291 -0.2869  0.5685 -0.4532
16711TIP3    H171624   2.125   1.155  12.334 -0.8010 -0.1103  0.8121
16711TIP3    H271625   2.025   1.221  12.243  0.5309  1.1707  0.2519
16712TIP3   OH271626   4.738   6.178   0.213  0.2032 -0.0230  0.3915
16712TIP3    H171627   4.807   6.243   0.199 -0.8660  1.0470 -0.0026
16712TIP3    H271628   4.773   6.120   0.280  1.1011  1.0801  0.8911
16713TIP3   OH271629   0.684   6.413   6.328 -0.1181 -0.0547  0.1236
16713TIP3    H171630   0.675   6.417   6.233  3.4600  1.7138 -0.2425
16713TIP3    H271631   0.636   6.488   6.361  1.9309  1.6641 -0.6684
16714TIP3   OH271632   5.493   1.838   1.853  0.5137  0.2182 -0.1128
16714TIP3    H171633   5.433   1.912   1.864  0.3055  0.0273  0.0497
16714TIP3    H271634   5.467   1.798   1.770  0.7726  0.4614 -0.3121
16715TIP3   OH271635   6.453   4.874  13.710 -0.5547 -0.0125  0.3342
16715TIP3    H171636   6.432   4.949  13.765 -0.5285  0.7091 -0.6261
16715TIP3    H271637   6.391   4.806  13.736 -0.6680  0.3870  1.1118
16716TIP3   OH271638   4.123   1.838  16.445  0.2920  0.6696 -0.4694
16716TIP3    H171639   4.055   1.770  16.451  0.3545  0.7332  1.0849
16716TIP3    H271640   4.077   1.914  16.409  0.0851  0.0007 -1.6455
16717TIP3   OH271641   0.448   3.711  12.219  0.9246  0.3199 -0.0250
16717TIP3    H171642   0.360   3.693  12.187  1.0910  1.2518 -1.0067
16717TIP3    H271643   0.471   3.633  12.270 -0.0646 -0.3609 -0.6081
16718TIP3   OH271644   2.180   3.401  12.340 -0.1933 -0.2081  0.0552
16718TIP3    H171645   2.270   3.410  12.370  0.0875  1.0640 -1.1218
16718TIP3    H271646   2.187   3.359  12.254 -0.6314  0.7018 -0.4457
16719TIP3   OH271647   0.084   3.986   5.344  0.5290  0.4829 -0.0706
16719TIP3    H171648   0.172   3.992   5.306  1.8481 -3.0748  2.1260
16719TIP3    H271649   0.090   4.036   5.425 -0.0158  1.6287 -0.7190
16720TIP3   OH271650   3.434   2.225  16.624 -0.2224  0.3190  0.2075
16720TIP3    H171651   3.351   2.211  16.670 -1.5996  1.1509 -1.9779
16720TIP3    H271652   3.435   2.318  16.603  1.1524  0.2643 -0.0560
16721TIP3   OH271653   6.419   3.371   3.036 -0.0307  0.0023  0.2628
16721TIP3    H171654   6.508   3.399   3.053  0.9300 -1.6501 -1.7055
16721TIP3    H271655   6.423   3.275   3.040 -1.7580 -0.0871  0.3463
16722TIP3   OH271656   1.750   3.471   4.675 -0.1205 -0.0215 -0.1241
16722TIP3    H171657   1.735   3.565   4.684 -0.5994  0.1209 -2.3026
16722TIP3    H271658   1.838   3.463   4.639  0.0609 -0.4240  0.4024
16723TIP3   OH271659   5.969   1.035  12.843  0.1622  0.1350  0.2713
16723TIP3    H171660   5.942   1.127  12.844 -0.7422 -0.1223  0.2752
16723TIP3    H271661   5.940   1.003  12.758 -0.9857 -0.5656  0.9102
16724TIP3   OH271662   1.239   1.191  17.248 -0.0424 -0.3406 -0.8130
16724TIP3    H171663   1.154   1.230  17.270  0.1767 -0.2911 -0.0542
16724TIP3    H271664   1.296   1.215  17.321  1.0875  1.1120 -2.1322
16725TIP3   OH271665   0.260   6.169  11.445  0.5662 -0.7226 -0.8344
16725TIP3    H171666   0.336   6.133  11.400  0.1884 -3.9885  1.0082
16725TIP3    H271667   0.215   6.093  11.481 -1.3041  1.4620  1.6549
16726TIP3   OH271668   4.608   0.792   4.866 -0.0623  0.1593  0.1381
16726TIP3    H171669   4.683   0.769   4.921 -0.2434  0.5729  0.5656
16726TIP3    H271670   4.612   0.888   4.859  0.0697  0.0897 -0.7290
16727TIP3   OH271671   3.123   5.573   1.137  0.3404 -0.1245 -0.0593
16727TIP3    H171672   3.127   5.524   1.220  1.1690  0.1707  0.0872
16727TIP3    H271673   3.178   5.522   1.077  2.9074  1.6459  0.6646
16728TIP3   OH271674   4.201   0.798   5.031  0.4270  0.7676  0.1867
16728TIP3    H171675   4.176   0.729   5.092 -2.2944  1.9470  0.4489
16728TIP3    H271676   4.253   0.753   4.964  0.1839 -1.2004  1.2856
16729TIP3   OH271677   2.350   1.621  17.156 -0.0230 -0.4028 -0.1168
16729TIP3    H171678   2.257   1.639  17.146 -0.1064 -1.1051 -0.6185
16729TIP3    H271679   2.366   1.629  17.250 -1.5072 -4.5349  0.5923
16730TIP3   OH271680   6.448   1.863  12.356  0.1016  0.2248 -0.2149
16730TIP3    H171681   6.490   1.945  12.328 -0.9241  0.0342 -2.3939
16730TIP3    H271682   6.434   1.815  12.275 -1.5548 -1.0379  0.8125
16731TIP3   OH271683   0.662   3.162  12.415 -0.3117 -0.7159 -0.1700
16731TIP3    H171684   0.726   3.208  12.361  0.6183  0.0209  1.5381
16731TIP3    H271685   0.709   3.140  12.495 -1.6097 -2.0109  0.2567
16732TIP3   OH271686   6.174   6.479  12.784 -0.4638 -0.3778 -0.1497
16732TIP3    H171687   6.149   6.463  12.693 -2.4640 -1.6665  0.6017
16732TIP3    H271688   6.248   6.420  12.799 -1.2406 -1.4500 -0.4496
16733TIP3   OH271689   0.470   2.387   4.943  0.1748  0.4590 -0.1002
16733TIP3    H171690   0.402   2.361   4.880 -0.3126 -0.4193  0.7533
16733TIP3    H271691   0.447   2.338   5.023  1.3797  0.7499  0.4288
16734TIP3   OH271692   4.583   3.944   2.535  0.2305 -0.6779 -0.4754
16734TIP3    H171693   4.557   3.982   2.451 -1.0800 -0.3911  0.0405
16734TIP3    H271694   4.526   3.868   2.545  0.8174 -1.0749 -0.1349
16735TIP3   OH271695   5.045   4.727  17.147  0.6602 -0.4071  0.0913
16735TIP3    H171696   4.952   4.712  17.130  0.4311  0.6961  0.3077
16735TIP3    H271697   5.085   4.731  17.060 -0.0974  2.6923 -0.1776
16736TIP3   OH271698   5.390   1.500  13.519 -1.2917 -0.4966 -0.0127
16736TIP3    H171699   5.453   1.469  13.585  0.4352  1.5705 -0.6340
16736TIP3    H271700   5.379   1.593  13.538 -2.0050 -0.2257 -1.6640
16737TIP3   OH271701   5.791   2.044  16.906 -0.1024 -0.4048 -0.0796
16737TIP3    H171702   5.807   2.038  16.812  0.3408  0.7930 -0.0831
16737TIP3    H271703   5.844   2.118  16.935 -1.1374 -0.0421  0.9132
16738TIP3   OH271704   1.946   4.719  13.833  0.1737  0.1436 -0.0607
16738TIP3    H171705   1.894   4.794  13.806 -1.9935 -1.1226  0.4812
16738TIP3    H271706   2.025   4.757  13.873 -0.2149  2.0849 -1.1031
16739TIP3   OH271707   1.365   4.519  13.577  0.2347 -0.2969  0.5439
16739TIP3    H171708   1.335   4.591  13.522 -1.1616 -0.5329  0.9514
16739TIP3    H271709   1.291   4.457  13.577 -0.5586  0.5035  4.0798
16740TIP3   OH271710   0.645   1.045  16.032  0.1769 -0.5356  0.1219
16740TIP3    H171711   0.620   0.995  16.110 -0.7309  0.2532  0.3595
16740TIP3    H271712   0.591   1.125  16.037 -0.0529 -0.5728 -1.4217
16741TIP3   OH271713   4.191   5.831  17.016  0.3236 -0.1843  0.0884
16741TIP3    H171714   4.286   5.826  17.027  0.3624 -0.4241 -0.3516
16741TIP3    H271715   4.173   5.924  17.000  0.4502 -0.0945  0.4594
16742TIP3   OH271716   6.111   4.084  14.710 -1.0312  0.6071 -0.3913
16742TIP3    H171717   6.078   4.029  14.640 -0.1559 -0.1537 -0.2210
16742TIP3    H271718   6.060   4.059  14.787 -1.8093  1.2551 -0.6874
16743TIP3   OH271719   0.722   6.695  13.649 -0.7532 -0.0433  0.4444
16743TIP3    H171720   0.777   6.671  13.574 -1.1244  0.2340  0.0767
16743TIP3    H271721   0.776   6.677  13.726 -0.4824 -0.6262  0.1205
16744TIP3   OH271722   5.879   5.320  17.242 -0.0957  0.4404 -0.2528
16744TIP3    H171723   5.896   5.231  17.273 -0.4327  0.9733  1.5552
16744TIP3    H271724   5.958   5.368  17.266 -1.0322  1.2378  1.3252
16745TIP3   OH271725   4.614   4.323   5.155 -0.2461 -0.0259  0.5336
16745TIP3    H171726   4.555   4.287   5.090  0.7895 -1.8742  0.5788
16745TIP3    H271727   4.568   4.312   5.238  0.0938 -1.3828  0.5586
16746TIP3   OH271728   1.047   1.657  16.026 -0.1079  0.4161  0.1331
16746TIP3    H171729   1.103   1.730  16.051 -0.8906  0.9615  0.3081
16746TIP3    H271730   1.029   1.672  15.933 -0.6646  0.7148  0.2874
16747TIP3   OH271731   2.028   1.191   4.676  0.3685 -0.0359 -0.6192
16747TIP3    H171732   1.948   1.143   4.655  0.8486 -0.3869 -1.6795
16747TIP3    H271733   2.096   1.123   4.677  1.2379  0.7458 -3.1844
16748TIP3   OH271734   5.071   0.076   2.772 -0.4915  0.0400  0.0764
16748TIP3    H171735   5.152   0.040   2.737 -0.9426 -1.0832  0.1522
16748TIP3    H271736   5.066   0.164   2.737  0.3259 -0.1915 -0.6270
16749TIP3   OH271737   4.455   3.005   4.328 -0.0408 -0.0001 -0.6380
16749TIP3    H171738   4.417   2.978   4.245  0.2767  0.2874 -0.8773
16749TIP3    H271739   4.394   2.973   4.394 -0.7788  0.5751 -1.0263
16750TIP3   OH271740   6.326   0.524   4.664 -0.3178 -0.5289 -0.3859
16750TIP3    H171741   6.292   0.435   4.657  2.1853 -1.5847  0.4651
16750TIP3    H271742   6.299   0.554   4.751 -1.2145 -0.4232 -0.6984
16751TIP3   OH271743   6.717   1.673   2.258 -0.3131  0.5148  0.1558
16751TIP3    H171744   6.803   1.714   2.257  0.5394 -1.2175  0.5746
16751TIP3    H271745   6.663   1.729   2.201  1.3408  1.0480 -0.9328
16752TIP3   OH271746   0.077   4.694  10.946 -0.0866  0.1636  0.3221
16752TIP3    H171747   0.168   4.671  10.930  0.9330  3.1667  1.4893
16752TIP3    H271748   0.031   4.667  10.867  1.8738 -0.9647 -0.4600
16753TIP3   OH271749   3.520   2.048   5.036  0.3695 -0.3027  0.0761
16753TIP3    H171750   3.478   2.052   4.950  2.2428  1.0239 -0.8028
16753TIP3    H271751   3.518   1.955   5.059 -1.0981 -0.5323 -0.9182
16754TIP3   OH271752   0.777   1.087   6.742 -0.0399  0.7178  0.2919
16754TIP3    H171753   0.861   1.041   6.750 -0.6724 -0.3887  0.6894
16754TIP3    H271754   0.761   1.089   6.647  0.1542  0.4227  0.2511
16755TIP3   OH271755   4.316   3.489  16.092  0.0520  0.4043 -0.4809
16755TIP3    H171756   4.274   3.567  16.126  0.4538 -0.4894  2.2377
16755TIP3    H271757   4.358   3.449  16.169 -4.0028 -4.9462 -0.7056
16756TIP3   OH271758   0.901   2.545   3.343 -0.0661  0.3499  0.5235
16756TIP3    H171759   0.930   2.584   3.425 -1.4599  0.7736  0.8392
16756TIP3    H271760   0.881   2.454   3.366  2.3788 -0.3417 -0.0232
16757TIP3   OH271761   1.717   3.037   3.466 -0.3567 -0.2482  0.6138
16757TIP3    H171762   1.671   2.958   3.495  0.2539 -1.9622 -2.8172
16757TIP3    H271763   1.803   3.005   3.439 -0.3457  1.4611 -1.4819
16758TIP3   OH271764   5.953   4.962  13.959 -0.6232  0.1289  0.2705
16758TIP3    H171765   5.963   5.043  14.009 -1.2203 -0.7583  1.8723
16758TIP3    H271766   6.005   4.975  13.879 -0.0429  1.7487  0.9101
16759TIP3   OH271767   0.303   4.733  11.562 -0.4597 -0.2892 -0.3706
16759TIP3    H171768   0.252   4.802  11.521  1.5060  0.4276 -1.7094
16759TIP3    H271769   0.359   4.779  11.625 -0.2668 -0.8293 -0.1481
16760TIP3   OH271770   3.786   1.575  11.021  0.4187  0.2642  0.3557
16760TIP3    H171771   3.795   1.662  10.982 -1.1282 -1.0843 -3.1661
16760TIP3    H271772   3.843   1.519  10.969  0.8003 -0.9965  2.1037
16761TIP3   OH271773   0.805   5.189  12.548 -0.0148 -0.0145  0.1714
16761TIP3    H171774   0.887   5.196  12.597  0.9665  1.2284 -1.5695
16761TIP3    H271775   0.792   5.276  12.510 -2.2744 -0.1418  0.6150
16762TIP3   OH271776   2.458   0.797  15.948  0.0282  0.7882 -0.1398
16762TIP3    H171777   2.436   0.855  16.020 -0.3920  0.7529 -0.2387
16762TIP3    H271778   2.549   0.819  15.926  0.8612 -0.6338  1.7697
16763TIP3   OH271779   0.898   0.349  17.281 -0.0415 -0.0143  0.2829
16763TIP3    H171780   0.941   0.425  17.319  0.1031 -0.1924  0.4766
16763TIP3    H271781   0.948   0.274  17.314 -0.1526 -0.1902  0.0528
16764TIP3   OH271782   0.872   0.663  13.329  0.0273 -0.0164 -0.9769
16764TIP3    H171783   0.823   0.696  13.254 -0.9847 -1.6049 -1.0267
16764TIP3    H271784   0.825   0.584  13.357  0.1798  0.7094  1.5290
16765TIP3   OH271785   0.035   4.140   5.125  0.4488  0.1662  0.3344
16765TIP3    H171786   0.049   4.234   5.136  0.9318  0.2859 -1.1015
16765TIP3    H271787   0.071   4.100   5.204 -0.6874  1.2481  1.4211
16766TIP3   OH271788   0.336   0.595   4.694 -0.1670  0.2447  0.3008
16766TIP3    H171789   0.313   0.595   4.786 -4.0979 -3.3449 -0.4932
16766TIP3    H271790   0.297   0.675   4.659 -4.2770 -1.4259  0.7130
16767TIP3   OH271791   4.292   5.603  15.324 -0.2791  0.9581  0.2872
16767TIP3    H171792   4.238   5.540  15.275  0.8486  0.1688  0.0449
16767TIP3    H271793   4.374   5.557  15.340  0.3858  2.2094  0.5258
16768TIP3   OH271794   1.600   2.956  11.173  0.5792  0.0337 -0.2522
16768TIP3    H171795   1.514   2.969  11.213  0.7773 -0.4540  0.3432
16768TIP3    H271796   1.581   2.926  11.084  0.1328  0.0764 -0.1736
16769TIP3   OH271797   4.181   3.922   2.472  0.1510  0.4178 -0.3880
16769TIP3    H171798   4.224   4.001   2.441 -0.5860  1.3993  1.0433
16769TIP3    H271799   4.089   3.934   2.449  0.1550 -0.3846 -0.8544
16770TIP3   OH271800   1.178   4.733  16.705  0.4876 -0.4037  0.3090
16770TIP3    H171801   1.218   4.809  16.747  0.7868 -0.2020 -0.3459
16770TIP3    H271802   1.087   4.760  16.689  0.3573 -0.4997  0.8646
16771TIP3   OH271803   0.155   1.800  11.959 -0.3573  0.6125 -0.0007
16771TIP3    H171804   0.166   1.705  11.970 -1.3588  0.4952  0.0388
16771TIP3    H271805   0.085   1.808  11.894  0.1949  1.3266 -0.5151
16772TIP3   OH271806   0.365   1.889   5.882  0.1128 -0.1841 -0.1396
16772TIP3    H171807   0.284   1.861   5.924 -0.0782 -1.1271 -1.1200
16772TIP3    H271808   0.430   1.824   5.909  0.0462 -0.6470 -1.0944
16773TIP3   OH271809   6.688   4.392  14.935  0.4105  0.2720  0.0590
16773TIP3    H171810   6.757   4.421  14.876  2.3950 -1.0780  1.6372
16773TIP3    H271811   6.684   4.460  15.003 -1.0361  1.2111 -0.9265
16774TIP3   OH271812   2.015   6.561  12.586  0.0480 -0.9261  0.9289
16774TIP3    H171813   1.935   6.586  12.540  2.1156  0.9332 -1.7937
16774TIP3    H271814   2.009   6.606  12.670 -0.0672  2.1910 -0.7073
16775TIP3   OH271815   4.519   1.658  11.035 -0.5058  0.1482 -0.4979
16775TIP3    H171816   4.435   1.643  11.078  0.4226 -3.5038  0.1996
16775TIP3    H271817   4.497   1.673  10.943 -1.9600  0.3616 -0.1274
16776TIP3   OH271818   6.256   4.551  16.402 -0.8411  0.1836 -0.3726
16776TIP3    H171819   6.345   4.521  16.384 -0.6575  0.7089 -0.3371
16776TIP3    H271820   6.221   4.572  16.315 -1.4203 -1.3586 -0.5395
16777TIP3   OH271821   6.529   4.820   5.040  0.1339 -0.1415  0.5370
16777TIP3    H171822   6.610   4.774   5.065  0.7307  1.6302  1.9607
16777TIP3    H271823   6.542   4.910   5.071 -2.7358 -0.0329  1.5542
16778TIP3   OH271824   5.908   1.670   3.385  0.1904  0.3139  0.1208
16778TIP3    H171825   5.815   1.661   3.402  0.3418 -0.7910  0.3886
16778TIP3    H271826   5.915   1.751   3.333 -1.1549 -0.6971 -1.7173
16779TIP3   OH271827   6.772   1.370  13.465  0.0656 -0.2291  0.0563
16779TIP3    H171828   6.821   1.307  13.412 -0.0547 -0.2667 -0.0101
16779TIP3    H271829   6.839   1.416  13.516  0.3336  0.8652 -1.2404
16780TIP3   OH271830   3.525   0.000   0.899 -0.5540  0.3937  0.1846
16780TIP3    H171831   3.613  -0.025   0.926 -0.5251 -1.5304 -1.5102
16780TIP3    H271832   3.539   0.060   0.825 -0.6765  2.0435  1.4608
16781TIP3   OH271833   2.865   4.074   2.954 -0.0061 -0.1330 -0.6990
16781TIP3    H171834   2.771   4.060   2.942  0.3721 -2.2997 -1.2983
16781TIP3    H271835   2.901   3.986   2.965  1.9357  0.6925 -0.3573
16782TIP3   OH271836   2.393   0.710  11.406 -0.5399 -0.4769 -0.7156
16782TIP3    H171837   2.456   0.764  11.452  0.4808 -1.6151 -0.7379
16782TIP3    H271838   2.400   0.624  11.447 -2.2977 -0.5539 -0.5193
16783TIP3   OH271839   3.833   4.754  14.081 -0.1364 -0.4799  0.1558
16783TIP3    H171840   3.787   4.758  14.165  2.4799 -2.2274  1.7483
16783TIP3    H271841   3.888   4.832  14.080  0.4008 -0.8479  0.4444
16784TIP3   OH271842   5.695   4.206  15.119  0.0969  0.2986 -0.2115
16784TIP3    H171843   5.747   4.191  15.040 -1.4748 -1.4076 -0.9313
16784TIP3    H271844   5.634   4.275  15.094 -0.5263 -0.3736 -0.5419
16785TIP3   OH271845   5.025   3.367   5.097 -0.0375 -0.5815  0.1979
16785TIP3    H171846   4.996   3.323   5.017 -0.8645  0.2044  0.0646
16785TIP3    H271847   5.028   3.297   5.163 -1.9713 -0.7383  0.1504
16786TIP3   OH271848   5.171   3.956   1.531  0.7608  0.0257 -0.0745
16786TIP3    H171849   5.148   4.008   1.608  1.7168 -1.8573  1.5411
16786TIP3    H271850   5.257   3.990   1.504  0.9473 -0.0712  0.3937
16787TIP3   OH271851   4.399   3.421   6.507 -0.0792 -0.4790 -0.1873
16787TIP3    H171852   4.327   3.454   6.453 -1.6049 -2.1217  0.7900
16787TIP3    H271853   4.452   3.498   6.526 -2.4023  1.0550  0.2930
16788TIP3   OH271854   3.029   5.294   0.102  0.2524  0.2299  0.3626
16788TIP3    H171855   3.036   5.252   0.188  2.5637  2.0893  1.1430
16788TIP3    H271856   3.111   5.270   0.057 -0.7652 -0.4005 -1.1841
16789TIP3   OH271857   0.451   1.378   4.264 -0.0909  0.0246 -0.0979
16789TIP3    H171858   0.461   1.326   4.184 -1.6720 -1.2337  0.5205
16789TIP3    H271859   0.539   1.380   4.302  0.2515 -1.0661 -0.8143
16790TIP3   OH271860   5.301   5.720   6.404 -0.5508 -0.2541  0.5870
16790TIP3    H171861   5.244   5.766   6.342  0.6921  1.3995  0.6426
16790TIP3    H271862   5.377   5.777   6.413  0.0715 -1.3292  2.2975
16791TIP3   OH271863   0.305   5.243  16.569  0.2868  0.4493  0.1007
16791TIP3    H171864   0.333   5.189  16.642  0.0053  0.6960  0.3930
16791TIP3    H271865   0.226   5.201  16.536  0.8529 -0.1099 -0.5691
16792TIP3   OH271866   5.620   2.087  12.214  0.1208  0.0428 -0.6430
16792TIP3    H171867   5.674   2.013  12.186 -0.4728 -0.1220 -1.3478
16792TIP3    H271868   5.578   2.057  12.295  0.7981  0.0405 -0.2850
16793TIP3   OH271869   4.096   0.216   5.091  0.3326  0.2921 -0.2271
16793TIP3    H171870   4.081   0.121   5.084  1.8529 -0.0708  1.2141
16793TIP3    H271871   4.022   0.255   5.044 -0.6250 -1.5926 -0.3482
16794TIP3   OH271872   1.517   4.942  15.267 -0.0744 -0.4009  0.1068
16794TIP3    H171873   1.601   4.960  15.223 -0.9801 -2.1924 -2.4980
16794TIP3    H271874   1.460   4.909  15.197 -2.6288 -0.2474  2.0449
16795TIP3   OH271875   3.297   4.835   5.232  0.2879 -0.2464  0.0797
16795TIP3    H171876   3.235   4.870   5.296  3.6743  0.7328  2.9557
16795TIP3    H271877   3.278   4.884   5.152 -1.4826  1.2241  1.3583
16796TIP3   OH271878   1.092   4.782   6.531  0.0865  0.3660 -0.0372
16796TIP3    H171879   1.059   4.840   6.600  1.7564  0.9405  0.2944
16796TIP3    H271880   1.041   4.701   6.542  1.4063 -0.1191  2.9093
16797TIP3   OH271881   3.370   6.806   6.319  0.6256  0.6623  0.2659
16797TIP3    H171882   3.285   6.850   6.319  0.5858  0.5845  0.6330
16797TIP3    H271883   3.351   6.715   6.342  0.9348  0.9007  1.5178
16798TIP3   OH271884   6.797   2.942  12.037  0.3355 -0.5251 -0.3228
16798TIP3    H171885   6.842   2.925  12.119 -1.1088 -0.0515  0.5847
16798TIP3    H271886   6.741   3.018  12.055 -0.6071 -0.9144 -1.4870
16799TIP3   OH271887   1.069   1.568   4.675  0.2240 -0.2911 -0.0590
16799TIP3    H171888   1.080   1.628   4.748  1.4430 -2.7923  1.8942
16799TIP3    H271889   1.133   1.597   4.610 -0.7488  1.8506 -0.1106
16800TIP3   OH271890   5.001   5.307   0.689  0.0295 -0.2031 -0.3779
16800TIP3    H171891   4.928   5.264   0.645  0.3201 -0.4611 -0.6129
16800TIP3    H271892   5.032   5.243   0.752  0.6327 -0.4467 -0.9130
16801TIP3   OH271893   2.237   4.827   4.932 -0.5390  0.7351 -0.2973
16801TIP3    H171894   2.328   4.854   4.941  0.2278 -1.2814 -1.5399
16801TIP3    H271895   2.196   4.852   5.015  1.6682 -0.2714  1.1472
16802TIP3   OH271896   6.812   3.203  17.076 -0.2212 -0.2774  0.3564
16802TIP3    H171897   6.723   3.179  17.103 -0.4170  1.4867  1.3404
16802TIP3    H271898   6.845   3.256  17.149  0.3965  1.9466 -1.5017
16803TIP3   OH271899   4.358   1.746   6.207 -0.2845 -0.3780 -0.2403
16803TIP3    H171900   4.320   1.659   6.193  1.6596 -1.2134 -0.5360
16803TIP3    H271901   4.313   1.780   6.284 -0.5874 -1.9411  0.2868
16804TIP3   OH271902   0.823   1.769  12.666  0.2060 -0.3560 -0.0047
16804TIP3    H171903   0.831   1.681  12.630  0.7606 -0.6105  0.7313
16804TIP3    H271904   0.846   1.759  12.758  1.9743  0.8848 -0.3060
16805TIP3   OH271905   1.826   4.013  12.189 -0.0575  0.5130 -0.5001
16805TIP3    H171906   1.880   3.934  12.183 -0.4387  0.3719 -2.5375
16805TIP3    H271907   1.881   4.076  12.235  0.8865 -0.4038 -0.3360
16806TIP3   OH271908   6.536   3.790  14.689 -0.3290  0.5665 -0.3660
16806TIP3    H171909   6.446   3.788  14.722 -0.5926 -0.9918 -1.1418
16806TIP3    H271910   6.556   3.699  14.669  1.4405  0.9045 -0.1914
16807TIP3   OH271911   5.992   1.288   6.425  0.1645 -0.0937 -0.7772
16807TIP3    H171912   6.008   1.366   6.479  1.6893 -1.1447  0.3321
16807TIP3    H271913   5.900   1.294   6.401 -0.1865  1.1248  0.8082
16808TIP3   OH271914   4.970   1.998  13.576  0.0759  0.1380  0.3747
16808TIP3    H171915   5.054   2.017  13.535 -0.1912 -1.4997 -0.9826
16808TIP3    H271916   4.991   1.990  13.670  1.7055 -1.6622 -0.1086
16809TIP3   OH271917   6.253   0.504  12.368  0.0039 -0.2175 -0.9281
16809TIP3    H171918   6.327   0.498  12.429 -0.6142  1.0510 -0.0197
16809TIP3    H271919   6.202   0.426  12.385  0.6520 -0.6424 -0.9043
16810TIP3   OH271920   5.137   1.874  13.840  1.0850 -0.1780  0.1435
16810TIP3    H171921   5.117   1.785  13.870 -3.1085  0.6966  0.3476
16810TIP3    H271922   5.208   1.903  13.897  0.1689 -2.2014  2.4113
16811TIP3   OH271923   6.083   6.247   2.306  0.0705 -0.4360  0.7960
16811TIP3    H171924   6.152   6.249   2.373  1.0334 -0.6902 -0.1753
16811TIP3    H271925   6.040   6.162   2.319  0.1466 -0.4148  1.1991
16812TIP3   OH271926   2.065   3.422  14.790 -0.2441 -0.1065 -0.2570
16812TIP3    H171927   2.119   3.416  14.712 -1.0018  2.0888 -0.9786
16812TIP3    H271928   2.124   3.455  14.858  0.2136 -1.2510 -0.0849
16813TIP3   OH271929   6.226   1.515  16.052 -0.0549 -0.3517  0.4343
16813TIP3    H171930   6.183   1.508  16.137 -0.7153 -1.9816 -0.0176
16813TIP3    H271931   6.303   1.569  16.068 -2.2626  2.6658  1.2359
16814TIP3   OH271932   3.955   2.254   2.379 -0.2724  0.2918 -0.2431
16814TIP3    H171933   4.045   2.227   2.361 -0.2628  0.9018 -1.1726
16814TIP3    H271934   3.942   2.236   2.472  0.5047 -0.6773 -0.3107
16815TIP3   OH271935   1.311   1.421  14.937  0.7104  0.2641 -0.6022
16815TIP3    H171936   1.292   1.494  14.996  1.5451 -0.5351  0.7005
16815TIP3    H271937   1.383   1.452  14.883  0.5384  0.6898 -0.5847
16816TIP3   OH271938   5.754   3.245   1.637 -0.5539 -0.6006  0.2342
16816TIP3    H171939   5.833   3.275   1.591  0.5887 -1.4659  1.6168
16816TIP3    H271940   5.686   3.307   1.610  0.2829 -0.5707 -1.9507
16817TIP3   OH271941   4.975   3.819   6.063 -0.4748 -0.0683  0.4494
16817TIP3    H171942   4.902   3.840   6.122 -0.4203  0.0388  0.4791
16817TIP3    H271943   5.053   3.840   6.114 -0.4009 -1.0572  0.7561
16818TIP3   OH271944   4.484   5.981   3.857  0.7404  0.3928  0.1181
16818TIP3    H171945   4.451   5.908   3.805  0.1322  1.2401 -0.7058
16818TIP3    H271946   4.547   5.941   3.918 -1.2069 -1.1373  1.2027
16819TIP3   OH271947   4.420   2.611   2.578 -0.2022 -0.1363  0.0892
16819TIP3    H171948   4.345   2.650   2.535  0.0986  1.5510  1.0792
16819TIP3    H271949   4.413   2.638   2.669  2.7920  1.8947 -0.2283
16820TIP3   OH271950   0.168   2.921  15.835 -0.0670  0.2506  0.1424
16820TIP3    H171951   0.162   3.015  15.852  3.9784  0.5899  0.1477
16820TIP3    H271952   0.211   2.915  15.750 -0.7005 -1.6093 -0.0577
16821TIP3   OH271953   2.939   4.349  17.104  0.3839 -0.1197 -0.5777
16821TIP3    H171954   2.940   4.258  17.076 -0.2872 -0.0769 -0.7301
16821TIP3    H271955   2.857   4.359  17.151  0.8842  0.1618  0.2577
16822TIP3   OH271956   3.315   0.177  11.415  0.4053  0.3309 -0.3031
16822TIP3    H171957   3.401   0.168  11.373  0.5646  1.3068 -0.1875
16822TIP3    H271958   3.317   0.113  11.486  1.1642  0.5682 -0.1071
16823TIP3   OH271959   5.691   1.519   0.603  1.1107  0.0139  0.4304
16823TIP3    H171960   5.597   1.537   0.607  1.2696  0.6772  1.1659
16823TIP3    H271961   5.700   1.458   0.529  0.2642  0.9406 -0.4474
16824TIP3   OH271962   5.053   5.446  17.177  0.1444 -0.0279 -0.1092
16824TIP3    H171963   5.018   5.386  17.111 -0.6474  0.9663 -0.6135
16824TIP3    H271964   5.031   5.533  17.144 -1.3203  0.4461  2.0506
16825TIP3   OH271965   0.411   4.536   2.913 -0.3816 -0.4674  0.3487
16825TIP3    H171966   0.392   4.449   2.879 -0.5265 -0.2033 -0.2761
16825TIP3    H271967   0.390   4.595   2.839  0.0537  0.0594  0.6415
16826TIP3   OH271968   2.035   1.294   1.042  0.4737 -0.7737  0.4912
16826TIP3    H171969   1.981   1.215   1.046 -0.5460 -0.0470  1.2050
16826TIP3    H271970   1.973   1.364   1.021  1.2924 -0.0705  0.4051
16827TIP3   OH271971   5.087   5.107  15.788  0.0982 -0.3587 -0.1173
16827TIP3    H171972   5.067   5.019  15.755 -0.3902 -0.5984  0.8038
16827TIP3    H271973   5.004   5.154  15.786  0.7030  0.6652 -2.3114
16828TIP3   OH271974   6.434   5.788   4.933  0.4554 -0.3302 -0.2621
16828TIP3    H171975   6.523   5.756   4.919 -0.1454 -3.0654  1.8892
16828TIP3    H271976   6.425   5.793   5.028 -1.9341 -0.7665 -0.4408
16829TIP3   OH271977   4.608   1.140   0.094 -0.4163 -0.3890  0.0829
16829TIP3    H171978   4.515   1.141   0.115 -0.2651 -1.9476  0.9419
16829TIP3    H271979   4.651   1.117   0.177  0.6841 -0.2181 -0.4325
16830TIP3   OH271980   5.326   6.064  17.023 -0.5202  0.4386 -0.5950
16830TIP3    H171981   5.246   6.011  17.022 -0.5808  0.5491 -1.9684
16830TIP3    H271982   5.391   6.009  16.979  1.0305 -0.9355  3.1437
16831TIP3   OH271983   5.912   4.906  17.059  0.3080 -0.2817  0.0870
16831TIP3    H171984   5.994   4.954  17.047  0.5538 -0.6170  0.4085
16831TIP3    H271985   5.844   4.974  17.057  0.5845 -0.0094 -0.2403
16832TIP3   OH271986   3.935   4.418   4.421  0.3005  0.5883  0.0509
16832TIP3    H171987   3.926   4.344   4.481  0.9028  0.7831  0.3792
16832TIP3    H271988   3.943   4.378   4.335 -0.0955  0.2957  0.1474
16833TIP3   OH271989   5.234   0.786  11.826 -0.6120  0.2559 -0.7015
16833TIP3    H171990   5.148   0.814  11.859 -0.9465  0.0332 -1.3595
16833TIP3    H271991   5.280   0.867  11.806 -0.1965  0.4059  0.8111
16834TIP3   OH271992   5.427   4.623  13.547  0.1567  0.6412 -0.2110
16834TIP3    H171993   5.445   4.676  13.625  2.3055  0.5330 -0.6056
16834TIP3    H271994   5.489   4.655  13.482  0.3550 -1.2372 -0.9791
16835TIP3   OH271995   5.965   6.302  13.719  0.6368  0.2720  0.2302
16835TIP3    H171996   6.006   6.319  13.804 -0.6280  0.3381  0.8525
16835TIP3    H271997   5.976   6.208  13.704  1.1462  0.3194  0.3190
16836TIP3   OH271998   4.042   5.063   6.031  0.4387  0.5761 -0.3409
16836TIP3    H171999   3.975   5.011   6.075  0.6498 -0.6029 -1.3530
16836TIP3    H272000   4.009   5.152   6.033  0.7231  0.6728  2.6865
16837TIP3   OH272001   5.744   0.976  11.691 -0.1712 -1.0141 -0.2046
16837TIP3    H172002   5.669   1.008  11.741  0.5853  0.6215 -0.1060
16837TIP3    H272003   5.813   0.964  11.756  0.1083 -1.1026 -0.5158
16838TIP3   OH272004   5.848   6.420   0.753  0.3339 -0.1245  0.1822
16838TIP3    H172005   5.868   6.326   0.749  0.8785  0.0363 -1.4253
16838TIP3    H272006   5.756   6.424   0.776  0.0222 -1.0895 -0.8577
16839TIP3   OH272007   6.618   4.522   0.731 -0.4780  0.1091  0.2074
16839TIP3    H172008   6.525   4.539   0.716 -0.2499  0.7349 -0.5702
16839TIP3    H272009   6.662   4.600   0.697  0.2700  0.2573  1.4974
16840TIP3   OH272010   1.208   5.334  10.693  0.5727  0.0546 -0.1262
16840TIP3    H172011   1.118   5.350  10.666  0.9615  1.5415 -0.5947
16840TIP3    H272012   1.247   5.421  10.700  1.5837 -0.4936  1.4566
16841TIP3   OH272013   2.133   5.832   4.743  0.1665  0.5040 -0.7740
16841TIP3    H172014   2.138   5.817   4.838 -1.0930 -0.1736 -0.8036
16841TIP3    H272015   2.155   5.924   4.732  0.4751  0.5494  0.1627
16842TIP3   OH272016   6.370   1.595  13.040 -0.0750  0.5155 -0.3783
16842TIP3    H172017   6.375   1.501  13.026  0.1054 -0.1740  3.5857
16842TIP3    H272018   6.277   1.615  13.035 -0.4355 -0.4670  1.6840
16843TIP3   OH272019   1.277   0.100  14.907  0.0596 -0.2697  0.0052
16843TIP3    H172020   1.212   0.127  14.973  0.4869  1.2706 -0.1687
16843TIP3    H272021   1.258   0.155  14.831  2.1661  0.9228  0.2934
16844TIP3   OH272022   6.026   4.202  11.642 -0.7979  0.4351  0.2723
16844TIP3    H172023   5.982   4.122  11.672 -0.1724  0.5444  1.4989
16844TIP3    H272024   6.052   4.182  11.551 -1.2358 -0.5118  0.3533
16845TIP3   OH272025   2.951   3.262   4.923 -0.2678 -0.6507 -0.0964
16845TIP3    H172026   2.856   3.253   4.927 -0.1505 -2.4049 -0.9034
16845TIP3    H272027   2.978   3.201   4.854  1.2101  1.6173 -1.5907
16846TIP3   OH272028   4.395   4.416   5.677 -0.2988  0.6705 -0.5318
16846TIP3    H172029   4.452   4.453   5.744 -0.3889  2.5808 -1.4702
16846TIP3    H272030   4.387   4.485   5.612 -2.3249 -0.2016 -1.2414
16847TIP3   OH272031   5.912   1.070  12.329  0.4781  0.2426 -0.0939
16847TIP3    H172032   5.972   1.143  12.314 -0.9293  0.7656 -3.5968
16847TIP3    H272033   5.842   1.107  12.383  1.8692  0.3209  1.7226
16848TIP3   OH272034   4.120   1.733  12.703 -0.0005 -0.7663 -0.1342
16848TIP3    H172035   4.073   1.814  12.684 -0.0974 -0.4501  1.3863
16848TIP3    H272036   4.185   1.757  12.769 -0.7991 -2.1437  1.1887
16849TIP3   OH272037   3.574   1.033   4.547  0.2041  0.1614  0.3589
16849TIP3    H172038   3.522   0.965   4.589 -0.8208  2.0325  2.1752
16849TIP3    H272039   3.510   1.091   4.505  0.8720  1.6568  1.3566
16850TIP3   OH272040   0.612   0.378   5.177 -0.0311  0.0574  0.0794
16850TIP3    H172041   0.695   0.363   5.222 -0.2524  0.7877  0.7305
16850TIP3    H272042   0.599   0.473   5.181 -1.0260 -0.0797  0.2053
16851TIP3   OH272043   5.865   0.792  13.067  0.3790  0.2375 -0.5364
16851TIP3    H172044   5.847   0.800  12.973 -1.3747 -1.1859 -0.3402
16851TIP3    H272045   5.848   0.880  13.102 -0.2601  0.4447 -1.3493
16852TIP3   OH272046   4.395   0.757   3.053 -0.1366 -0.5565 -0.2541
16852TIP3    H172047   4.447   0.679   3.071 -0.7840 -1.1022 -0.7390
16852TIP3    H272048   4.388   0.760   2.958 -1.2491 -0.6490 -0.1757
16853TIP3   OH272049   2.066   5.948  15.321  0.1511  0.3946 -0.7023
16853TIP3    H172050   2.161   5.936  15.319 -0.0694 -1.4455 -0.6552
16853TIP3    H272051   2.054   6.043  15.316  1.9856  0.6412 -0.7640
16854TIP3   OH272052   2.221   3.968  14.257  0.3560 -0.3291 -0.2413
16854TIP3    H172053   2.174   4.047  14.228  1.5770  0.6977  0.5366
16854TIP3    H272054   2.267   3.938  14.178  1.0793  0.6087 -0.1930
16855TIP3   OH272055   2.572   3.485  12.682  0.2858  0.1060 -0.3178
16855TIP3    H172056   2.576   3.551  12.613  0.4079  0.1730 -0.2474
16855TIP3    H272057   2.610   3.528  12.758  1.4670 -0.4417 -0.5853
16856TIP3   OH272058   4.186   4.563   0.859  0.3433 -0.5427  0.0958
16856TIP3    H172059   4.276   4.592   0.849  0.2875 -0.2866  0.3289
16856TIP3    H272060   4.142   4.591   0.779  0.5005 -0.7856 -0.0760
16857TIP3   OH272061   0.929   4.043  14.751 -0.0291 -0.8991 -0.4056
16857TIP3    H172062   0.986   4.060  14.677 -0.5173 -0.5978 -0.7138
16857TIP3    H272063   0.985   4.053  14.828 -0.2971  2.0757 -0.5687
16858TIP3   OH272064   4.208   4.756   2.403 -0.4921 -0.0637 -0.3244
16858TIP3    H172065   4.181   4.698   2.474 -1.5079  0.7399 -0.0423
16858TIP3    H272066   4.279   4.808   2.440 -1.6329  0.9949  0.4127
16859TIP3   OH272067   2.879   5.405   3.604 -0.9627  0.1517 -0.8680
16859TIP3    H172068   2.789   5.373   3.610 -0.8934 -0.0182 -0.7545
16859TIP3    H272069   2.878   5.489   3.650 -0.7846 -0.4193  0.1658
16860TIP3   OH272070   4.779   5.494   1.966 -0.4297 -0.3930 -0.5758
16860TIP3    H172071   4.805   5.450   1.885  0.0757  0.6108 -0.9639
16860TIP3    H272072   4.725   5.430   2.011  0.2836 -1.4195 -1.1439
16861TIP3   OH272073   6.195   3.163   1.682 -0.1554 -0.0769 -0.5211
16861TIP3    H172074   6.124   3.210   1.637 -1.2836 -1.5350 -0.3041
16861TIP3    H272075   6.211   3.086   1.628  1.7071  0.5517 -0.8894
16862TIP3   OH272076   2.141   5.632  14.086  0.2108 -0.5094  0.2220
16862TIP3    H172077   2.174   5.558  14.137 -0.0961  0.7127  2.2148
16862TIP3    H272078   2.046   5.620  14.085  0.2272 -0.6330 -0.2581
16863TIP3   OH272079   3.944   6.760  13.704  0.6852 -0.2397 -0.2261
16863TIP3    H172080   3.857   6.767  13.666  1.1815 -0.7184 -1.4761
16863TIP3    H272081   3.929   6.732  13.794 -0.4301 -0.7456 -0.5622
16864TIP3   OH272082   3.132   2.448  11.454 -0.0469  0.1596  0.3139
16864TIP3    H172083   3.176   2.533  11.461  0.5143 -0.0030 -1.0600
16864TIP3    H272084   3.163   2.399  11.530  0.6321  0.7457  0.4240
16865TIP3   OH272085   2.648   3.792   6.325 -0.4493 -0.2583 -0.5825
16865TIP3    H172086   2.581   3.822   6.387 -0.3967 -0.0114 -0.6431
16865TIP3    H272087   2.611   3.812   6.239 -0.5266 -0.6097 -0.6325
16866TIP3   OH272088   2.352   0.364  13.207  0.2059 -0.2206 -0.1221
16866TIP3    H172089   2.441   0.397  13.217 -0.2978  0.5160  2.2910
16866TIP3    H272090   2.359   0.270  13.225  0.1810  0.2027  2.2879
16867TIP3   OH272091   0.900   6.176  11.135  0.0929 -0.1688  0.1544
16867TIP3    H172092   0.952   6.210  11.063  0.1969  1.6287  1.0554
16867TIP3    H272093   0.814   6.217  11.124  0.2397  0.4723  1.2910
16868TIP3   OH272094   1.166   4.810  11.211 -0.1157 -0.1932  0.3898
16868TIP3    H172095   1.071   4.806  11.200 -0.1597 -0.2551  0.7616
16868TIP3    H272096   1.181   4.775  11.299  0.5108 -2.9906 -0.7670
16869TIP3   OH272097   5.052   2.657  13.959  0.0088 -0.1434 -0.0718
16869TIP3    H172098   5.037   2.742  13.920  0.7763  0.0173 -0.0255
16869TIP3    H272099   5.065   2.675  14.052  0.2533 -0.3015 -0.0747
16870TIP3   OH272100   2.816   4.638  13.587  0.1986  1.2950 -0.1187
16870TIP3    H172101   2.736   4.683  13.561  0.2497  2.1769  1.2037
16870TIP3    H272102   2.885   4.680  13.535 -0.1688  0.6192 -1.1666
16871TIP3   OH272103   3.581   6.808  14.540 -0.7196  0.4409  0.0813
16871TIP3    H172104   3.613   6.789  14.452  1.9828 -0.7532  1.2524
16871TIP3    H272105   3.639   6.878  14.572 -1.5546  0.7361  0.9805
16872TIP3   OH272106   2.497   5.196   5.067  0.1130 -0.2180 -0.7193
16872TIP3    H172107   2.405   5.188   5.043  0.3021  0.7192 -1.8024
16872TIP3    H272108   2.498   5.192   5.163 -1.2924  2.0344 -0.5815
16873TIP3   OH272109   5.647   3.558   0.356 -0.0735  0.3069 -0.3861
16873TIP3    H172110   5.694   3.504   0.293  0.4234  0.5325 -0.2142
16873TIP3    H272111   5.635   3.642   0.312 -0.7628  0.0879 -0.6186
16874TIP3   OH272112   4.479   4.473   2.869 -0.3977  0.5896 -0.3058
16874TIP3    H172113   4.541   4.504   2.803  0.2127  1.1128  0.5002
16874TIP3    H272114   4.483   4.378   2.865  0.8942  0.6235  0.1482
16875TIP3   OH272115   0.304   5.634   4.003 -0.1897  0.0327 -0.1391
16875TIP3    H172116   0.311   5.552   3.954 -2.5900 -0.1601 -0.2103
16875TIP3    H272117   0.262   5.609   4.085  0.0231  1.0389  0.2778
16876TIP3   OH272118   0.712   3.765  16.041  0.7518  0.7222  0.5278
16876TIP3    H172119   0.720   3.730  15.952 -0.2813  0.6476  0.4539
16876TIP3    H272120   0.791   3.819  16.053 -0.2514  2.7153 -1.3422
16877TIP3   OH272121   1.911   6.526  14.046  0.0458  0.0048  0.3868
16877TIP3    H172122   1.963   6.504  13.968  0.0345  0.4720  0.2461
16877TIP3    H272123   1.837   6.577  14.012  1.0276  1.8392  0.8932
16878TIP3   OH272124   2.110   6.215  11.659 -0.1838 -0.1161 -0.0376
16878TIP3    H172125   2.050   6.162  11.606  0.1193 -1.5858  1.0562
16878TIP3    H272126   2.192   6.212  11.611 -0.2128 -0.5074 -0.0676
16879TIP3   OH272127   2.723   0.096   1.953 -0.5169  0.0002 -0.0545
16879TIP3    H172128   2.699   0.158   1.884 -0.9692 -0.2923 -0.1615
16879TIP3    H272129   2.639   0.067   1.989 -0.3140 -0.6797 -0.1224
16880TIP3   OH272130   4.870   0.232  17.098 -0.6009 -0.6822 -0.2818
16880TIP3    H172131   4.921   0.153  17.080 -0.2045 -0.4008 -0.4033
16880TIP3    H272132   4.835   0.257  17.013  0.5227  0.1313 -0.5186
16881TIP3   OH272133   3.672   5.924   3.688  0.2120 -0.4493  0.3187
16881TIP3    H172134   3.688   5.832   3.666  1.0850 -0.5509  1.3344
16881TIP3    H272135   3.732   5.942   3.761  0.4937  1.1017 -0.2799
16882TIP3   OH272136   3.892   4.148   1.845 -0.4508  0.0795 -0.7128
16882TIP3    H172137   3.954   4.220   1.859 -1.7959  1.3969 -1.4651
16882TIP3    H272138   3.925   4.103   1.767  0.5638 -0.3076 -0.0668
16883TIP3   OH272139   6.216   5.827   5.768  1.1083  0.5065 -0.1335
16883TIP3    H172140   6.159   5.762   5.725 -0.5115  0.6367  1.7589
16883TIP3    H272141   6.254   5.779   5.842  2.2998  0.8567 -0.5199
16884TIP3   OH272142   2.699   3.665   2.611  0.2207  0.1885  0.0116
16884TIP3    H172143   2.753   3.586   2.611 -2.3706 -1.6637  1.3147
16884TIP3    H272144   2.679   3.680   2.703 -0.9418  1.2250 -0.4002
16885TIP3   OH272145   5.111   4.722   3.201  0.0415  0.1858  0.0822
16885TIP3    H172146   5.203   4.742   3.219 -0.1651  0.6849  0.6053
16885TIP3    H272147   5.098   4.750   3.111  0.6673 -0.8401 -0.3353
16886TIP3   OH272148   2.756   4.027  10.816  0.3045 -0.7481  0.2022
16886TIP3    H172149   2.662   4.034  10.831  0.3471  2.7114 -0.7129
16886TIP3    H272150   2.796   4.052  10.900  0.4431 -0.8501  0.1689
16887TIP3   OH272151   3.864   4.307  12.938  0.0727  0.1918 -0.0819
16887TIP3    H172152   3.827   4.225  12.906  1.4389 -0.2912 -0.4705
16887TIP3    H272153   3.959   4.293  12.936  0.3951  2.3138 -1.6500
16888TIP3   OH272154   5.626   0.006   5.386  0.1676  0.5393 -0.3805
16888TIP3    H172155   5.690   0.076   5.400  0.6084  0.2177 -0.7596
16888TIP3    H272156   5.542   0.051   5.380  0.5103  1.0992 -1.1880
16889TIP3   OH272157   6.174   4.748   5.286  0.1787  0.0324  0.3922
16889TIP3    H172158   6.248   4.699   5.250  0.2610  0.5206 -0.1193
16889TIP3    H272159   6.175   4.729   5.380  0.2254 -0.9157  0.2000
16890TIP3   OH272160   3.805   3.771  16.620 -0.0785  0.1684 -0.1600
16890TIP3    H172161   3.810   3.808  16.708  0.3744  0.5088 -0.3259
16890TIP3    H272162   3.896   3.762  16.592 -0.2029 -0.5900 -0.3240
16891TIP3   OH272163   1.385   5.559   2.415  0.2903 -0.7231  0.8416
16891TIP3    H172164   1.346   5.632   2.462 -1.5165 -0.9740 -0.2015
16891TIP3    H272165   1.313   5.524   2.362  1.3247 -2.7735  0.7541
16892TIP3   OH272166   4.935   1.994  15.367 -0.2452  0.2273 -0.0755
16892TIP3    H172167   4.963   1.904  15.348  1.2175  0.6463  0.0577
16892TIP3    H272168   4.981   2.048  15.304 -1.8283  0.8154 -0.7460
16893TIP3   OH272169   1.590   2.679  17.015 -0.5504  0.5782 -0.3861
16893TIP3    H172170   1.654   2.689  17.086 -1.2213  0.9123  0.1880
16893TIP3    H272171   1.556   2.768  17.001 -0.6234  0.4650 -0.9317
16894TIP3   OH272172   1.884   4.723   3.601  0.2070  0.7426 -0.1653
16894TIP3    H172173   1.844   4.807   3.621 -0.2873  0.0936  1.7197
16894TIP3    H272174   1.854   4.702   3.513  0.2996  2.4966 -0.6411
16895TIP3   OH272175   6.230   6.201  12.717 -0.3554 -0.4491 -0.1369
16895TIP3    H172176   6.263   6.221  12.630 -0.8130 -1.3335 -0.5248
16895TIP3    H272177   6.286   6.129  12.748  0.2685  0.3316  0.6002
16896TIP3   OH272178   0.638   4.513  12.382  0.2843 -0.2227 -0.0246
16896TIP3    H172179   0.712   4.561  12.420  0.3761  0.9744 -1.6763
16896TIP3    H272180   0.595   4.473  12.457  0.6538  1.8251  1.3324
16897TIP3   OH272181   1.327   2.715  14.534 -0.3299  0.0377  0.1843
16897TIP3    H172182   1.377   2.638  14.507 -1.3269  0.3031 -2.4729
16897TIP3    H272183   1.286   2.747  14.454 -1.0982  2.4986  1.5224
16898TIP3   OH272184   2.195   1.680  14.379  0.0554  0.3174 -0.7503
16898TIP3    H172185   2.142   1.757  14.398 -0.3203  0.0923 -0.8755
16898TIP3    H272186   2.285   1.712  14.375  0.2301  0.2609  2.0858
16899TIP3   OH272187   2.280   4.303   1.344 -0.6542  0.2716 -0.4465
16899TIP3    H172188   2.210   4.338   1.289 -0.6964  0.3403 -0.3485
16899TIP3    H272189   2.248   4.314   1.434  0.3536  2.1853 -0.2967
16900TIP3   OH272190   6.194   4.250  15.065 -0.5853 -0.1592 -0.4001
16900TIP3    H172191   6.171   4.170  15.112  0.5700 -0.0739  0.3398
16900TIP3    H272192   6.281   4.232  15.028  0.2016  1.1376  0.7494
16901TIP3   OH272193   3.366   4.161   4.454 -0.1548  0.6558  0.0729
16901TIP3    H172194   3.314   4.118   4.387  1.2213 -0.9421 -0.0068
16901TIP3    H272195   3.426   4.217   4.405  0.3590  0.0430 -0.0059
16902TIP3   OH272196   1.294   2.971   1.158 -0.1615 -0.4017  0.4613
16902TIP3    H172197   1.252   2.973   1.244  0.3664 -2.1072  0.7750
16902TIP3    H272198   1.385   2.945   1.176  1.0027  2.9418 -0.2449
16903TIP3   OH272199   0.629   4.229  14.600  0.2843 -0.1166  0.3375
16903TIP3    H172200   0.545   4.271  14.587  0.9330  0.1941 -3.2458
16903TIP3    H272201   0.689   4.300  14.624  0.0517  0.0317  0.4738
16904TIP3   OH272202   3.321   3.480  14.398  0.3395 -0.0948 -0.4513
16904TIP3    H172203   3.384   3.545  14.430 -0.2961 -0.5331  1.7650
16904TIP3    H272204   3.242   3.531  14.379  0.2234 -0.0371  0.1637
16905TIP3   OH272205   2.777   4.975   4.993 -0.5316 -0.0192  0.2554
16905TIP3    H172206   2.781   5.030   5.071 -3.3833  2.6868 -1.3977
16905TIP3    H272207   2.831   5.020   4.929  0.2281 -1.2080  0.0491
16906TIP3   OH272208   5.993   6.597   4.536  0.3737 -0.4149  0.3191
16906TIP3    H172209   6.026   6.525   4.590 -0.0675 -0.5626  0.3890
16906TIP3    H272210   5.950   6.656   4.599  1.7073  0.4813  0.4298
16907TIP3   OH272211   4.204   4.063  14.159 -0.0209 -0.0315 -0.3049
16907TIP3    H172212   4.132   4.122  14.180 -0.7081 -1.0559  0.2621
16907TIP3    H272213   4.281   4.119  14.157 -0.6140  0.8291  0.5455
16908TIP3   OH272214   2.016   2.076  11.181 -0.0292 -0.3727  0.0153
16908TIP3    H172215   1.949   2.086  11.113 -1.3161  0.1265  1.3216
16908TIP3    H272216   2.089   2.129  11.151 -0.7783  0.2372 -0.7592
16909TIP3   OH272217   2.404   5.975   4.512 -0.1174 -0.2679 -0.1840
16909TIP3    H172218   2.496   5.949   4.516  0.3589  1.0058 -2.1597
16909TIP3    H272219   2.400   6.058   4.560  0.1148  0.5251 -1.5007
16910TIP3   OH272220   6.805   4.048  11.847  0.9287 -0.0307 -0.3657
16910TIP3    H172221   6.737   4.067  11.782  0.8178 -0.0360 -0.2519
16910TIP3    H272222   6.826   3.956  11.834 -0.9518 -0.7476  1.3329
16911TIP3   OH272223   2.964   2.349   5.277  0.0296  0.6244  0.2606
16911TIP3    H172224   2.896   2.391   5.330 -0.4008  1.7032 -1.1349
16911TIP3    H272225   2.980   2.410   5.205  1.2976 -0.3861 -0.3318
16912TIP3   OH272226   4.767   6.546   1.935 -0.3236 -0.8500 -0.0879
16912TIP3    H172227   4.686   6.570   1.980  0.4806  0.4180  0.6997
16912TIP3    H272228   4.738   6.493   1.861 -1.8138 -1.0855  0.6540
16913TIP3   OH272229   0.049   0.738  17.003  1.0890  0.1727  0.0068
16913TIP3    H172230  -0.003   0.813  17.032  1.5467 -0.1616  1.7435
16913TIP3    H272231  -0.016   0.675  16.972  0.6723  1.0828 -1.0132
16914TIP3   OH272232   1.411   5.169  13.494 -0.0941 -0.5958 -0.6783
16914TIP3    H172233   1.400   5.132  13.582  1.1669  1.1377  0.2465
16914TIP3    H272234   1.503   5.157  13.474  0.1395  1.1853 -0.7424
16915TIP3   OH272235   6.455   0.054   0.810  0.1304 -0.5618  0.1758
16915TIP3    H172236   6.525   0.115   0.788  1.3963 -1.9914  0.2342
16915TIP3    H272237   6.460  -0.015   0.744 -1.2010 -0.7022  0.2023
16916TIP3   OH272238   1.615   5.218  11.865 -0.2863 -0.0150  0.5454
16916TIP3    H172239   1.695   5.197  11.819 -0.7506  0.2822 -0.4069
16916TIP3    H272240   1.629   5.307  11.898 -0.6564  0.4783 -0.5988
16917TIP3   OH272241   3.954   1.284  14.326 -0.5827  0.0480  0.0693
16917TIP3    H172242   3.899   1.336  14.384 -0.1415 -1.2691  1.7112
16917TIP3    H272243   3.930   1.193  14.345  3.7305 -0.7377  2.5942
16918TIP3   OH272244   2.894   0.419  13.074  0.3878  0.4709 -0.5643
16918TIP3    H172245   2.907   0.511  13.051 -2.2837  0.8920 -0.4987
16918TIP3    H272246   2.934   0.370  13.002 -1.5664  1.7234 -2.5718
16919TIP3   OH272247   2.658   1.175  14.068 -0.1218  0.4706 -0.1484
16919TIP3    H172248   2.742   1.149  14.107 -1.2771  1.0709  2.9132
16919TIP3    H272249   2.666   1.269  14.054 -0.8727  0.8437  1.7921
16920TIP3   OH272250   5.557   6.679  17.025 -0.0554  0.2485 -0.2009
16920TIP3    H172251   5.464   6.674  17.048 -0.0986 -0.6371 -0.5260
16920TIP3    H272252   5.601   6.699  17.108 -0.3569 -1.3982  0.3975
16921TIP3   OH272253   3.368   0.195  14.267  0.2616  0.0534  0.3926
16921TIP3    H172254   3.362   0.100  14.278 -0.3137  0.0578  0.1614
16921TIP3    H272255   3.433   0.207  14.197 -1.1173 -0.2687 -0.9793
16922TIP3   OH272256   5.884   0.123   4.502  0.6452  0.7354  0.6988
16922TIP3    H172257   5.808   0.148   4.555 -1.3379 -1.1264 -1.1708
16922TIP3    H272258   5.919   0.045   4.544 -0.6567 -0.4786 -0.4321
16923TIP3   OH272259   5.966   5.357  15.330  0.2907 -0.0360  0.2704
16923TIP3    H172260   5.878   5.359  15.367  1.2642  2.6617  2.5243
16923TIP3    H272261   6.015   5.298  15.388  0.3110 -0.5788 -0.2856
16924TIP3   OH272262   0.297   4.474  12.391 -0.2678 -0.3234  0.4581
16924TIP3    H172263   0.223   4.498  12.335 -0.5582 -0.9523  0.5627
16924TIP3    H272264   0.275   4.511  12.477 -0.7955 -1.0727  0.6617
16925TIP3   OH272265   3.984   5.005  15.943 -0.3825 -0.5045 -0.0348
16925TIP3    H172266   4.065   4.956  15.958 -1.5295 -1.7360  2.4191
16925TIP3    H272267   3.999   5.089  15.986  0.5322  0.2559 -1.8071
16926TIP3   OH272268   6.733   4.946  15.662 -0.6773 -0.6813  0.4264
16926TIP3    H172269   6.732   5.034  15.624  0.9001 -1.0810 -0.5839
16926TIP3    H272270   6.666   4.898  15.613 -0.1775 -0.5767 -0.3830
16927TIP3   OH272271   2.989   5.762   2.349 -0.0334 -0.6270  0.8805
16927TIP3    H172272   3.040   5.799   2.421  0.4174  2.5256 -0.9645
16927TIP3    H272273   2.902   5.800   2.359  0.6333  1.6271 -1.4764
16928TIP3   OH272274   5.403   4.606  15.655  0.0709  0.4795 -0.0712
16928TIP3    H172275   5.411   4.654  15.737  2.1146 -0.5438  0.3676
16928TIP3    H272276   5.337   4.539  15.673  2.3289 -1.3840  1.6166
16929TIP3   OH272277   3.436   2.656   1.200 -0.2313 -0.2347  0.7239
16929TIP3    H172278   3.434   2.613   1.286  1.3831 -2.2936 -0.2099
16929TIP3    H272279   3.387   2.598   1.143 -0.6424  0.7415  0.0724
16930TIP3   OH272280   5.790   3.060   3.183 -0.6967 -0.3458 -0.8945
16930TIP3    H172281   5.827   2.984   3.138  0.9321  0.1245 -0.3576
16930TIP3    H272282   5.824   3.135   3.136 -0.4289  0.1099  0.0208
16931TIP3   OH272283   0.646   0.612  10.863  0.6566 -0.2959  0.1488
16931TIP3    H172284   0.696   0.624  10.783 -0.5772  0.4580 -0.5304
16931TIP3    H272285   0.590   0.537  10.845 -0.0557  0.2494  0.0753
16932TIP3   OH272286   4.502   1.733  13.911 -0.3276  0.4759 -0.6922
16932TIP3    H172287   4.470   1.645  13.933  2.2080 -0.0939  0.8805
16932TIP3    H272288   4.585   1.718  13.867  1.0284  2.1244  1.2102
16933TIP3   OH272289   0.101   4.262  14.999 -0.0933  0.5849 -0.2473
16933TIP3    H172290   0.017   4.303  14.978 -0.2231 -0.2917 -1.5072
16933TIP3    H272291   0.126   4.217  14.918  1.7156  1.0559  0.0371
16934TIP3   OH272292   5.121   4.390  13.078 -0.2754  0.4499  0.2118
16934TIP3    H172293   5.039   4.342  13.082 -0.0805 -0.0845 -1.5542
16934TIP3    H272294   5.187   4.329  13.109 -0.3646  0.4035  0.3096
16935TIP3   OH272295   5.697   5.507   5.817  0.1068  0.0581 -0.6946
16935TIP3    H172296   5.709   5.529   5.724  0.3845 -0.2190 -0.7240
16935TIP3    H272297   5.756   5.434   5.832 -0.8466 -0.7030 -0.5980
16936TIP3   OH272298   6.171   6.792  16.120 -0.8750 -0.0038 -0.3877
16936TIP3    H172299   6.158   6.818  16.028  1.4842  0.0696 -0.7112
16936TIP3    H272300   6.158   6.697  16.119  1.7945 -0.3956 -1.3253
16937TIP3   OH272301   6.470   4.896  12.340 -0.3704  0.6946  0.1851
16937TIP3    H172302   6.546   4.954  12.341  0.2678 -0.0679  3.2284
16937TIP3    H272303   6.492   4.826  12.278  1.1222  0.8422  0.5524
16938TIP3   OH272304   0.947   3.851  16.109  0.2688  0.3279  0.4138
16938TIP3    H172305   0.963   3.896  16.192  1.5820 -0.6066  0.6785
16938TIP3    H272306   0.978   3.913  16.042  1.3907  0.1150  0.7390
16939TIP3   OH272307   5.630   0.519  12.240  0.6135 -0.1574 -0.4091
16939TIP3    H172308   5.601   0.504  12.150  0.9283 -0.0105 -0.5382
16939TIP3    H272309   5.707   0.463  12.249 -0.5191 -1.6156  0.3861
16940TIP3   OH272310   5.341   6.097   4.406 -0.7301 -0.2104 -0.2787
16940TIP3    H172311   5.323   6.191   4.408 -0.5931 -0.1953  0.5841
16940TIP3    H272312   5.258   6.057   4.379 -1.4648  0.0056  1.6052
16941TIP3   OH272313   2.513   0.186  16.662 -0.2109 -0.6314 -0.1986
16941TIP3    H172314   2.498   0.097  16.693  0.3148 -0.5711  0.2279
16941TIP3    H272315   2.558   0.174  16.578  1.2664 -0.7504  0.6002
16942TIP3   OH272316   3.570   5.827  13.861 -0.1577 -0.2879 -0.1169
16942TIP3    H172317   3.493   5.883  13.867 -0.6751 -0.8440 -1.5579
16942TIP3    H272318   3.622   5.863  13.789  0.8746  0.0068  0.7551
16943TIP3   OH272319   6.192   4.421   1.859 -0.1764  0.5457  0.8420
16943TIP3    H172320   6.115   4.419   1.801  1.1625 -0.1964 -0.9916
16943TIP3    H272321   6.156   4.414   1.947 -2.2584  1.0406  0.0696
16944TIP3   OH272322   2.915   0.480   2.336  0.0960  0.1469  0.4129
16944TIP3    H172323   2.946   0.390   2.343 -0.6138 -0.0465  1.0876
16944TIP3    H272324   2.845   0.476   2.270 -1.7709 -0.2978  2.3650
16945TIP3   OH272325   1.024   5.502  15.286  0.0022 -0.2934 -0.0547
16945TIP3    H172326   0.987   5.418  15.258  0.4822 -0.0737 -1.3742
16945TIP3    H272327   1.008   5.504  15.380 -0.4467 -1.6527 -0.0801
16946TIP3   OH272328   2.716   0.278  10.977  0.2462 -0.2746  0.8128
16946TIP3    H172329   2.701   0.196  10.932 -2.9902  2.1876 -2.8791
16946TIP3    H272330   2.794   0.315  10.935  0.2895 -0.3518  0.8253
16947TIP3   OH272331   4.332   0.950  12.934 -0.1327  0.6675 -0.0873
16947TIP3    H172332   4.289   0.981  12.854  1.0776  1.8140 -0.3010
16947TIP3    H272333   4.332   1.025  12.993 -1.1982 -0.2343  1.0932
16948TIP3   OH272334   2.672   2.273   5.659 -0.2181  0.4172 -0.8330
16948TIP3    H172335   2.583   2.245   5.680 -0.2114 -0.2499 -1.6637
16948TIP3    H272336   2.725   2.242   5.732 -0.8815  2.1270  0.4069
16949TIP3   OH272337   3.462   6.800   1.674 -0.2852 -0.7537  0.1323
16949TIP3    H172338   3.393   6.778   1.736 -1.3858  0.4068 -0.6402
16949TIP3    H272339   3.417   6.849   1.605  1.5491  1.2637  0.3289
16950TIP3   OH272340   2.010   5.129   2.512 -0.0614  1.4032  0.0013
16950TIP3    H172341   2.016   5.153   2.419  1.4438  0.9341 -0.0304
16950TIP3    H272342   1.936   5.181   2.545 -3.0176 -1.1547 -2.2867
16951TIP3   OH272343   5.995   0.818  15.970  0.0858 -0.6086 -0.2445
16951TIP3    H172344   6.001   0.833  15.875  0.6826  0.1906 -0.0873
16951TIP3    H272345   6.017   0.726  15.980  1.5093 -0.3455 -0.7599
16952TIP3   OH272346   0.986   6.641  14.737  0.3298  0.4432  0.1262
16952TIP3    H172347   1.003   6.549  14.716  0.3925  0.6429 -0.7309
16952TIP3    H272348   0.986   6.685  14.652 -0.4763  1.1094  0.4679
16953TIP3   OH272349   0.101   1.348   2.462 -0.4906 -0.0421  0.1237
16953TIP3    H172350   0.190   1.337   2.430 -0.2047  0.1842  0.8309
16953TIP3    H272351   0.109   1.348   2.557 -1.1657  0.5605  0.1916
16954TIP3   OH272352   6.277   3.115   5.061 -0.3458  0.2203 -0.0743
16954TIP3    H172353   6.340   3.158   5.004  0.1836  0.2266  0.5120
16954TIP3    H272354   6.216   3.184   5.086  1.4973  1.0776  2.2750
16955TIP3   OH272355   6.183   2.818   0.123  0.0822  0.2726 -0.2191
16955TIP3    H172356   6.254   2.812   0.060 -1.3176  0.5247 -1.8466
16955TIP3    H272357   6.104   2.797   0.073 -1.0895  0.7331  1.3796
16956TIP3   OH272358   2.877   2.249   6.268 -0.0315  0.2167  0.3919
16956TIP3    H172359   2.870   2.201   6.185 -1.7743  0.1643  0.5365
16956TIP3    H272360   2.945   2.203   6.316  0.3904 -0.2939 -0.6622
16957TIP3   OH272361   1.065   1.771   0.008 -0.3795 -0.0465 -0.1732
16957TIP3    H172362   1.095   1.742  -0.078 -0.6425  1.9217 -0.9431
16957TIP3    H272363   1.135   1.828   0.040 -0.3937 -0.5686  0.8232
16958TIP3   OH272364   4.750   4.544  12.970  0.3398 -0.3653  0.1411
16958TIP3    H172365   4.765   4.449  12.965  0.4246 -0.3621  0.3330
16958TIP3    H272366   4.828   4.578  13.015  0.2573 -0.2179  0.1732
16959TIP3   OH272367   3.222   5.243  13.273  0.3406 -0.4952 -0.3039
16959TIP3    H172368   3.295   5.288  13.315  0.3934 -0.6280 -0.2525
16959TIP3    H272369   3.215   5.283  13.186 -0.4082  0.4751  0.1918
16960TIP3   OH272370   2.590   3.872  12.830  0.2744 -0.1361 -0.3062
16960TIP3    H172371   2.615   3.928  12.756 -0.1755  0.4855  0.0062
16960TIP3    H272372   2.610   3.925  12.907 -0.4094 -0.2959 -0.0173
16961TIP3   OH272373   2.508   2.217   1.927 -0.0025 -0.0180  0.3526
16961TIP3    H172374   2.555   2.231   2.009  0.3495  0.3721  0.0817
16961TIP3    H272375   2.512   2.301   1.882 -0.0585 -0.2789 -0.1417
16962TIP3   OH272376   3.981   4.288   4.920 -0.3067  0.5795 -0.3595
16962TIP3    H172377   3.966   4.365   4.865  2.5690  1.8055  0.4288
16962TIP3    H272378   4.018   4.223   4.861  0.8041  1.1624 -0.3305
16963TIP3   OH272379   4.544   5.747   3.334  0.5134  0.0780 -0.0972
16963TIP3    H172380   4.517   5.754   3.426 -0.1080  0.8023 -0.3339
16963TIP3    H272381   4.597   5.824   3.318  0.1673  0.2380 -0.4962
16964TIP3   OH272382   6.464   3.087   6.228 -0.1982 -0.4394  0.3071
16964TIP3    H172383   6.419   3.171   6.238  1.5052  0.5403 -0.0559
16964TIP3    H272384   6.557   3.108   6.242  0.1626 -2.4018  0.9782
16965TIP3   OH272385   2.204   3.732  14.711  0.1851  0.4325 -0.1651
16965TIP3    H172386   2.246   3.648  14.692  0.1932  0.4464 -0.2094
16965TIP3    H272387   2.224   3.786  14.635 -1.8614 -0.3078 -1.2961
16966TIP3   OH272388   0.933   6.570  11.013 -0.2090  0.0432 -0.0749
16966TIP3    H172389   1.024   6.555  11.040  0.2559 -1.2090 -2.1599
16966TIP3    H272390   0.939   6.640  10.949 -0.8799  0.8155  0.7118
16967TIP3   OH272391   1.365   4.994  15.916 -0.6215  0.0451  0.2733
16967TIP3    H172392   1.432   5.010  15.983 -1.2265  0.4108  0.8063
16967TIP3    H272393   1.325   5.080  15.903 -1.4403 -0.3098  0.4588
16968TIP3   OH272394   2.342   0.655   4.204  0.1086  0.5946  0.1361
16968TIP3    H172395   2.436   0.640   4.199 -0.0479 -0.2005 -0.4990
16968TIP3    H272396   2.303   0.582   4.156 -0.9145 -0.2245  2.1364
16969TIP3   OH272397   1.751   2.209  16.920  0.1315 -0.0465  0.5198
16969TIP3    H172398   1.730   2.293  16.959 -3.6496 -0.6487 -0.0159
16969TIP3    H272399   1.785   2.230  16.833  1.0597  0.9593  1.1111
16970TIP3   OH272400   3.866   1.980   4.184  0.0783 -0.0234 -0.7029
16970TIP3    H172401   3.827   1.894   4.167 -1.2862 -0.5153  3.9891
16970TIP3    H272402   3.955   1.959   4.216  0.5769  0.4660 -1.7673
16971TIP3   OH272403   3.583   0.910  12.571 -0.1411 -0.0343  0.1696
16971TIP3    H172404   3.618   0.993  12.605  1.8074 -0.6730 -0.2193
16971TIP3    H272405   3.620   0.843  12.628  1.9642 -0.9867 -2.2605
16972TIP3   OH272406   2.000   6.459   5.823  0.5476 -0.0911 -0.2086
16972TIP3    H172407   1.964   6.476   5.736  0.6044  1.9843  0.1564
16972TIP3    H272408   2.094   6.454   5.810  0.3520 -3.1539 -0.7808
16973TIP3   OH272409   6.624   1.247   3.209  0.0887 -0.0625  0.6179
16973TIP3    H172410   6.566   1.321   3.187  1.6171  0.7287 -0.8553
16973TIP3    H272411   6.592   1.217   3.294 -0.2259  2.6515  1.5334
16974TIP3   OH272412   2.047   1.707   2.257  0.2350 -0.4421  0.0406
16974TIP3    H172413   2.134   1.736   2.283  0.1784 -0.5172  0.3170
16974TIP3    H272414   2.001   1.691   2.340  0.5569 -2.1977 -0.1096
16975TIP3   OH272415   0.315   4.858   5.731 -0.5240 -0.2557 -0.3470
16975TIP3    H172416   0.407   4.839   5.750 -0.2665 -0.6610 -1.9186
16975TIP3    H272417   0.318   4.905   5.648 -1.7803 -0.7031 -0.6446
16976TIP3   OH272418   2.576   2.610  14.418  0.2156  0.1153 -0.0429
16976TIP3    H172419   2.607   2.700  14.428  0.6716 -0.0512  0.0457
16976TIP3    H272420   2.557   2.601  14.325  0.3839  0.2278 -0.0873
16977TIP3   OH272421   3.780   0.376   3.053  0.3580 -0.4419  0.3009
16977TIP3    H172422   3.753   0.326   3.131 -0.3638 -2.0556 -0.9474
16977TIP3    H272423   3.704   0.371   2.994  0.3923  1.8850 -0.0009
16978TIP3   OH272424   4.638   4.197   1.899  0.0130 -0.2051  0.3050
16978TIP3    H172425   4.566   4.182   1.838  0.9633  0.8875 -1.1018
16978TIP3    H272426   4.669   4.286   1.879  1.4978 -0.5139  1.1515
16979TIP3   OH272427   0.327   1.831   4.331 -0.5869  0.7630 -0.0344
16979TIP3    H172428   0.246   1.826   4.282 -0.4360 -0.5578 -0.1637
16979TIP3    H272429   0.312   1.775   4.408  1.3088 -2.1717 -1.6965
16980TIP3   OH272430   6.120   5.459  15.727  0.3390  0.5639 -0.3067
16980TIP3    H172431   6.066   5.480  15.803  1.2663 -1.4168  0.9268
16980TIP3    H272432   6.198   5.515  15.736  0.3954  0.4135  0.1435
16981TIP3   OH272433   2.243   2.435  13.424  0.5417 -0.1097 -0.0720
16981TIP3    H172434   2.312   2.440  13.490  0.4236 -0.1533  0.0556
16981TIP3    H272435   2.174   2.383  13.466  0.5347 -0.2802 -0.2909
16982TIP3   OH272436   4.175   5.705  15.070  0.1487 -0.4789 -0.4611
16982TIP3    H172437   4.079   5.701  15.073  0.1420 -0.0870  0.0520
16982TIP3    H272438   4.203   5.659  15.150  0.4350 -1.8947 -1.3559
16983TIP3   OH272439   5.244   6.656   4.730  0.1091  0.1688  0.1475
16983TIP3    H172440   5.178   6.720   4.758 -0.4774 -0.2892 -0.1798
16983TIP3    H272441   5.281   6.622   4.811  0.6393  1.1522  0.3213
16984TIP3   OH272442   5.501   6.465   2.271  0.2566 -0.0509  0.4851
16984TIP3    H172443   5.448   6.477   2.193 -1.3276 -1.6487  1.2906
16984TIP3    H272444   5.447   6.497   2.343  0.7812 -0.7389  1.1995
16985TIP3   OH272445   0.040   3.525   4.755 -0.0089  0.3330 -0.1381
16985TIP3    H172446   0.072   3.437   4.733 -0.1267  0.3072 -0.2038
16985TIP3    H272447   0.079   3.543   4.841 -1.7959 -0.7096  0.9315
16986TIP3   OH272448   3.611   6.017   5.176 -0.2856 -0.1452  0.3222
16986TIP3    H172449   3.545   5.950   5.194  0.9547 -1.0749  1.5620
16986TIP3    H272450   3.642   6.044   5.262  1.2196 -0.0183 -0.2336
16987TIP3   OH272451   0.913   4.846  14.068  0.3062 -0.2361  0.2778
16987TIP3    H172452   0.990   4.800  14.100  0.2085 -0.9367 -0.4759
16987TIP3    H272453   0.936   4.939  14.073  1.9287 -0.4984 -1.7579
16988TIP3   OH272454   5.631   6.629  14.615  0.1136  0.9874  0.2211
16988TIP3    H172455   5.681   6.548  14.627  0.3774  1.0638 -0.3787
16988TIP3    H272456   5.693   6.699  14.635 -0.3592  1.0254  1.6155
16989TIP3   OH272457   4.617   1.815  15.418  0.2028  0.4433 -0.0126
16989TIP3    H172458   4.558   1.744  15.392 -2.8181  2.2491  1.7496
16989TIP3    H272459   4.694   1.770  15.454 -1.1473 -1.9331  0.0074
16990TIP3   OH272460   5.055   0.490  15.450  0.1090  0.1402  0.9797
16990TIP3    H172461   5.102   0.529  15.524 -0.6219  0.6904  1.1515
16990TIP3    H272462   5.073   0.549  15.376 -0.8575  0.7218  1.2006
16991TIP3   OH272463   0.953   2.078  12.818 -0.3513 -0.2244 -0.5626
16991TIP3    H172464   1.002   2.156  12.793 -0.7460 -0.6708 -2.8103
16991TIP3    H272465   0.895   2.062  12.744 -0.9385 -2.1156  0.2944
16992TIP3   OH272466   2.898   6.695   2.436  0.1721  0.5920  0.0628
16992TIP3    H172467   2.882   6.773   2.489  0.8649  0.7551  0.0384
16992TIP3    H272468   2.896   6.726   2.346 -2.2945  0.0841 -0.0829
16993TIP3   OH272469   5.417   4.054  12.651  0.1048  0.4166  0.2862
16993TIP3    H172470   5.399   3.996  12.577  0.7445  0.9159 -0.2693
16993TIP3    H272471   5.485   4.008  12.701 -0.1127  0.2178  0.3985
16994TIP3   OH272472   5.704   2.571  15.018 -0.0502  0.3978 -0.1147
16994TIP3    H172473   5.759   2.530  15.084 -0.2205  1.0628  0.4508
16994TIP3    H272474   5.764   2.592  14.946  0.2176  0.0779  0.0130
16995TIP3   OH272475   6.639   2.915  13.073  0.0308  0.7547 -0.3420
16995TIP3    H172476   6.543   2.913  13.078  0.1151 -1.1518  0.9836
16995TIP3    H272477   6.657   2.970  12.996 -2.1725 -1.1480 -2.3138
16996TIP3   OH272478   4.419   4.896  14.591 -0.0161 -0.4033 -0.2828
16996TIP3    H172479   4.451   4.972  14.543 -2.9857  0.2472 -1.3526
16996TIP3    H272480   4.436   4.916  14.683 -0.7749  1.5645 -0.5586
16997TIP3   OH272481   6.619   1.228  10.837  0.4614  0.1979  0.4210
16997TIP3    H172482   6.651   1.149  10.793 -0.6381 -0.6587  1.1113
16997TIP3    H272483   6.546   1.197  10.890  0.6091  1.5316  1.4237
16998TIP3   OH272484   5.769   1.671   5.530  0.5222 -0.6231  0.6001
16998TIP3    H172485   5.837   1.726   5.569 -0.3720  0.0666  1.1881
16998TIP3    H272486   5.749   1.607   5.598 -0.4882  0.1051  0.9964
16999TIP3   OH272487   4.336   2.617   5.929 -0.2390  0.1017  0.2300
16999TIP3    H172488   4.291   2.533   5.919 -2.2878  1.1863  0.1879
16999TIP3    H272489   4.413   2.596   5.983 -0.4882 -1.8650 -0.1419
17000TIP3   OH272490   4.884   5.274  12.711  0.0374 -0.0331 -0.1917
17000TIP3    H172491   4.936   5.195  12.697  0.2522  0.2667 -1.1100
17000TIP3    H272492   4.936   5.344  12.671 -0.0850  0.5971  0.7294
17001TIP3   OH272493   0.247   6.515   3.380 -0.3104 -0.1698  0.2566
17001TIP3    H172494   0.215   6.599   3.347 -0.5208 -0.8264 -1.2542
17001TIP3    H272495   0.183   6.489   3.446 -1.0709  0.1377 -0.3510
17002TIP3   OH272496   1.767   5.894  17.003 -0.7582 -0.7402  0.2607
17002TIP3    H172497   1.725   5.831  17.061 -1.5110 -0.3075  0.1982
17002TIP3    H272498   1.762   5.978  17.050 -1.7188 -0.3128 -0.5860
17003TIP3   OH272499   3.758   1.427  12.310  0.3044 -0.9498  0.5277
17003TIP3    H172500   3.673   1.388  12.329  0.9017 -2.1995  0.6710
17003TIP3    H272501   3.789   1.460  12.394 -1.6014  2.7444 -0.1149
17004TIP3   OH272502   6.742   5.208  15.604 -0.3468  0.3688 -0.3361
17004TIP3    H172503   6.828   5.190  15.565 -0.2621 -0.0540  0.0383
17004TIP3    H272504   6.761   5.268  15.675 -0.0814 -1.2831  1.0346
17005TIP3   OH272505   4.605   4.061  13.118 -0.2398  0.3155  0.1793
17005TIP3    H172506   4.564   4.029  13.037  1.8813  0.3835 -0.9414
17005TIP3    H272507   4.674   3.997  13.138  1.4743  2.0891  0.0579
17006TIP3   OH272508   5.982   1.615   3.989 -0.7175  0.1721 -0.0480
17006TIP3    H172509   6.053   1.680   3.987 -1.3314  0.8837  1.1174
17006TIP3    H272510   6.028   1.531   3.997  0.0020  0.6371  0.8839
17007TIP3   OH272511   3.888   0.591  11.301 -0.2812 -0.0148 -0.2321
17007TIP3    H172512   3.914   0.594  11.209 -0.8898  0.3797 -0.3858
17007TIP3    H272513   3.872   0.498  11.317  1.8210 -0.3760  0.0352
17008TIP3   OH272514   1.041   4.376  16.011 -0.3425 -0.1009 -0.0277
17008TIP3    H172515   1.058   4.429  15.932  0.3458  1.6507  1.2727
17008TIP3    H272516   0.958   4.411  16.044  0.0983  0.1316  0.8217
17009TIP3   OH272517   3.039   3.291   0.462 -0.6465 -0.7659 -0.1770
17009TIP3    H172518   3.104   3.253   0.520  1.0200 -0.1650 -1.6080
17009TIP3    H272519   3.035   3.232   0.387  0.6704  0.8950 -1.5927
17010TIP3   OH272520   2.906   0.654   4.715 -0.0859 -0.0130  0.0638
17010TIP3    H172521   2.825   0.668   4.664  0.7580 -3.2991 -2.3771
17010TIP3    H272522   2.953   0.587   4.666  3.3867  0.6413  2.3614
17011TIP3   OH272523   2.320   6.795  14.543  0.1604  0.3759 -0.4667
17011TIP3    H172524   2.382   6.848  14.594  0.2179  0.8540 -1.0277
17011TIP3    H272525   2.330   6.707  14.578  0.7652  0.5533 -0.1793
17012TIP3   OH272526   6.501   4.893   1.866  0.3249 -0.1100  0.2140
17012TIP3    H172527   6.448   4.817   1.893  0.0122 -0.1050 -0.3757
17012TIP3    H272528   6.580   4.854   1.828 -0.1830 -0.1546 -0.7968
17013TIP3   OH272529   6.208   4.343  11.379  0.2824  0.3256 -0.4686
17013TIP3    H172530   6.246   4.310  11.297 -1.2349  0.5253 -1.2804
17013TIP3    H272531   6.126   4.294  11.388 -0.2385  1.3135  0.1964
17014TIP3   OH272532   0.274   2.593  11.433 -0.3429  0.1781 -0.2351
17014TIP3    H172533   0.338   2.644  11.384  1.4035  0.1312  1.9412
17014TIP3    H272534   0.223   2.658  11.482  0.7770 -0.0104  1.2235
17015TIP3   OH272535   5.380   3.818   1.345 -0.1859 -0.0906  0.1096
17015TIP3    H172536   5.286   3.828   1.330 -0.0830 -0.1961 -0.6395
17015TIP3    H272537   5.418   3.813   1.257  0.3842 -1.3092  0.4227
17016TIP3   OH272538   1.707   6.428  13.778 -0.3541 -0.6943  0.0174
17016TIP3    H172539   1.657   6.377  13.714 -0.7055 -1.5595  0.9625
17016TIP3    H272540   1.705   6.518  13.745  0.7349 -1.3764 -1.9579
17017TIP3   OH272541   5.039   0.048  12.889  0.5415  0.4133  0.3537
17017TIP3    H172542   5.029   0.139  12.861  2.0348  0.5204  0.1414
17017TIP3    H272543   4.953   0.009  12.873 -0.1776  1.8258  0.6355
17018TIP3   OH272544   2.433   0.484   5.827 -0.2491 -0.1023  0.1094
17018TIP3    H172545   2.419   0.432   5.906  0.2649 -0.9216 -0.3236
17018TIP3    H272546   2.483   0.560   5.856  0.1694 -0.5343  0.5338
17019TIP3   OH272547   3.078   5.852  17.107  0.7582  0.3986  0.1027
17019TIP3    H172548   3.087   5.925  17.046  0.9590  0.1361 -0.1855
17019TIP3    H272549   2.999   5.872  17.157  0.0552  0.1610 -0.8844
17020TIP3   OH272550   4.378   0.587  12.495 -0.1992 -0.2889  0.4072
17020TIP3    H172551   4.397   0.648  12.566  1.0083 -1.0144  0.7335
17020TIP3    H272552   4.292   0.612  12.463 -0.5199  0.3879  1.7765
17021TIP3   OH272553   6.315   6.078  17.276 -0.1720 -0.1678  0.4727
17021TIP3    H172554   6.304   6.153  17.335 -1.1642 -0.3259  0.4914
17021TIP3    H272555   6.409   6.060  17.278  0.2907  1.9449 -0.5744
17022TIP3   OH272556   1.389   5.345   4.066 -0.2988 -0.2969 -0.0338
17022TIP3    H172557   1.305   5.389   4.056  0.0090  0.2512 -0.2631
17022TIP3    H272558   1.437   5.401   4.127  1.2349  1.3710 -2.6752
17023TIP3   OH272559   2.854   5.521   0.708 -0.4879 -0.3765  0.1812
17023TIP3    H172560   2.778   5.572   0.682  0.1095  0.2995 -0.2613
17023TIP3    H272561   2.928   5.564   0.666  0.0500 -1.5210 -0.0862
17024TIP3   OH272562   3.731   0.398  16.690 -0.6080 -0.4484 -0.1773
17024TIP3    H172563   3.710   0.330  16.626 -1.4084 -0.1302 -0.2675
17024TIP3    H272564   3.800   0.361  16.744  0.0320 -0.7401 -1.1987
17025TIP3   OH272565   0.965   1.207  14.458  0.8521  0.7154 -0.3670
17025TIP3    H172566   0.978   1.153  14.536  0.0654 -1.5453 -1.7409
17025TIP3    H272567   0.898   1.270  14.483  1.5361  0.8332  1.1763
17026TIP3   OH272568   1.081   0.926  12.368 -0.1000  0.0622  0.1449
17026TIP3    H172569   1.059   0.984  12.441 -0.1596 -0.3447  0.4457
17026TIP3    H272570   1.174   0.942  12.352 -0.3040  0.8562 -0.3149
17027TIP3   OH272571   4.963   4.454  11.560  0.5390  0.2832  0.3018
17027TIP3    H172572   4.968   4.359  11.555 -0.7620  0.2580 -1.1331
17027TIP3    H272573   5.054   4.484  11.566  0.9261 -1.0622  1.1728
17028TIP3   OH272574   0.204   0.929   0.179  0.0761  0.1871 -0.0332
17028TIP3    H172575   0.209   0.897   0.089  0.6813  0.4053 -0.0808
17028TIP3    H272576   0.287   0.903   0.219  1.0113  2.5455 -0.3682
17029TIP3   OH272577   5.707   4.906  13.194  0.0460 -0.3230 -0.6436
17029TIP3    H172578   5.623   4.929  13.155 -0.7079  0.4317  1.3626
17029TIP3    H272579   5.753   4.989  13.202 -0.6250 -0.1550  1.8957
17030TIP3   OH272580   2.404   4.107  12.971  0.0587 -0.2422 -0.1885
17030TIP3    H172581   2.406   4.028  13.025 -0.6217  0.0495  0.2815
17030TIP3    H272582   2.495   4.135  12.965  0.1352 -0.2003  0.9521
17031TIP3   OH272583   2.274   5.306  16.655  0.4778  0.7335  0.0528
17031TIP3    H172584   2.255   5.371  16.723 -0.3288 -0.9728  1.5104
17031TIP3    H272585   2.189   5.290  16.614  0.6820  0.6360 -0.3305
17032TIP3   OH272586   2.476   4.509   1.301  0.6406 -0.4331  0.3111
17032TIP3    H172587   2.398   4.455   1.310  0.4782 -0.1151  0.8346
17032TIP3    H272588   2.549   4.448   1.309  0.4448 -0.8416 -0.8861
17033TIP3   OH272589   0.782   3.332   3.643  0.1771  0.6255  0.9845
17033TIP3    H172590   0.793   3.243   3.677  1.8892  0.7064  0.6944
17033TIP3    H272591   0.824   3.388   3.708  1.5648  0.9614 -0.1735
17034TIP3   OH272592   5.659   5.306  14.716 -0.0538 -0.4582  0.0950
17034TIP3    H172593   5.597   5.278  14.649 -2.3205  0.9524  1.5159
17034TIP3    H272594   5.684   5.226  14.762  0.4867 -1.2429 -1.5552
17035TIP3   OH272595   6.014   2.458  13.040  0.5233 -0.2472  0.1116
17035TIP3    H172596   6.052   2.533  12.993  0.6083 -0.6761 -0.5105
17035TIP3    H272597   5.920   2.467  13.026  0.5446 -0.3433 -0.1003
17036TIP3   OH272598   4.967   5.562   0.534  0.2775  0.2324  0.0357
17036TIP3    H172599   4.903   5.607   0.479  0.8916  2.1198  0.8147
17036TIP3    H272600   4.918   5.492   0.576 -0.7477  0.2726 -1.0600
17037TIP3   OH272601   0.584   1.075   4.834  0.2558 -0.0997 -0.1318
17037TIP3    H172602   0.676   1.097   4.850  0.2775 -0.8580  0.8255
17037TIP3    H272603   0.535   1.134   4.892  0.2311 -1.1718  0.9432
17038TIP3   OH272604   1.502   5.288  15.709  0.7540 -0.5091  0.5098
17038TIP3    H172605   1.484   5.195  15.697 -2.2074 -0.0706  1.1843
17038TIP3    H272606   1.532   5.319  15.624  3.4501 -2.4022  0.7169
17039TIP3   OH272607   6.106   4.888  12.031  0.0187 -0.4372 -0.3181
17039TIP3    H172608   6.125   4.797  12.054  0.9976 -0.0565  0.4012
17039TIP3    H272609   6.167   4.940  12.083 -0.5984  0.6458 -0.6403
17040TIP3   OH272610   1.834   2.964  14.295 -0.8941  0.0056  0.0055
17040TIP3    H172611   1.889   2.937  14.369  0.4050  1.4828 -0.4060
17040TIP3    H272612   1.745   2.941  14.323 -0.3577 -0.0558  1.7675
17041TIP3   OH272613   6.268   5.123  14.616 -0.0728 -0.3102 -0.2532
17041TIP3    H172614   6.285   5.030  14.604  0.7692 -0.1422 -0.3964
17041TIP3    H272615   6.216   5.128  14.696  1.2169 -0.7830  0.6316
17042TIP3   OH272616   2.890   5.211   3.258  0.9339  0.2342  0.1351
17042TIP3    H172617   2.941   5.241   3.183  0.4843  0.5343 -0.0591
17042TIP3    H272618   2.945   5.146   3.301  1.6251  0.8207  0.1466
17043TIP3   OH272619   6.313   3.660  11.197  0.1815 -0.0481  0.0302
17043TIP3    H172620   6.368   3.689  11.124 -0.0177 -0.8471 -0.4417
17043TIP3    H272621   6.342   3.570  11.214 -0.5755 -0.2621  0.1750
17044TIP3   OH272622   4.565   0.457   1.698  0.5264  0.4920  0.1889
17044TIP3    H172623   4.581   0.399   1.772  0.6634  0.2376 -0.0439
17044TIP3    H272624   4.508   0.526   1.734  2.8948  1.9423  1.2792
17045TIP3   OH272625   3.446   5.161  17.090  0.0527 -0.3057  0.7053
17045TIP3    H172626   3.421   5.204  17.009 -0.0309  1.1463  1.4854
17045TIP3    H272627   3.389   5.085  17.095  0.1779 -0.5041 -0.6780
17046TIP3   OH272628   3.466   6.460  14.270  0.6482 -0.3484  0.1245
17046TIP3    H172629   3.527   6.399  14.227 -0.4672 -0.9285 -0.6466
17046TIP3    H272630   3.383   6.413  14.273 -0.3967  1.3687 -1.0416
17047TIP3   OH272631   0.515   2.756  13.745 -0.0814 -0.0424 -0.0367
17047TIP3    H172632   0.607   2.733  13.729 -0.2758 -1.5936  1.0331
17047TIP3    H272633   0.487   2.696  13.814 -2.2063 -0.2888 -1.0928
17048TIP3   OH272634   5.414   1.740  14.483  0.4347 -0.6338 -0.4743
17048TIP3    H172635   5.359   1.686  14.540  2.0966 -0.2733  1.5185
17048TIP3    H272636   5.382   1.829  14.497  0.3458 -0.6298 -0.6987
17049TIP3   OH272637   0.219   2.056   0.912 -0.3628  0.0176 -0.3661
17049TIP3    H172638   0.139   2.057   0.860 -0.8201 -0.6477  0.3182
17049TIP3    H272639   0.278   1.998   0.864 -0.5530 -0.0834 -0.4773
17050TIP3   OH272640   1.226   6.090   1.157  0.0444  0.4001 -0.2434
17050TIP3    H172641   1.173   6.097   1.078 -1.0650 -3.9361 -0.0373
17050TIP3    H272642   1.315   6.074   1.125 -0.3702 -1.1653 -0.6685
17051TIP3   OH272643   2.245   3.327   5.383  0.4376  0.1877  0.3439
17051TIP3    H172644   2.236   3.397   5.318  0.1356 -0.1669  0.0027
17051TIP3    H272645   2.184   3.351   5.452  0.5787  0.4373  0.3841
17052TIP3   OH272646   2.741   2.143  13.995  0.1207  0.4838  0.0976
17052TIP3    H172647   2.695   2.193  14.063  0.4884 -1.1966  1.6158
17052TIP3    H272648   2.685   2.152  13.918 -0.0426  2.8514  0.4376
17053TIP3   OH272649   0.880   2.431  16.267 -0.3576 -0.1206  0.3981
17053TIP3    H172650   0.789   2.456  16.250 -0.1413  1.0981  0.9710
17053TIP3    H272651   0.883   2.337  16.251 -1.5074 -0.0094 -0.5284
17054TIP3   OH272652   6.614   1.139  11.286 -0.2007 -0.2154  0.1374
17054TIP3    H172653   6.690   1.085  11.306 -0.4399 -1.1693 -1.4654
17054TIP3    H272654   6.559   1.083  11.230 -0.6028  1.5661 -1.2769
17055TIP3   OH272655   3.525   4.112  14.305  0.5508  0.0740  0.2351
17055TIP3    H172656   3.617   4.123  14.327  0.1355  2.6505  0.8169
17055TIP3    H272657   3.481   4.103  14.390  0.1141 -0.0322 -0.0016
17056TIP3   OH272658   0.963   4.043   5.052  0.1456  0.3311  0.3958
17056TIP3    H172659   0.921   4.024   5.136  0.1042 -1.2825  0.0201
17056TIP3    H272660   1.010   3.963   5.030  1.1444  1.1614 -0.5510
17057TIP3   OH272661   5.778   2.114  15.099 -0.4105  0.4955  0.4268
17057TIP3    H172662   5.684   2.097  15.096 -0.0327 -1.5628 -0.6609
17057TIP3    H272663   5.818   2.030  15.077  1.7391  0.8180  2.9180
17058TIP3   OH272664   1.844   4.049   4.895  0.2728 -0.1785  0.1089
17058TIP3    H172665   1.810   4.127   4.939 -1.5481 -0.4316 -0.7827
17058TIP3    H272666   1.810   3.975   4.946 -2.7474 -0.5063 -2.2216
17059TIP3   OH272667   6.119   2.862  14.936 -0.1248  0.2016  0.7854
17059TIP3    H172668   6.183   2.911  14.987  0.3592  1.0979 -0.6389
17059TIP3    H272669   6.166   2.783  14.908 -0.4421 -0.3705  1.8376
17060TIP3   OH272670   6.786   2.565  13.524 -0.2794  0.0300 -0.3903
17060TIP3    H172671   6.766   2.474  13.501  0.5292 -0.3373  0.3081
17060TIP3    H272672   6.852   2.591  13.460  0.0167 -0.1244 -0.1557
17061TIP3   OH272673   0.551   1.453  17.214  0.1734  0.1460 -0.1368
17061TIP3    H172674   0.644   1.470  17.228  0.2413  1.4957 -1.9858
17061TIP3    H272675   0.512   1.540  17.209 -1.2740 -0.4186  1.0616
17062TIP3   OH272676   1.896   1.810  11.361 -0.2046  0.0626  0.0844
17062TIP3    H172677   1.829   1.743  11.344 -1.1244  0.5779  1.6253
17062TIP3    H272678   1.971   1.783  11.307 -0.2681 -2.6632  1.2800
17063TIP3   OH272679   0.651   5.971   2.316 -0.1631 -0.1281 -0.2359
17063TIP3    H172680   0.735   5.927   2.332 -0.2340  0.0638  0.7253
17063TIP3    H272681   0.653   6.047   2.375  0.6465  2.1080 -2.9959
17064TIP3   OH272682   6.601   6.009   5.863  0.2175  0.0045  0.5654
17064TIP3    H172683   6.547   6.015   5.942 -0.4993  1.2777 -0.0087
17064TIP3    H272684   6.594   6.095   5.823 -0.9122 -1.1667 -1.8508
17065TIP3   OH272685   3.550   2.626  11.953  0.6955  0.0288  0.6428
17065TIP3    H172686   3.540   2.672  12.036 -0.0869 -0.3680  0.7749
17065TIP3    H272687   3.462   2.596  11.932  0.9397 -0.1043 -0.1960
17066TIP3   OH272688   4.789   2.667   1.583  0.4804  0.2705 -0.9875
17066TIP3    H172689   4.833   2.623   1.655 -3.0433 -2.5505 -0.3671
17066TIP3    H272690   4.828   2.628   1.504  0.1626 -1.1188 -0.4830
17067TIP3   OH272691   6.211   3.978   3.263  0.0099  0.7314 -0.3377
17067TIP3    H172692   6.127   3.956   3.222 -0.1564  1.2851 -0.2984
17067TIP3    H272693   6.188   4.044   3.329  0.2139 -0.3958  0.8935
17068TIP3   OH272694   3.642   4.661   0.042  0.4065  0.4011 -0.3803
17068TIP3    H172695   3.583   4.587   0.054 -0.1712  0.6727 -1.4780
17068TIP3    H272696   3.605   4.732   0.095  0.7029  0.0551  0.2956
17069TIP3   OH272697   1.186   5.887  13.495 -0.0211 -0.3118 -0.1509
17069TIP3    H172698   1.196   5.792  13.483 -0.2007 -0.3720  0.1582
17069TIP3    H272699   1.091   5.900  13.500 -0.0573  0.0770 -1.6702
17070TIP3   OH272700   1.972   0.185  17.164  0.5338 -0.0034 -0.3423
17070TIP3    H172701   1.988   0.109  17.108  0.7978 -0.8542  0.8570
17070TIP3    H272702   2.053   0.195  17.214 -0.2287 -0.1763  0.9463
17071TIP3   OH272703   1.679   5.044  14.680  0.9248  0.3566 -0.1875
17071TIP3    H172704   1.607   5.107  14.669  1.0364  0.3618 -0.9145
17071TIP3    H272705   1.742   5.089  14.737 -0.4391 -0.3137  1.9423
17072TIP3   OH272706   6.614   1.646  14.610 -0.0680  0.3626  0.0925
17072TIP3    H172707   6.545   1.673  14.549 -0.2603 -0.5625 -0.1089
17072TIP3    H272708   6.656   1.727  14.636 -1.9809  1.0677  1.1064
17073TIP3   OH272709   5.850   2.893   6.785 -0.6292  0.0504 -0.0664
17073TIP3    H172710   5.901   2.968   6.755 -1.3722  0.1775 -1.0551
17073TIP3    H272711   5.888   2.869   6.869  0.1937  0.9728 -0.1759
17074TIP3   OH272712   5.678   4.598   0.829  0.2998 -0.4260  0.2492
17074TIP3    H172713   5.676   4.565   0.919 -1.3812  0.0143  0.3816
17074TIP3    H272714   5.589   4.586   0.797  0.5002  0.9024 -0.8270
17075TIP3   OH272715   3.854   3.620  11.702 -0.2898 -0.3140 -0.4415
17075TIP3    H172716   3.903   3.697  11.732 -1.9051 -0.6304  3.2631
17075TIP3    H272717   3.768   3.655  11.676 -0.7033 -0.7343  0.3552
17076TIP3   OH272718   2.074   4.534   1.492 -0.3709  0.0439 -0.1941
17076TIP3    H172719   1.986   4.558   1.465 -0.6664 -0.4539  0.3224
17076TIP3    H272720   2.074   4.438   1.491  0.7171  0.0186 -2.0092
17077TIP3   OH272721   5.133   3.838  11.984 -0.0372 -0.3267 -0.6704
17077TIP3    H172722   5.057   3.789  11.952 -0.0767  1.0104 -2.7133
17077TIP3    H272723   5.185   3.855  11.905  1.7886 -0.2066  0.5459
17078TIP3   OH272724   4.647   1.076   0.395  0.1411  0.1953  0.5590
17078TIP3    H172725   4.590   1.139   0.440  1.3155  1.7156 -0.0341
17078TIP3    H272726   4.645   0.998   0.451 -1.0100  0.8897  1.5233
17079TIP3   OH272727   3.429   6.260  15.627 -0.4193  0.0157  0.1508
17079TIP3    H172728   3.345   6.216  15.613 -0.6361 -0.0688  1.6226
17079TIP3    H272729   3.406   6.352  15.638 -0.0456  0.4012 -2.0941
17080TIP3   OH272730   4.573   6.666   0.529  0.0705 -0.0659 -0.0920
17080TIP3    H172731   4.562   6.581   0.487  1.6223 -0.2094 -0.2439
17080TIP3    H272732   4.629   6.715   0.468 -1.4484  1.3522 -0.3964
17081TIP3   OH272733   0.443   2.828   0.727 -0.0201 -0.2277  0.7418
17081TIP3    H172734   0.532   2.862   0.733  0.3465 -1.2133  0.9571
17081TIP3    H272735   0.449   2.756   0.664 -1.1724  1.3307 -1.2163
17082TIP3   OH272736   6.186   5.926  13.824 -0.1002 -0.5382  0.0337
17082TIP3    H172737   6.164   5.833  13.820  0.8036 -0.7023 -1.5422
17082TIP3    H272738   6.145   5.964  13.746  2.7431 -0.3572 -1.4517
17083TIP3   OH272739   4.579   2.278   3.501 -0.3283  0.3428 -0.2111
17083TIP3    H172740   4.646   2.262   3.568  0.7380 -0.3459 -1.4243
17083TIP3    H272741   4.525   2.349   3.537  1.0814  0.9399  0.7675
17084TIP3   OH272742   1.022   4.898   4.148 -0.1754  0.0470 -0.3425
17084TIP3    H172743   1.022   4.852   4.232 -2.0685  2.0413  0.7843
17084TIP3    H272744   0.949   4.858   4.100  0.2615 -0.3899 -0.6443
17085TIP3   OH272745   5.867   1.541  15.431  0.3139 -0.0448 -0.3751
17085TIP3    H172746   5.867   1.635  15.413 -2.2646  0.1748  0.4818
17085TIP3    H272747   5.876   1.536  15.527  1.3769 -0.7142 -0.5063
17086TIP3   OH272748   3.801   2.230  16.395  0.0949 -0.9282 -0.7377
17086TIP3    H172749   3.726   2.252  16.340 -1.3121 -3.8025 -0.0975
17086TIP3    H272750   3.790   2.283  16.473  0.1896  0.6102 -1.7621
17087TIP3   OH272751   2.904   0.374   4.876 -0.3669  0.4787  0.1208
17087TIP3    H172752   2.868   0.450   4.830  0.4083  0.8786  0.1576
17087TIP3    H272753   2.979   0.409   4.924  1.2722 -0.7019 -1.5046
17088TIP3   OH272754   0.324   0.247   4.286 -0.3168  0.5672 -0.2132
17088TIP3    H172755   0.362   0.160   4.272 -2.4782 -0.5456  0.4918
17088TIP3    H272756   0.374   0.305   4.229 -0.0610 -1.4678 -2.1476
17089TIP3   OH272757   2.745   6.660   3.416 -0.1635  0.0528 -0.4277
17089TIP3    H172758   2.694   6.707   3.350  0.3185 -0.4468 -1.1631
17089TIP3    H272759   2.828   6.709   3.422  0.0918 -0.3367 -0.7441
17090TIP3   OH272760   5.790   0.232  13.637 -0.4054  0.4119  0.5407
17090TIP3    H172761   5.828   0.155  13.595  0.3444 -0.0627  2.0533
17090TIP3    H272762   5.701   0.237  13.601 -0.7854 -1.6925  1.0767
17091TIP3   OH272763   3.699   4.827   4.348  0.7013  0.4036 -0.5426
17091TIP3    H172764   3.759   4.777   4.292  0.1019  0.8950 -1.6433
17091TIP3    H272765   3.711   4.917   4.320  0.9061  0.7370  0.6217
17092TIP3   OH272766   0.964   6.529  11.388  0.2490  0.3652 -0.2612
17092TIP3    H172767   1.028   6.523  11.460 -0.1490 -1.1628 -0.0262
17092TIP3    H272768   0.891   6.475  11.417  0.8907 -1.8524 -2.6464
17093TIP3   OH272769   0.105   0.249   3.612 -0.5547  0.5351 -0.4768
17093TIP3    H172770   0.140   0.170   3.652  0.6951  1.5263  0.4545
17093TIP3    H272771   0.050   0.288   3.680 -0.8092  0.6902 -0.7714
17094TIP3   OH272772   3.547   1.496   1.550  0.3552  0.0165 -0.6009
17094TIP3    H172773   3.609   1.478   1.620  1.8507 -1.7277 -2.3101
17094TIP3    H272774   3.461   1.493   1.593  1.1656 -2.0866  0.9806
17095TIP3   OH272775   0.283   0.863  14.938 -0.2897 -0.3841  0.2287
17095TIP3    H172776   0.219   0.889  15.004  0.7409  0.2878  0.9927
17095TIP3    H272777   0.362   0.842  14.989  0.7026  0.6938 -0.8236
17096TIP3   OH272778   4.469   4.477  15.975  0.4478 -0.2163  0.7977
17096TIP3    H172779   4.530   4.502  16.044  1.9632 -0.1811 -0.4989
17096TIP3    H272780   4.421   4.557  15.955 -1.4343 -0.7154  3.1744
17097TIP3   OH272781   6.282   3.265  16.480  0.0040  0.5267  0.0891
17097TIP3    H172782   6.286   3.193  16.542 -0.8960  1.6265  1.4485
17097TIP3    H272783   6.194   3.303  16.492  1.0551  2.8915  0.6113
17098TIP3   OH272784   0.247   3.711   5.977 -0.1469 -0.3816  0.1513
17098TIP3    H172785   0.171   3.769   5.971  0.1176 -0.0968 -0.5313
17098TIP3    H272786   0.227   3.653   6.050 -0.5003  0.4460  0.7207
17099TIP3   OH272787   1.119   2.653  12.136 -0.1006  0.0943  0.3757
17099TIP3    H172788   1.186   2.718  12.116  1.0806 -0.9527  0.8513
17099TIP3    H272789   1.051   2.702  12.182  0.5635  1.0891  0.3179
17100TIP3   OH272790   0.882   0.752   4.661 -0.4179 -0.2556 -0.3979
17100TIP3    H172791   0.787   0.735   4.660 -0.2630 -1.1653 -2.1276
17100TIP3    H272792   0.892   0.834   4.613 -0.2277 -0.8028 -1.3008
17101TIP3   OH272793   3.386   1.254   1.201  0.4612  0.1952  0.2349
17101TIP3    H172794   3.477   1.262   1.173  0.4067  3.2090  0.7582
17101TIP3    H272795   3.343   1.331   1.164 -1.7760 -0.9559  0.3992
17102TIP3   OH272796   6.371   1.364  11.997 -0.6280  0.1619 -0.1015
17102TIP3    H172797   6.333   1.451  11.989 -0.2433  0.4765  1.4677
17102TIP3    H272798   6.391   1.354  12.090  1.5110 -0.6657 -0.6086
17103TIP3   OH272799   2.311   5.685   1.571  0.0030 -0.6270  0.1203
17103TIP3    H172800   2.289   5.600   1.610 -0.7602 -0.1505  0.7357
17103TIP3    H272801   2.366   5.663   1.496 -0.7585 -1.7178 -0.1361
17104TIP3   OH272802   3.623   0.392   4.404  0.6615 -0.2449  0.6925
17104TIP3    H172803   3.701   0.406   4.458 -0.1258  0.6113  1.6213
17104TIP3    H272804   3.567   0.335   4.457  1.1580 -1.8417 -0.4714
17105TIP3   OH272805   2.626   6.450  13.165  0.2986  0.7401  0.7019
17105TIP3    H172806   2.659   6.497  13.242 -0.0059 -1.2634  2.0885
17105TIP3    H272807   2.546   6.406  13.195 -0.7181  1.2227 -1.2029
17106TIP3   OH272808   4.256   2.565  11.989  0.1697 -0.3638  0.9348
17106TIP3    H172809   4.351   2.552  11.995 -0.1463 -1.7537  3.4261
17106TIP3    H272810   4.232   2.521  11.907  1.5393 -0.7009  0.6920
17107TIP3   OH272811   4.105   5.314  13.624 -0.7574 -0.5035  0.1022
17107TIP3    H172812   4.041   5.377  13.657 -0.3451  0.3610 -0.7433
17107TIP3    H272813   4.190   5.356  13.636 -0.5360 -0.5755 -1.1695
17108TIP3   OH272814   2.977   2.774   3.262  0.2037  0.0562  0.1419
17108TIP3    H172815   2.952   2.784   3.353  2.4555 -0.1119  0.8058
17108TIP3    H272816   2.999   2.863   3.233  1.5023 -0.1662  0.3968
17109TIP3   OH272817   6.011   4.400  16.845  0.9659 -0.7540  0.2379
17109TIP3    H172818   5.964   4.336  16.897  1.0442 -0.7376  0.3276
17109TIP3    H272819   5.998   4.483  16.892  1.8258 -0.9033  0.7405
17110TIP3   OH272820   2.648   4.239  11.632  0.3214  0.1544 -0.7473
17110TIP3    H172821   2.694   4.208  11.710 -0.9875  2.0878  0.8401
17110TIP3    H272822   2.713   4.287  11.582  0.1035  2.8227  1.4493
17111TIP3   OH272823   2.193   5.151  14.486 -0.1386 -1.0152 -0.4076
17111TIP3    H172824   2.232   5.155  14.573 -0.8199 -0.8630 -0.1008
17111TIP3    H272825   2.267   5.157  14.425  0.3818 -1.6278  0.1592
17112TIP3   OH272826   6.112   5.871   3.869  0.0915 -0.6778 -0.0128
17112TIP3    H172827   6.125   5.777   3.878  2.4078 -0.4212 -0.4861
17112TIP3    H272828   6.086   5.883   3.778 -0.7954 -0.9059  0.2031
17113TIP3   OH272829   4.741   3.902   3.518 -0.1529 -0.1727  0.5886
17113TIP3    H172830   4.803   3.869   3.583  1.5226 -1.9759 -1.7880
17113TIP3    H272831   4.780   3.984   3.488  0.3142 -0.5101  0.2427
17114TIP3   OH272832   5.633   0.887   1.583 -0.2063 -0.2955  0.4004
17114TIP3    H172833   5.716   0.880   1.630 -0.0179 -0.1814  0.0831
17114TIP3    H272834   5.574   0.827   1.629  0.1189 -0.5581  0.4770
17115TIP3   OH272835   4.158   3.437   3.733 -0.1109 -0.5493 -0.8343
17115TIP3    H172836   4.074   3.401   3.707 -0.6624 -0.0739  0.2603
17115TIP3    H272837   4.148   3.458   3.826  1.6241 -1.6688 -0.3762
17116TIP3   OH272838   4.201   3.591  14.027 -0.0900  0.7210  0.5124
17116TIP3    H172839   4.121   3.573  14.077 -2.1583  2.1811 -2.1005
17116TIP3    H272840   4.220   3.683  14.045  1.2936  0.2468  1.4973
17117TIP3   OH272841   4.955   3.050   0.735  0.2426  0.4296 -0.2505
17117TIP3    H172842   5.019   3.121   0.738 -2.0357  2.5416 -0.3937
17117TIP3    H272843   4.929   3.036   0.827 -1.9630  2.3150 -0.5381
17118TIP3   OH272844   3.346   0.171   4.855  0.1720  0.4687  0.0344
17118TIP3    H172845   3.388   0.095   4.814 -1.1881  0.1982 -0.8812
17118TIP3    H272846   3.253   0.155   4.846 -0.1392  2.4299 -0.4732
17119TIP3   OH272847   4.343   5.260   5.806  0.2482 -0.2816 -0.1837
17119TIP3    H172848   4.307   5.345   5.783  0.3233 -0.4678 -0.9944
17119TIP3    H272849   4.422   5.281   5.857  0.2059  0.1335 -0.2866
17120TIP3   OH272850   6.056   2.527   4.142 -0.4413 -0.1595  0.7459
17120TIP3    H172851   6.140   2.491   4.169 -0.1644  0.9448  1.3981
17120TIP3    H272852   6.006   2.536   4.223 -0.6487  0.5511  0.5418
17121TIP3   OH272853   5.543   2.312  12.532  0.4296  0.6963  0.2865
17121TIP3    H172854   5.562   2.323  12.439 -0.5835 -2.1270 -0.3193
17121TIP3    H272855   5.457   2.352  12.544  0.4301  0.8030 -0.0595
17122TIP3   OH272856   5.797   6.338  12.798  0.0343  0.6152  0.0414
17122TIP3    H172857   5.799   6.433  12.804 -0.0175  0.7276 -1.6576
17122TIP3    H272858   5.705   6.317  12.779 -0.0019  0.2095  0.6425
17123TIP3   OH272859   2.267   3.667   5.985  0.5535 -0.1253  0.0575
17123TIP3    H172860   2.245   3.592   6.040 -0.0914 -0.1740 -0.2537
17123TIP3    H272861   2.308   3.629   5.907  0.8649 -0.1058  0.2135
17124TIP3   OH272862   3.846   4.698   4.566 -0.6269 -0.1931 -0.4159
17124TIP3    H172863   3.874   4.635   4.500 -1.6266 -0.6401 -0.4192
17124TIP3    H272864   3.783   4.754   4.521 -0.9307 -0.1837  0.0101
17125TIP3   OH272865   0.835   1.646  11.813  0.0376 -0.4231  0.3905
17125TIP3    H172866   0.852   1.561  11.854 -1.5500 -1.0501 -0.2382
17125TIP3    H272867   0.769   1.628  11.747 -0.8296  1.4464  0.7249
17126TIP3   OH272868   6.674   6.777   5.813 -0.5292  0.4607 -0.0538
17126TIP3    H172869   6.673   6.785   5.717 -3.5863  1.2973 -0.0180
17126TIP3    H272870   6.714   6.858   5.843 -0.1334  0.4825 -0.6304
17127TIP3   OH272871   0.730   6.340   0.016 -0.7438  0.1182  1.1745
17127TIP3    H172872   0.802   6.382  -0.032 -1.3864 -1.2354 -1.0248
17127TIP3    H272873   0.774   6.278   0.074  0.0415  1.7352  2.3476
17128TIP3   OH272874   0.501   0.683  14.295  0.1827 -0.0406 -0.2781
17128TIP3    H172875   0.465   0.727  14.217  0.0821 -0.1438 -0.2905
17128TIP3    H272876   0.495   0.750  14.364  1.4119  0.4516 -0.6477
17129TIP3   OH272877   1.903   3.109   5.784  0.0251  0.2424  0.3718
17129TIP3    H172878   1.885   3.067   5.700 -0.9868  1.8720 -0.2365
17129TIP3    H272879   1.998   3.099   5.796  0.1393 -0.1905 -0.8420
17130TIP3   OH272880   3.818   3.153  13.117 -0.0666 -0.7164  0.6685
17130TIP3    H172881   3.831   3.079  13.058  0.4193 -0.9464  1.0582
17130TIP3    H272882   3.879   3.220  13.086 -1.2564 -0.0700 -0.3412
17131TIP3   OH272883   3.912   1.600   2.600 -0.0824  0.1366  0.0127
17131TIP3    H172884   3.950   1.686   2.620 -0.8785  0.4235  0.2886
17131TIP3    H272885   3.937   1.583   2.509  0.9482  0.1967  0.2731
17132TIP3   OH272886   3.354   5.560   4.554 -0.4759 -0.8689  0.3529
17132TIP3    H172887   3.389   5.636   4.508 -1.4954  0.1678  1.2619
17132TIP3    H272888   3.431   5.515   4.588  0.0875  0.2830  0.6203
17133TIP3   OH272889   1.799   2.567   5.285  0.4982 -0.6744  0.4293
17133TIP3    H172890   1.742   2.608   5.350  0.2991 -3.2159  1.9247
17133TIP3    H272891   1.883   2.557   5.331  1.5800  1.1544 -1.0674
17134TIP3   OH272892   0.100   6.627   3.957 -0.0953  0.4399 -0.4885
17134TIP3    H172893   0.126   6.620   4.049  0.9930 -0.2373 -0.8392
17134TIP3    H272894   0.005   6.613   3.957  0.0910 -0.8679  0.3870
17135TIP3   OH272895   6.052   1.964   3.558 -0.0523  0.0893 -0.6488
17135TIP3    H172896   6.018   1.905   3.490 -0.1861 -0.9099  0.2705
17135TIP3    H272897   6.134   1.996   3.522  0.2860 -1.0762 -0.9446
17136TIP3   OH272898   1.230   2.470   5.911  0.2595 -0.4918  0.0468
17136TIP3    H172899   1.207   2.533   5.980  0.9906  0.1332 -0.2647
17136TIP3    H272900   1.253   2.390   5.958 -0.1989 -0.3768  0.4755
17137TIP3   OH272901   3.846   2.539  16.186 -0.4698 -0.4068  0.3189
17137TIP3    H172902   3.842   2.552  16.091 -0.1333  0.3773  0.4171
17137TIP3    H272903   3.829   2.445  16.197 -0.3425 -0.5356 -0.5264
17138TIP3   OH272904   0.864   4.536   4.793  0.3512  0.0650 -0.4112
17138TIP3    H172905   0.784   4.568   4.834  1.5240  2.7386 -0.1331
17138TIP3    H272906   0.878   4.592   4.717  3.3147  1.3564  0.9909
17139TIP3   OH272907   2.974   6.077  16.665  0.4050 -0.0717  0.3127
17139TIP3    H172908   2.945   6.094  16.576 -1.9985  0.7529  1.2180
17139TIP3    H272909   2.992   6.164  16.702  0.5941 -0.3528  0.9050
17140TIP3   OH272910   1.069   2.019   4.051 -0.7224  0.5204 -0.1011
17140TIP3    H172911   1.049   1.975   4.133  0.0868  1.6262  0.6993
17140TIP3    H272912   1.040   2.110   4.064  0.4939  0.9926 -0.5873
17141TIP3   OH272913   1.898   6.595   1.366 -0.6279 -0.4761  0.1305
17141TIP3    H172914   1.874   6.505   1.384  0.2928 -0.6588  0.5089
17141TIP3    H272915   1.991   6.591   1.344 -0.4545  0.4405  0.6610
17142TIP3   OH272916   6.136   4.935   3.114 -0.1881  0.0841 -0.8194
17142TIP3    H172917   6.162   4.940   3.206 -0.8471 -2.4400 -0.4605
17142TIP3    H272918   6.180   4.858   3.080 -0.4102  0.6603 -2.4806
17143TIP3   OH272919   2.087   6.375   0.585 -0.0879  0.0099  0.2874
17143TIP3    H172920   1.999   6.409   0.604  0.0212 -0.4791  1.6978
17143TIP3    H272921   2.082   6.346   0.494 -0.9077  1.5091 -0.1607
17144TIP3   OH272922   4.174   3.689   5.445 -0.5371  0.3179 -0.8304
17144TIP3    H172923   4.199   3.598   5.457  2.9091  1.3516  0.4521
17144TIP3    H272924   4.215   3.714   5.361  0.5090  1.2895 -0.0461
17145TIP3   OH272925   3.552   4.534   5.676 -0.1100  0.0793  0.2777
17145TIP3    H172926   3.518   4.449   5.705 -1.9639 -0.1324 -2.2623
17145TIP3    H272927   3.627   4.512   5.621 -1.5323 -0.1036 -1.6822
17146TIP3   OH272928   5.653   0.103  12.017  0.4490  0.4457  0.4901
17146TIP3    H172929   5.659   0.009  11.997 -0.9223  0.4829 -0.1355
17146TIP3    H272930   5.681   0.109  12.108  1.6362 -0.4164  0.2026
17147TIP3   OH272931   3.598   0.618  15.490  0.3453  0.3278 -0.1790
17147TIP3    H172932   3.509   0.652  15.499 -0.0807 -1.0398  1.0252
17147TIP3    H272933   3.645   0.685  15.441 -1.4357  0.9064 -1.1193
17148TIP3   OH272934   5.530   6.481   1.472  0.3175 -0.4170 -0.3444
17148TIP3    H172935   5.438   6.479   1.498 -0.0906 -0.4330 -1.7469
17148TIP3    H272936   5.529   6.462   1.378  1.8360 -1.5319 -0.1589
17149TIP3   OH272937   1.135   0.919   6.017  0.3026 -0.6335  0.7969
17149TIP3    H172938   1.084   1.001   6.010 -1.0702 -1.5956 -0.9376
17149TIP3    H272939   1.128   0.895   6.109  0.1598  0.8662  1.1973
17150TIP3   OH272940   0.762   2.974   5.110  0.2083  0.3362  0.2714
17150TIP3    H172941   0.696   2.962   5.179 -1.0921  1.1730 -0.8157
17150TIP3    H272942   0.717   3.025   5.042  2.0709  1.1697 -0.3542
17151TIP3   OH272943   1.595   2.444   1.758 -0.3575  0.2591 -0.1900
17151TIP3    H172944   1.592   2.404   1.671 -0.9822 -0.9802  0.3764
17151TIP3    H272945   1.512   2.491   1.765 -0.7369 -0.4405  0.0908
17152TIP3   OH272946   5.017   5.651   2.055 -0.1759  0.7506 -0.0324
17152TIP3    H172947   4.933   5.683   2.023  0.3703  1.2011 -1.0210
17152TIP3    H272948   4.996   5.569   2.101 -1.4262  1.9078  1.5002
17153TIP3   OH272949   3.092   4.356  12.977 -0.0961  0.2195  0.0712
17153TIP3    H172950   3.149   4.432  12.989  0.3812 -0.3054  1.2077
17153TIP3    H272951   3.148   4.291  12.934 -0.3373  0.2979 -0.3699
17154TIP3   OH272952   4.085   0.722  11.526 -0.0649 -0.5191  0.3200
17154TIP3    H172953   4.022   0.737  11.597 -0.9613 -0.6571 -0.4468
17154TIP3    H272954   4.048   0.648  11.477  0.6559 -0.5497 -0.1738
17155TIP3   OH272955   6.754   5.823  14.910 -0.0391  0.0117 -0.3552
17155TIP3    H172956   6.759   5.917  14.896  1.2025 -0.1750 -1.3088
17155TIP3    H272957   6.728   5.787  14.826  1.2458 -0.6269 -0.4949
17156TIP3   OH272958   4.496   0.033  15.854  0.3324  0.3798  0.0424
17156TIP3    H172959   4.427  -0.033  15.862  1.0835 -0.2034  2.2448
17156TIP3    H272960   4.451   0.114  15.834 -0.6313 -0.7389 -2.5132
17157TIP3   OH272961   6.257   0.089  15.860  0.1079  0.4977 -0.7796
17157TIP3    H172962   6.172   0.058  15.828  0.8361 -2.4847 -0.0143
17157TIP3    H272963   6.319   0.059  15.794  0.9211 -0.3958  0.3614
17158TIP3   OH272964   3.672   2.823  16.073  0.2441 -0.1138  0.4963
17158TIP3    H172965   3.743   2.773  16.033  0.7293 -1.0136  2.4266
17158TIP3    H272966   3.716   2.886  16.130 -0.4640  0.4477  0.4340
17159TIP3   OH272967   0.546   4.032   0.196  0.2823 -0.1343  0.1768
17159TIP3    H172968   0.505   4.107   0.152  0.6156 -0.7224 -1.1620
17159TIP3    H272969   0.610   4.071   0.255  1.8316  0.6152 -1.9250
17160TIP3   OH272970   1.723   6.793   4.463 -0.0220  0.4095 -0.1666
17160TIP3    H172971   1.695   6.702   4.472 -0.2688  0.5077  0.0412
17160TIP3    H272972   1.650   6.837   4.420  0.1585  0.4765 -0.4056
17161TIP3   OH272973   2.948   0.358   0.646  0.1088 -0.5198 -0.0807
17161TIP3    H172974   2.997   0.431   0.609  1.5004 -1.6323 -0.4614
17161TIP3    H272975   2.899   0.322   0.572  1.1965 -1.3799 -0.3984
17162TIP3   OH272976   0.644   3.290   4.207  0.0167 -0.2544  0.1278
17162TIP3    H172977   0.740   3.293   4.211  0.0423  0.7857 -0.9728
17162TIP3    H272978   0.615   3.340   4.283  0.3812  1.6976 -0.9686
17163TIP3   OH272979   6.485   4.573  14.230  0.1617  0.0653  0.3413
17163TIP3    H172980   6.404   4.551  14.277  0.9923 -0.9124  1.3537
17163TIP3    H272981   6.456   4.610  14.147 -1.3286  0.0946  0.8622
17164TIP3   OH272982   5.346   0.231  14.520 -0.1892  0.3589  0.8006
17164TIP3    H172983   5.319   0.284  14.595 -1.8046 -1.3801  1.4972
17164TIP3    H272984   5.441   0.232  14.523 -0.2141 -0.0766  3.1962
17165TIP3   OH272985   0.664   3.539   0.769 -0.0340 -0.9063  0.1494
17165TIP3    H172986   0.589   3.546   0.828  0.0940 -1.7012  0.4076
17165TIP3    H272987   0.728   3.487   0.818  0.3844 -0.8838 -0.3750
17166TIP3   OH272988   5.192   0.342  11.568  0.0710  0.1055  0.4225
17166TIP3    H172989   5.130   0.274  11.592 -1.3775  1.2398 -0.0079
17166TIP3    H272990   5.227   0.315  11.483  0.4860 -0.7504  0.8659
17167TIP3   OH272991   0.043   0.367  16.968 -0.8561 -0.0072 -0.5575
17167TIP3    H172992   0.133   0.383  16.939 -1.1794 -1.3041 -2.3674
17167TIP3    H272993  -0.010   0.417  16.906 -1.4809 -1.4756 -1.2400
17168TIP3   OH272994   2.438   4.287   4.591  0.2175 -0.4775  0.3699
17168TIP3    H172995   2.477   4.306   4.506 -2.2565  0.5156 -0.5871
17168TIP3    H272996   2.378   4.214   4.575  0.5160 -0.9949  1.4973
17169TIP3   OH272997   4.605   4.231  16.327 -0.0211 -0.7960  0.0076
17169TIP3    H172998   4.555   4.247  16.407  1.1751 -1.1043  0.8401
17169TIP3    H272999   4.600   4.136  16.314 -1.1197 -0.6219 -0.9009
17170TIP3   OH273000   1.792   2.454  17.077  0.2216  0.1635 -0.4131
17170TIP3    H173001   1.883   2.445  17.051 -0.1584 -0.3801 -1.6231
17170TIP3    H273002   1.766   2.541  17.044 -0.2655 -0.5335 -1.9159
17171TIP3   OH273003   2.936   2.590  17.181  0.0217  0.0958  0.0931
17171TIP3    H173004   2.951   2.541  17.262 -1.9946 -2.3679 -0.9570
17171TIP3    H273005   3.009   2.567  17.124  1.1022  1.3401  0.9271
17172TIP3   OH273006   6.014   1.068   5.473  0.1088  0.7163  0.1358
17172TIP3    H173007   5.937   1.089   5.420  0.1750 -1.1918 -0.7585
17172TIP3    H273008   5.996   1.108   5.558  0.0035  3.8062 -1.2965
17173TIP3   OH273009   0.695   5.804  12.724  0.5062  0.2572  0.3905
17173TIP3    H173010   0.665   5.715  12.740  1.4862 -0.0178  0.7536
17173TIP3    H273011   0.617   5.852  12.697 -0.1784 -0.5237  0.9855
17174TIP3   OH273012   5.635   5.560  12.642 -0.3111 -0.3243 -0.1759
17174TIP3    H173013   5.628   5.532  12.551 -2.1419 -0.7812  0.0705
17174TIP3    H273014   5.568   5.509  12.688  0.5910 -0.1137  1.4366
17175TIP3   OH273015   4.289   6.743  15.177  0.2174  0.6760 -0.0829
17175TIP3    H173016   4.200   6.774  15.159 -0.7667 -1.5971  0.5357
17175TIP3    H273017   4.320   6.798  15.249 -1.1164  0.8219  0.4038
17176TIP3   OH273018   4.479   4.705  11.904  0.9219 -0.1836  0.2539
17176TIP3    H173019   4.461   4.752  11.986  1.2586 -1.3262  0.9986
17176TIP3    H273020   4.397   4.661  11.883  1.5413 -1.8419  1.2835
17177TIP3   OH273021   4.403   5.837   4.900  0.0140  0.2053 -0.5950
17177TIP3    H173022   4.395   5.887   4.819  4.7165 -0.5449 -1.6477
17177TIP3    H273023   4.358   5.754   4.882  0.9781  0.0686 -2.4135
17178TIP3   OH273024   4.854   6.483  11.279  0.0862  0.0219  0.2577
17178TIP3    H173025   4.918   6.513  11.214 -0.9722 -1.0570 -1.3045
17178TIP3    H273026   4.861   6.388  11.277 -1.3961 -0.0878  0.2643
17179TIP3   OH273027   3.919   1.683  14.468  0.0563  0.4144  0.4692
17179TIP3    H173028   3.878   1.606  14.506 -0.8450  0.9304  0.5586
17179TIP3    H273029   3.932   1.661  14.376 -1.7220  0.7579  0.1142
17180TIP3   OH273030   6.061   5.945  15.207  0.9611 -0.2149  0.5125
17180TIP3    H173031   5.980   5.913  15.246  0.1506  2.4455  1.0922
17180TIP3    H273032   6.079   5.883  15.136 -0.9411 -1.4976  1.1056
17181TIP3   OH273033   0.099   4.798  12.340  0.4255 -0.6435  0.8959
17181TIP3    H173034   0.065   4.709  12.332 -1.6870  0.1378  0.8860
17181TIP3    H273035   0.143   4.815  12.257 -1.5884 -0.7005 -0.2001
17182TIP3   OH273036   1.812   3.307  11.624  0.3400 -0.1831  0.0331
17182TIP3    H173037   1.720   3.329  11.617  0.1430 -1.5245 -1.8150
17182TIP3    H273038   1.818   3.248  11.699 -0.1992  0.3348  0.4858
17183TIP3   OH273039   0.101   2.563  10.646  0.3179  0.0756 -0.5802
17183TIP3    H173040   0.143   2.532  10.566  1.4027 -1.2523  0.4697
17183TIP3    H273041   0.015   2.593  10.618  0.8275 -0.0272 -2.2979
17184TIP3   OH273042   2.811   1.418  15.316  0.0212  0.2391  0.0160
17184TIP3    H173043   2.869   1.412  15.392 -1.6560  1.0022  1.4020
17184TIP3    H273044   2.761   1.336  15.318  0.2044  0.1168 -0.4563
17185TIP3   OH273045   3.566   1.037   2.824 -0.0531  0.1677 -0.1158
17185TIP3    H173046   3.571   0.970   2.891 -0.9016 -0.4387 -0.6514
17185TIP3    H273047   3.608   0.998   2.747 -1.5251 -0.1749 -0.7621
17186TIP3   OH273048   5.722   4.977  15.200  0.5608 -0.2991  0.3753
17186TIP3    H173049   5.676   4.985  15.116  2.3900 -1.2729 -0.7548
17186TIP3    H273050   5.783   4.904  15.187  0.4596 -0.8509  2.7562
17187TIP3   OH273051   0.635   0.122   2.425 -0.1389 -0.0149 -0.2351
17187TIP3    H173052   0.547   0.125   2.387 -0.8022  1.1619  1.2943
17187TIP3    H273053   0.633   0.047   2.484 -0.2270  0.2071  0.0454
17188TIP3   OH273054   5.720   1.918  17.161  0.2364  0.1345  0.0310
17188TIP3    H173055   5.724   1.824  17.180  0.9386  0.2175  0.3130
17188TIP3    H273056   5.771   1.928  17.081  0.5656  0.3445  0.2691
17189TIP3   OH273057   1.438   0.723   3.365  0.4832  0.5379  0.8080
17189TIP3    H173058   1.499   0.666   3.319 -0.2064 -0.0894  0.6744
17189TIP3    H273059   1.410   0.672   3.441 -0.2604  0.6305  0.6002
17190TIP3   OH273060   2.183   3.319   4.099 -0.1080 -0.0197  0.4594
17190TIP3    H173061   2.212   3.367   4.177 -1.7647  0.3173  0.8822
17190TIP3    H273062   2.236   3.355   4.028 -0.6532  1.7654  0.9361
17191TIP3   OH273063   1.921   3.284  16.234 -0.5652  0.7031 -0.0516
17191TIP3    H173064   1.862   3.297  16.160 -2.4032 -1.2899  1.0092
17191TIP3    H273065   1.928   3.189  16.243  1.4559  0.9124  0.9351
17192TIP3   OH273066   2.597   1.164  13.735  0.4895 -0.4524 -0.0027
17192TIP3    H173067   2.682   1.165  13.691 -0.3588 -1.1668 -1.7169
17192TIP3    H273068   2.566   1.254  13.729  1.7426  0.1340  1.9138
17193TIP3   OH273069   6.576   5.779   0.449  0.3694 -0.0883  0.4348
17193TIP3    H173070   6.656   5.745   0.409  0.3619 -0.3596  0.6450
17193TIP3    H273071   6.607   5.837   0.519  0.3996  2.3954 -1.5815
17194TIP3   OH273072   3.897   4.039   5.776  0.8896  0.4304  0.6375
17194TIP3    H173073   3.919   4.040   5.869  1.2941  0.8844  0.5379
17194TIP3    H273074   3.875   4.130   5.755 -0.6301  0.0708  0.6287
17195TIP3   OH273075   2.612   0.664   5.253  0.2715 -0.7156  0.3115
17195TIP3    H173076   2.611   0.749   5.296  0.4087 -1.0939  1.0718
17195TIP3    H273077   2.616   0.684   5.160  3.1600  0.0984  0.5787
17196TIP3   OH273078   1.614   5.706  12.925  0.2787 -0.3059  0.3511
17196TIP3    H173079   1.580   5.630  12.878  3.5412 -2.1878  0.8912
17196TIP3    H273080   1.548   5.724  12.992 -0.9974 -2.0468 -0.4089
17197TIP3   OH273081   2.311   4.972  14.118  0.5340  0.5910 -0.0709
17197TIP3    H173082   2.292   5.064  14.134 -2.1591 -0.2026  1.6914
17197TIP3    H273083   2.385   4.952  14.175  0.9728  1.5843 -0.2801
17198TIP3   OH273084   2.747   5.126   3.937 -0.6174 -0.1116  0.3936
17198TIP3    H173085   2.685   5.194   3.961 -0.5528  0.4145 -0.9283
17198TIP3    H273086   2.727   5.054   3.997  0.4076  1.6396  2.9066
17199TIP3   OH273087   0.789   1.010   5.902  0.1859 -0.4024  0.4473
17199TIP3    H173088   0.799   1.099   5.937 -2.1740 -0.3591  1.1400
17199TIP3    H273089   0.821   0.953   5.972  2.6667 -0.0784 -0.4048
17200TIP3   OH273090   3.851   2.630   1.124  0.2694  0.5951 -0.2502
17200TIP3    H173091   3.927   2.618   1.066  1.2934  2.1895  0.6951
17200TIP3    H273092   3.888   2.628   1.212 -1.2401 -1.5730  0.3662
17201TIP3   OH273093   1.408   5.522  13.692 -0.2248  0.1133  0.4157
17201TIP3    H173094   1.475   5.473  13.740 -0.0122  0.6999  0.7384
17201TIP3    H273095   1.454   5.556  13.615 -0.1649  0.4441  0.5919
17202TIP3   OH273096   5.529   4.102   1.116  0.4349  0.2491 -0.2499
17202TIP3    H173097   5.573   4.018   1.105 -0.1513 -0.1216  0.1593
17202TIP3    H273098   5.460   4.102   1.050 -0.2065 -0.0303  0.4097
17203TIP3   OH273099   6.706   3.360   3.603 -0.2621 -0.0282  0.0018
17203TIP3    H173100   6.746   3.412   3.672 -1.2927  0.5107  0.2011
17203TIP3    H273101   6.740   3.272   3.617  2.2801  0.7492 -0.9378
17204TIP3   OH273102   6.507   4.261   4.528  0.4479  0.1000 -0.1425
17204TIP3    H173103   6.595   4.255   4.490  0.1718 -0.1942 -0.7397
17204TIP3    H273104   6.480   4.170   4.539 -0.5366  0.1741 -1.7475
17205TIP3   OH273105   3.619   6.514  11.382  0.1064  0.5386  0.2647
17205TIP3    H173106   3.666   6.491  11.462  0.9689  0.2654 -0.3127
17205TIP3    H273107   3.573   6.595  11.404 -1.0544 -0.4655  1.5661
17206TIP3   OH273108   1.414   3.914  15.578 -0.0773  0.6773  0.4436
17206TIP3    H173109   1.413   3.841  15.516  0.5113 -1.1948  2.6106
17206TIP3    H273110   1.333   3.905  15.628  0.3663  1.0515  1.2412
17207TIP3   OH273111   4.974   4.955   3.447 -0.3289  0.3075 -0.3993
17207TIP3    H173112   4.942   4.919   3.364 -0.1695 -1.4734  0.2904
17207TIP3    H273113   4.946   4.892   3.513  1.0042  0.8337  0.7028
17208TIP3   OH273114   2.023   2.026  16.010 -0.9864  0.5591 -0.2406
17208TIP3    H173115   2.035   2.030  16.105  1.8342 -1.0680 -0.4837
17208TIP3    H273116   1.999   1.935  15.993 -2.6047  1.1139 -0.9927
17209TIP3   OH273117   2.218   2.253  16.451  0.3489 -0.6606 -0.1635
17209TIP3    H173118   2.184   2.165  16.434  0.8971 -0.7127 -1.0534
17209TIP3    H273119   2.310   2.239  16.476  0.0112 -0.4515  1.2339
17210TIP3   OH273120   4.925   2.969  10.797 -0.1863 -0.2552 -0.0501
17210TIP3    H173121   4.897   2.886  10.760 -3.1834 -0.5980  2.7386
17210TIP3    H273122   5.012   2.951  10.833  0.3557 -1.3885 -1.8631
17211TIP3   OH273123   4.657   2.861  16.636 -0.5350 -0.8377  0.1113
17211TIP3    H173124   4.613   2.841  16.553 -0.8413 -1.0645  0.3233
17211TIP3    H273125   4.678   2.775  16.673  1.3072 -0.7125 -0.6264
17212TIP3   OH273126   5.678   1.619  16.802  0.9649  0.4763 -0.8045
17212TIP3    H173127   5.595   1.640  16.845  0.9775  0.0559 -0.5736
17212TIP3    H273128   5.653   1.579  16.719  0.9359  0.4375 -0.7775
17213TIP3   OH273129   0.019   4.672  11.725  0.7686  0.4782  0.3121
17213TIP3    H173130  -0.026   4.642  11.804  2.3902 -1.1167  0.6737
17213TIP3    H273131   0.039   4.592  11.676  0.7816  1.3607 -1.1709
17214TIP3   OH273132   5.228   4.228  14.444  0.3009 -0.2995  0.7585
17214TIP3    H173133   5.212   4.312  14.486 -0.6188 -0.7366  1.3008
17214TIP3    H273134   5.147   4.209  14.396  0.5239 -0.8470  0.5973
17215TIP3   OH273135   4.577   4.716  15.721 -0.5333 -0.4439 -0.2204
17215TIP3    H173136   4.550   4.638  15.673 -0.5673 -0.1646 -0.6592
17215TIP3    H273137   4.496   4.751  15.757 -0.6786 -0.0007 -0.9479
17216TIP3   OH273138   5.550   1.673   2.691 -0.0938  0.1645  0.0602
17216TIP3    H173139   5.573   1.765   2.706 -1.0074  0.4963 -0.5439
17216TIP3    H273140   5.634   1.629   2.680  0.3506  0.9300  0.3661
17217TIP3   OH273141   6.020   4.853  16.673 -0.0248  0.2059  0.2851
17217TIP3    H173142   6.058   4.904  16.745 -1.8267 -0.1958  1.5745
17217TIP3    H273143   5.926   4.869  16.681 -0.3473 -0.9088 -1.1936
17218TIP3   OH273144   2.584   6.392   0.188  0.1340 -0.7277 -0.2295
17218TIP3    H173145   2.674   6.363   0.205  0.4316 -0.5416 -1.4179
17218TIP3    H273146   2.571   6.464   0.249  0.5408 -1.2232  0.4521
17219TIP3   OH273147   4.650   5.804  10.315  0.0757 -0.4453  0.2472
17219TIP3    H173148   4.745   5.802  10.328  0.2422  1.3486 -0.5519
17219TIP3    H273149   4.637   5.866  10.243 -1.6117 -1.6579 -0.5286
17220TIP3   OH273150   5.296   0.369  16.467  0.1289  0.2004 -0.2389
17220TIP3    H173151   5.298   0.284  16.423  1.1569  0.3338 -0.4590
17220TIP3    H273152   5.377   0.372  16.517 -0.2679  0.7328  0.3833
17221TIP3   OH273153   4.746   0.352   0.423  0.1721 -0.2967  0.1477
17221TIP3    H173154   4.687   0.315   0.489 -0.5944 -2.2294 -1.5642
17221TIP3    H273155   4.825   0.300   0.430  0.3137 -0.1056 -0.0484
17222TIP3   OH273156   0.288   4.381  10.554 -0.8037  0.4691  0.0194
17222TIP3    H173157   0.335   4.436  10.616 -0.0752 -0.5496  0.3644
17222TIP3    H273158   0.198   4.416  10.555 -0.5994  0.9765  1.0179
17223TIP3   OH273159   5.459   6.526  16.668  0.2185 -0.0581  0.3225
17223TIP3    H173160   5.503   6.475  16.600  1.6196  0.5282  0.7785
17223TIP3    H273161   5.430   6.605  16.622 -1.7330 -1.1057 -0.3275
17224TIP3   OH273162   5.514   5.745  11.980  0.8966 -0.1798 -0.0185
17224TIP3    H173163   5.561   5.810  12.034  0.1663  0.9575 -0.7301
17224TIP3    H273164   5.584   5.693  11.940  1.5844  1.5227 -1.1096
17225TIP3   OH273165   1.774   4.939   5.594  0.2922  0.4022 -0.1218
17225TIP3    H173166   1.764   4.874   5.664  0.4540  0.5429  0.0330
17225TIP3    H273167   1.863   4.973   5.606  0.5398 -0.0094 -0.7777
17226TIP3   OH273168   6.789   1.707  13.687  0.4626 -0.2033 -0.1333
17226TIP3    H173169   6.782   1.644  13.758 -0.3080  0.0203  0.0022
17226TIP3    H273170   6.769   1.656  13.608  0.8133 -0.3417 -0.1325
17227TIP3   OH273171   2.846   2.363  11.667 -0.1529  0.1451 -0.7228
17227TIP3    H173172   2.897   2.423  11.612 -2.0286  2.0304 -0.4855
17227TIP3    H273173   2.854   2.400  11.755  0.6948 -1.3815 -0.1439
17228TIP3   OH273174   1.893   5.489   4.450 -0.7118 -0.3759 -0.0711
17228TIP3    H173175   1.843   5.568   4.426 -1.3865 -0.9454 -0.5716
17228TIP3    H273176   1.881   5.430   4.375  1.4843 -0.1620 -0.6049
17229TIP3   OH273177   0.901   4.392  15.452 -0.4343 -0.1045 -0.2931
17229TIP3    H173178   0.895   4.444  15.372 -0.2152  0.7474  0.2325
17229TIP3    H273179   0.857   4.446  15.518  2.3128  0.7082  0.9055
17230TIP3   OH273180   5.219   6.143   1.002 -0.5358 -0.7531 -0.2255
17230TIP3    H173181   5.174   6.094   1.071 -0.7691 -0.4806 -0.1850
17230TIP3    H273182   5.249   6.223   1.045  0.4933 -1.1914 -0.1071
17231TIP3   OH273183   1.994   2.939   1.996 -0.0047  0.3888  0.3353
17231TIP3    H173184   1.966   2.931   2.087 -0.4644 -0.2895  0.1411
17231TIP3    H273185   1.915   2.918   1.945  0.5989 -0.6168 -0.2185
17232TIP3   OH273186   0.232   6.151  12.049 -0.4936  0.6002  0.1651
17232TIP3    H173187   0.255   6.058  12.043  0.6488  0.9496 -0.9219
17232TIP3    H273188   0.312   6.198  12.025 -1.1161  1.8692  0.5256
17233TIP3   OH273189   3.949   4.272  16.973 -0.9113 -0.7992  0.4996
17233TIP3    H173190   3.884   4.341  16.986 -0.6404 -0.6640  1.2086
17233TIP3    H273191   3.995   4.297  16.893  0.7939  1.1673  2.0376
17234TIP3   OH273192   5.121   2.664  14.216  0.0714  0.3768  0.1609
17234TIP3    H173193   5.201   2.711  14.193  1.1838 -1.0908  0.9532
17234TIP3    H273194   5.150   2.593  14.274 -2.0175  0.9551  2.0067
17235TIP3   OH273195   0.907   4.272   4.778 -0.1114  0.2234 -0.2890
17235TIP3    H173196   0.900   4.364   4.804  0.3179 -0.3343  1.8475
17235TIP3    H273197   1.000   4.253   4.783  0.1421  0.3855 -3.3631
17236TIP3   OH273198   5.117   2.317   4.582 -0.0968  0.0859  0.0199
17236TIP3    H173199   5.148   2.394   4.629 -0.6980 -0.7990  1.9079
17236TIP3    H273200   5.185   2.251   4.596  0.0586  0.0228 -0.9598
17237TIP3   OH273201   1.325   0.881   5.546 -0.1033 -0.6588 -0.4636
17237TIP3    H173202   1.296   0.950   5.487  1.3563 -1.4221 -2.1341
17237TIP3    H273203   1.310   0.800   5.497  0.9318 -1.3111  0.2755
17238TIP3   OH273204   3.614   6.304   2.248 -0.0935  0.2695 -0.2030
17238TIP3    H173205   3.534   6.312   2.195 -1.0069  0.0974  1.1414
17238TIP3    H273206   3.606   6.219   2.291  0.9871  0.0971 -0.3301
17239TIP3   OH273207   5.779   4.050   3.084 -0.5054 -0.2583  0.1636
17239TIP3    H173208   5.817   4.125   3.038  0.6414  0.0380  1.5328
17239TIP3    H273209   5.801   3.974   3.031  1.2706  0.0090  0.4949
17240TIP3   OH273210   5.225   5.401   4.189 -0.2793  0.2594  0.4771
17240TIP3    H173211   5.288   5.329   4.190  0.0368  0.5363  1.9670
17240TIP3    H273212   5.279   5.479   4.181 -0.6055  0.3612 -0.8296
17241TIP3   OH273213   5.364   5.523   6.076 -0.2449  1.0176  0.3164
17241TIP3    H173214   5.448   5.520   6.120 -1.0420 -0.4804  1.7698
17241TIP3    H273215   5.328   5.435   6.086 -2.2411  1.7992  0.2437
17242TIP3   OH273216   0.068   3.888  15.967 -0.1602 -0.1486 -0.2462
17242TIP3    H173217   0.142   3.901  16.025 -0.6686  0.0433  0.3629
17242TIP3    H273218   0.088   3.940  15.889  1.1262 -1.4412 -0.7953
17243TIP3   OH273219   0.123   2.634  13.310  0.2821 -0.0318  0.0872
17243TIP3    H173220   0.175   2.713  13.327 -0.3269  0.3989 -0.0578
17243TIP3    H273221   0.097   2.641  13.219 -1.2679  0.4821  0.5640
17244TIP3   OH273222   1.937   0.560   4.591 -0.4395  0.5184  0.0503
17244TIP3    H173223   1.850   0.581   4.558 -0.3734  0.2203 -0.3252
17244TIP3    H273224   1.981   0.645   4.597 -0.9836  0.7424  0.9250
17245TIP3   OH273225   6.418   2.655   5.971 -0.3234 -0.1732 -0.2216
17245TIP3    H173226   6.412   2.751   5.975  1.9707 -0.0668  1.6931
17245TIP3    H273227   6.330   2.625   5.995 -1.0908  1.4106 -0.9083
17246TIP3   OH273228   2.056   4.286  12.656 -0.6153 -0.2436  0.0940
17246TIP3    H173229   2.128   4.310  12.715 -0.0157 -2.0552  0.1160
17246TIP3    H273230   1.978   4.319  12.700  0.1284  1.2249  0.3538
17247TIP3   OH273231   3.234   2.844  11.175  0.3387 -0.6589  0.5932
17247TIP3    H173232   3.327   2.863  11.164 -0.3581  2.6147 -0.2503
17247TIP3    H273233   3.208   2.801  11.094  0.8677 -0.4725  0.3246
17248TIP3   OH273234   6.239   4.635   2.121 -0.3766 -0.6046  0.9875
17248TIP3    H173235   6.273   4.657   2.207 -1.0185 -1.0258  1.3531
17248TIP3    H273236   6.238   4.539   2.119 -1.5776 -0.6014  1.0082
17249TIP3   OH273237   5.017   0.541   1.801  0.5574  0.2128 -0.4445
17249TIP3    H173238   4.989   0.450   1.808  1.3203  0.0497  0.7718
17249TIP3    H273239   4.944   0.586   1.760 -1.0031 -0.4047  1.5978
17250TIP3   OH273240   5.291   2.778   1.632 -0.0597  0.2375 -0.3406
17250TIP3    H173241   5.341   2.744   1.706 -0.2765  2.3851  0.8015
17250TIP3    H273242   5.307   2.714   1.562  1.3159 -1.0374  1.0982
17251TIP3   OH273243   5.336   3.201  15.251 -0.0576  0.4027  0.4825
17251TIP3    H173244   5.247   3.221  15.221 -0.1574 -1.5444 -0.5980
17251TIP3    H273245   5.392   3.242  15.185 -0.1405  1.1317  0.8511
17252TIP3   OH273246   4.631   6.036   3.614 -0.2849 -0.3664 -0.5845
17252TIP3    H173247   4.564   6.037   3.682 -0.4869 -2.3257 -0.7345
17252TIP3    H273248   4.704   5.987   3.653  0.9074  1.3489 -0.5871
17253TIP3   OH273249   6.023   3.834   3.127  0.2060  0.7889  0.1423
17253TIP3    H173250   6.085   3.780   3.077 -2.0106 -2.9810  1.2614
17253TIP3    H273251   5.943   3.831   3.075 -0.1953  2.3181  0.6828
17254TIP3   OH273252   5.957   4.267   0.816 -0.8378 -0.1967  0.0938
17254TIP3    H173253   6.045   4.238   0.794 -0.9380 -0.4338  0.0083
17254TIP3    H273254   5.969   4.357   0.847 -0.4752 -0.4842  0.8033
17255TIP3   OH273255   6.578   3.408   6.000 -0.3470 -0.6248  0.0084
17255TIP3    H173256   6.666   3.442   6.018 -0.3515 -0.7339  0.2396
17255TIP3    H273257   6.532   3.416   6.084 -0.7856  0.1213 -0.2886
17256TIP3   OH273258   4.988   6.670  13.334  0.0303  0.5484 -0.2098
17256TIP3    H173259   4.936   6.621  13.398 -1.0493 -0.5895 -1.9052
17256TIP3    H273260   4.940   6.752  13.324  0.1150  0.6676  0.3178
17257TIP3   OH273261   1.226   2.763  17.262  0.6544 -0.1480  0.3940
17257TIP3    H173262   1.134   2.764  17.237  1.5907  1.3950 -3.3679
17257TIP3    H273263   1.241   2.847  17.304 -0.3150 -1.6948  4.0307
17258TIP3   OH273264   3.324   0.737  14.279  0.7630 -0.1456 -0.8270
17258TIP3    H173265   3.342   0.767  14.368 -2.2666  1.3361 -0.6294
17258TIP3    H273266   3.404   0.694  14.251  1.8161 -0.5133  2.5620
17259TIP3   OH273267   1.458   6.549   2.860 -0.1307  0.1432 -0.7247
17259TIP3    H173268   1.464   6.487   2.933 -1.3499  0.0153 -0.7191
17259TIP3    H273269   1.409   6.502   2.793 -2.1809  1.5334 -0.2352
17260TIP3   OH273270   1.352   2.789   5.741 -0.6761  0.0872  0.9636
17260TIP3    H173271   1.405   2.835   5.807  0.5530 -0.1064  0.1310
17260TIP3    H273272   1.267   2.776   5.783 -0.4582  1.5252  1.8595
17261TIP3   OH273273   5.413   1.000   2.222  0.3284  0.4234 -0.4457
17261TIP3    H173274   5.327   0.997   2.181  0.9137  1.9806 -1.8807
17261TIP3    H273275   5.415   1.086   2.265  0.1488 -0.7318  1.9343
17262TIP3   OH273276   1.515   3.698  12.990  0.0203 -0.3109  0.2783
17262TIP3    H173277   1.595   3.709  13.042 -1.1500  0.2255  2.0090
17262TIP3    H273278   1.463   3.636  13.041 -0.8377 -0.3549 -0.6472
17263TIP3   OH273279   4.746   2.672  13.231 -0.3379 -0.2603  0.2661
17263TIP3    H173280   4.722   2.606  13.297 -1.8745 -0.1831 -0.1926
17263TIP3    H273281   4.663   2.695  13.189  0.1405  2.1097  0.5370
17264TIP3   OH273282   5.931   2.259   4.456  0.0293 -0.4749  0.2041
17264TIP3    H173283   5.994   2.209   4.404 -0.9071 -0.4750 -0.9704
17264TIP3    H273284   5.903   2.198   4.524  1.0199 -0.5962  0.5084
17265TIP3   OH273285   6.348   1.435   0.167 -0.5683  0.1092  0.5990
17265TIP3    H173286   6.431   1.462   0.126 -0.8064 -1.2111 -0.7747
17265TIP3    H273287   6.350   1.478   0.253  0.7212  1.5457 -0.1014
17266TIP3   OH273288   3.334   1.215  13.169  0.2522  0.4543  0.4423
17266TIP3    H173289   3.310   1.230  13.261 -1.0474  1.0057  0.0310
17266TIP3    H273290   3.315   1.123  13.154 -1.3366  0.7960  0.2297
17267TIP3   OH273291   2.404   3.993  15.527  0.6031  0.1070 -0.0865
17267TIP3    H173292   2.417   3.975  15.620 -0.9074 -0.2902  0.0737
17267TIP3    H273293   2.358   4.077  15.525 -1.0152 -0.7480 -0.3504
17268TIP3   OH273294   4.319   6.254   0.804 -0.3982  0.3980  0.4408
17268TIP3    H173295   4.368   6.245   0.723 -1.1061 -0.4583  0.0988
17268TIP3    H273296   4.374   6.310   0.859  0.5023  0.2413 -0.2849
17269TIP3   OH273297   2.717   0.686  14.599 -0.7233  0.3318  0.1463
17269TIP3    H173298   2.716   0.703  14.505  1.7989 -0.1742 -0.0199
17269TIP3    H273299   2.775   0.611  14.609 -1.5738 -0.1007  2.0506
17270TIP3   OH273300   0.307   0.577   4.961  0.7840  0.1075 -0.3782
17270TIP3    H173301   0.393   0.617   4.973  0.1085  1.0344  1.6167
17270TIP3    H273302   0.292   0.528   5.042  0.3298 -1.7991 -1.5840
17271TIP3   OH273303   5.207   0.309  14.744 -0.6060  0.2974 -0.2456
17271TIP3    H173304   5.215   0.397  14.783  2.2745 -0.5902  1.3499
17271TIP3    H273305   5.114   0.300  14.724 -1.2933  2.9506  1.4387
17272TIP3   OH273306   0.391   0.012  11.719 -0.3335 -0.1430 -0.4175
17272TIP3    H173307   0.332   0.076  11.680 -2.8090 -2.0610  0.0244
17272TIP3    H273308   0.460   0.064  11.759 -2.3225  2.2440  0.0342
17273TIP3   OH273309   4.348   2.574   3.351 -0.5704  0.2813 -0.2571
17273TIP3    H173310   4.394   2.514   3.292 -1.6796 -2.0401  1.1936
17273TIP3    H273311   4.298   2.517   3.410 -2.8407  2.6552  0.2135
17274TIP3   OH273312   1.073   5.307   5.767 -0.1942 -0.4327  0.3837
17274TIP3    H173313   1.147   5.262   5.808  1.1151  2.2690  1.0835
17274TIP3    H273314   1.012   5.322   5.839 -0.3222 -0.4681  0.2817
17275TIP3   OH273315   2.030   3.296   4.400 -0.0816  0.1794  0.5504
17275TIP3    H173316   2.040   3.289   4.495  1.0639 -1.0625  0.3596
17275TIP3    H273317   1.996   3.384   4.385 -1.8884 -0.2035  2.2338
17276TIP3   OH273318   5.533   3.619  16.402 -0.2337 -0.0396  0.4061
17276TIP3    H173319   5.523   3.617  16.497  0.3818 -1.7070  0.4520
17276TIP3    H273320   5.455   3.576  16.368  1.0630 -2.3440  0.2966
17277TIP3   OH273321   6.447   5.551   3.402  0.0274  0.5481 -0.1297
17277TIP3    H173322   6.445   5.617   3.471  0.3318  1.1897 -0.7238
17277TIP3    H273323   6.522   5.575   3.348 -1.1785  1.0504 -1.6315
17278TIP3   OH273324   5.185   3.596  13.714  0.0773 -0.4510 -0.2977
17278TIP3    H173325   5.238   3.646  13.776 -0.2070  1.1164 -1.3077
17278TIP3    H273326   5.103   3.644  13.708 -0.1112 -0.9034 -1.4654
17279TIP3   OH273327   6.648   4.088   2.959 -0.5602  0.6396 -0.7616
17279TIP3    H173328   6.664   4.002   2.921 -0.4630  0.3987 -0.1722
17279TIP3    H273329   6.607   4.071   3.043 -0.3007  1.1586 -0.5243
17280TIP3   OH273330   4.623   5.794   2.646 -0.4530 -0.2017  0.0166
17280TIP3    H173331   4.677   5.868   2.674 -0.6442  0.5100 -1.4610
17280TIP3    H273332   4.533   5.820   2.667 -0.5053 -0.0714 -0.3635
17281TIP3   OH273333   4.589   5.461  16.180  0.0160  0.4213 -0.2279
17281TIP3    H173334   4.600   5.546  16.137 -0.4981  0.2920 -0.6208
17281TIP3    H273335   4.652   5.404  16.136 -0.9581  0.1285 -1.2497
17282TIP3   OH273336   0.850   4.738   4.002 -0.4533 -0.4594  0.7302
17282TIP3    H173337   0.874   4.716   3.912 -3.5298 -0.5806 -0.1425
17282TIP3    H273338   0.820   4.829   3.997  0.4676 -0.0947  1.8716
17283TIP3   OH273339   6.528   5.986  11.681  0.1759 -0.7633  0.1868
17283TIP3    H173340   6.601   6.046  11.699  0.3959 -0.6058 -1.1632
17283TIP3    H273341   6.475   6.032  11.615 -1.2533 -0.7932  1.2997
17284TIP3   OH273342   3.028   1.572   0.842  0.1586  0.1542  1.0725
17284TIP3    H173343   3.023   1.658   0.800  0.4405 -0.5656 -0.4987
17284TIP3    H273344   2.965   1.576   0.914 -1.4294  0.9453 -0.3341
17285TIP3   OH273345   0.484   1.823  13.550 -0.3128  0.5236 -0.3122
17285TIP3    H173346   0.481   1.734  13.516  1.3437  0.7031 -0.9711
17285TIP3    H273347   0.392   1.847  13.564 -0.7424 -1.4174  0.2499
17286TIP3   OH273348   6.084   6.483  17.249 -0.4608 -0.0848  0.5761
17286TIP3    H173349   6.021   6.529  17.194 -0.3852  0.2212  0.7442
17286TIP3    H273350   6.055   6.500  17.339 -0.2689 -0.1216  0.6463
17287TIP3   OH273351   1.977   5.836  12.149 -0.3311  0.0515  0.3325
17287TIP3    H173352   1.898   5.827  12.201  0.0171 -0.1022  0.8333
17287TIP3    H273353   2.021   5.751  12.156  0.0026  0.2163  0.2647
17288TIP3   OH273354   5.206   4.988   6.069  0.2116 -0.2986  0.3621
17288TIP3    H173355   5.187   4.926   5.999 -0.2503  0.1603  0.0796
17288TIP3    H273356   5.212   4.934   6.148  1.5763 -0.9248 -0.1455
17289TIP3   OH273357   4.220   3.697  17.215 -0.1611 -0.0431 -0.1402
17289TIP3    H173358   4.137   3.716  17.259 -1.0585 -0.7041 -1.5215
17289TIP3    H273359   4.197   3.690  17.122  1.7524  1.5963 -0.7671
17290TIP3   OH273360   5.794   0.835   2.800  0.2383 -0.0241  0.3613
17290TIP3    H173361   5.733   0.846   2.873 -0.4271 -0.9846 -0.0395
17290TIP3    H273362   5.881   0.844   2.839 -0.1620  3.9357  0.5243
17291TIP3   OH273363   0.797   0.298   1.452  0.4149  0.4379  0.3908
17291TIP3    H173364   0.703   0.316   1.449  0.4220  0.1841 -1.9513
17291TIP3    H273365   0.838   0.377   1.417  0.8340 -1.0659 -2.6226
17292TIP3   OH273366   3.704   0.095  16.819 -0.2605 -0.4263  0.0042
17292TIP3    H173367   3.634   0.054  16.769  0.7523 -0.0932 -1.7307
17292TIP3    H273368   3.659   0.149  16.885 -1.6095 -0.9523 -0.4762
17293TIP3   OH273369   3.564   3.487   3.245  0.9444 -0.1610 -0.2945
17293TIP3    H173370   3.514   3.407   3.264  0.5758  0.0805 -0.2287
17293TIP3    H273371   3.596   3.516   3.330  0.5493  0.1051 -0.2373
17294TIP3   OH273372   0.206   1.822  14.504  0.0368  0.0570  0.3280
17294TIP3    H173373   0.196   1.864  14.419 -0.3499  1.2848  0.9716
17294TIP3    H273374   0.133   1.760  14.509  1.8133 -2.2670 -1.5058
17295TIP3   OH273375   4.644   5.675   0.241  0.6407 -0.1618 -0.0466
17295TIP3    H173376   4.731   5.644   0.267  0.1558 -1.1804  0.3869
17295TIP3    H273377   4.589   5.660   0.318 -0.7183 -2.7888 -1.4273
17296TIP3   OH273378   1.276   0.448  12.311  0.2998  0.5927  0.0479
17296TIP3    H173379   1.196   0.499  12.325 -0.7894 -0.3604 -2.5109
17296TIP3    H273380   1.251   0.359  12.334  0.1953  0.0521 -2.0715
17297TIP3   OH273381   1.193   3.174  16.207 -0.0728  0.6520  0.0214
17297TIP3    H173382   1.259   3.137  16.267  0.5127 -1.9105 -2.1164
17297TIP3    H273383   1.109   3.155  16.249  0.4328  2.1376  1.7816
17298TIP3   OH273384   5.537   3.408  11.657  0.6549  0.1992  0.3699
17298TIP3    H173385   5.497   3.476  11.713  1.3955 -0.2578  1.4807
17298TIP3    H273386   5.564   3.340  11.719  1.1976 -0.4684 -0.5978
17299TIP3   OH273387   6.148   1.503  11.083 -0.1411  0.4218 -0.3779
17299TIP3    H173388   6.078   1.475  11.024  0.6341  0.4439 -1.3205
17299TIP3    H273389   6.217   1.438  11.071 -0.7051 -0.6379  1.9054
17300TIP3   OH273390   5.307   2.134  12.891 -0.4697 -0.8116  0.5047
17300TIP3    H173391   5.259   2.067  12.940  0.3155 -1.2674  0.6588
17300TIP3    H273392   5.242   2.173  12.832 -0.9018 -1.8015  0.3244
17301TIP3   OH273393   5.367   0.366   2.957 -0.2805 -0.2664  0.3847
17301TIP3    H173394   5.324   0.284   2.981 -0.1315 -0.0331  1.4992
17301TIP3    H273395   5.423   0.344   2.882  1.0472 -1.5766  1.7157
17302TIP3   OH273396   2.713   2.388   4.244  0.4221 -0.0815 -0.1835
17302TIP3    H173397   2.650   2.318   4.261  0.2411 -0.2632 -1.5557
17302TIP3    H273398   2.691   2.456   4.307 -1.3925  0.0115 -0.8869
17303TIP3   OH273399   5.756   1.160   4.973 -0.2467  0.0784 -0.2675
17303TIP3    H173400   5.711   1.157   4.889 -1.7816  0.1869  0.5350
17303TIP3    H273401   5.688   1.181   5.036  1.2831  2.3150  0.7105
17304TIP3   OH273402   2.964   4.704   5.150  0.4630 -0.0123 -0.0961
17304TIP3    H173403   2.879   4.684   5.111 -0.0379 -2.6901  2.1869
17304TIP3    H273404   2.958   4.796   5.176 -1.0116  0.3620 -1.6663
17305TIP3   OH273405   0.366   5.080   1.608 -0.5403 -0.0518  0.4748
17305TIP3    H173406   0.276   5.077   1.574 -0.8830  0.3176  1.3270
17305TIP3    H273407   0.420   5.098   1.531 -1.3441  1.1683  0.1849
17306TIP3   OH273408   0.670   4.323  11.065  0.1073  0.0895 -0.2761
17306TIP3    H173409   0.700   4.336  11.155  1.7259 -0.3887 -0.7338
17306TIP3    H273410   0.588   4.372  11.060  0.0015  0.1181  1.4591
17307TIP3   OH273411   5.236   2.497  17.241 -0.0952  0.7838 -0.1698
17307TIP3    H173412   5.318   2.483  17.288 -0.1983  0.9839  0.0670
17307TIP3    H273413   5.244   2.442  17.162 -0.6847 -1.0349  0.9964
17308TIP3   OH273414   2.804   6.231   3.956 -0.0008  0.7694  0.5455
17308TIP3    H173415   2.862   6.305   3.939  0.2228  0.3779 -0.4077
17308TIP3    H273416   2.768   6.208   3.870 -2.7131  1.9524  1.2968
17309TIP3   OH273417   3.563   2.672  12.538  0.3990 -0.2460 -0.4140
17309TIP3    H173418   3.570   2.755  12.490 -0.8196  0.2886  0.3237
17309TIP3    H273419   3.502   2.619  12.486 -1.1692  0.4506  0.6822
17310TIP3   OH273420   0.910   0.762   6.488 -0.0969 -0.1048 -0.1886
17310TIP3    H173421   0.863   0.706   6.427 -0.0539  0.3293 -0.6262
17310TIP3    H273422   1.000   0.727   6.488 -0.2345 -0.4606  0.0670
17311TIP3   OH273423   4.885   0.545  14.092  0.0384 -0.1717  0.5647
17311TIP3    H173424   4.872   0.611  14.024 -2.1094 -0.7727  0.3443
17311TIP3    H273425   4.903   0.595  14.172 -1.2272  0.6682  0.3279
17312TIP3   OH273426   0.916   0.654  12.172 -0.1692 -0.6850  0.2994
17312TIP3    H173427   0.939   0.740  12.136 -2.2932 -0.2044  0.0175
17312TIP3    H273428   0.961   0.652  12.257  0.2576  0.5310  0.1209
17313TIP3   OH273429   6.766   2.584  14.726  0.4318  0.4197 -0.1929
17313TIP3    H173430   6.840   2.639  14.701  0.1774  0.7449 -0.2288
17313TIP3    H273431   6.729   2.627  14.803  0.6897 -0.1126  0.2399
17314TIP3   OH273432   0.905   1.929   5.472  0.6291  0.5112 -0.7235
17314TIP3    H173433   0.909   1.833   5.474  0.1687  0.5067  0.1301
17314TIP3    H273434   0.825   1.949   5.425  0.6427  0.4733 -0.7631
17315TIP3   OH273435   0.809   4.092   3.811 -0.1085 -0.0685  0.7304
17315TIP3    H173436   0.871   4.047   3.753  0.8280  1.3064  0.6369
17315TIP3    H273437   0.726   4.047   3.796  0.6007 -1.1769 -0.0253
17316TIP3   OH273438   1.215   1.880  14.575  0.0326 -0.2504  0.1094
17316TIP3    H173439   1.271   1.860  14.499 -1.6244  0.0298 -1.2160
17316TIP3    H273440   1.127   1.853  14.548 -0.4654 -0.8195  2.2236
17317TIP3   OH273441   1.505   1.647   3.601 -0.6068 -0.0563  0.1929
17317TIP3    H173442   1.415   1.616   3.613  0.7204 -3.2416  2.3668
17317TIP3    H273443   1.544   1.586   3.538  0.6466  0.0396  0.8591
17318TIP3   OH273444   3.908   2.874  15.801 -0.0028  0.1771 -1.0546
17318TIP3    H173445   3.852   2.951  15.783  1.8664  1.7352 -0.3945
17318TIP3    H273446   3.941   2.848  15.716  1.1316  1.5255 -1.0481
17319TIP3   OH273447   4.070   3.554  15.921  0.2219 -0.2327  0.3354
17319TIP3    H173448   4.156   3.513  15.925 -0.5031 -1.7429  0.5532
17319TIP3    H273449   4.062   3.584  15.830 -0.6338 -3.6627 -0.7738
17320TIP3   OH273450   1.969   1.216  16.400  1.0648  0.2836 -0.0935
17320TIP3    H173451   1.967   1.190  16.492 -0.9835 -0.8817 -0.4402
17320TIP3    H273452   2.056   1.255  16.388  0.7912  1.8832  2.6981
17321TIP3   OH273453   6.377   5.308   5.449  0.0125  0.2840  0.2319
17321TIP3    H173454   6.464   5.347   5.448  0.6028 -1.0161  0.2664
17321TIP3    H273455   6.390   5.217   5.423 -1.5064  0.3907 -1.0138
17322TIP3   OH273456   1.813   1.083   1.448  0.3665  0.1701 -0.0798
17322TIP3    H173457   1.879   1.034   1.398  0.5874  1.7454 -1.3861
17322TIP3    H273458   1.778   1.146   1.385 -0.5573  1.0738  1.3174
17323TIP3   OH273459   3.915   2.244  14.195 -0.5561 -0.1333 -0.1370
17323TIP3    H173460   4.011   2.250  14.188 -0.6848 -0.1996 -2.2357
17323TIP3    H273461   3.884   2.329  14.165 -1.2545 -1.1377 -2.3528
17324TIP3   OH273462   2.172   5.954  10.600  0.2803  0.2232 -0.2034
17324TIP3    H173463   2.154   5.960  10.694 -0.5756  0.1025 -0.3542
17324TIP3    H273464   2.139   5.867  10.576 -0.5167  0.6971 -0.8326
17325TIP3   OH273465   1.729   3.436  12.923  0.1351 -0.0785  0.1448
17325TIP3    H173466   1.766   3.423  13.011 -1.2562  0.6495  0.8589
17325TIP3    H273467   1.741   3.529  12.906 -0.7021  0.0169  0.0737
17326TIP3   OH273468   5.045   0.936  15.192 -0.2616 -0.0729  0.4467
17326TIP3    H173469   4.995   0.964  15.115 -1.4622  0.0854  1.2649
17326TIP3    H273470   5.075   1.018  15.232 -1.5788 -0.0503  1.4073
17327TIP3   OH273471   3.928   1.006  16.388 -0.1177 -0.3106 -0.2882
17327TIP3    H173472   3.936   0.913  16.409  1.0236  0.0308  0.9064
17327TIP3    H273473   4.016   1.041  16.402 -0.8292  1.1943  0.5261
17328TIP3   OH273474   6.419   1.367   0.498 -0.3419  0.2870  0.2087
17328TIP3    H173475   6.332   1.339   0.525 -1.1033 -2.5581 -4.5615
17328TIP3    H273476   6.405   1.450   0.452 -0.5785 -0.2769 -0.7420
17329TIP3   OH273477   5.068   4.329  12.096 -0.0173 -0.2878  0.0664
17329TIP3    H173478   5.121   4.408  12.085  1.5165 -1.3239 -0.2268
17329TIP3    H273479   5.022   4.319  12.013 -0.7622  0.6912  0.3642
17330TIP3   OH273480   2.100   3.073   4.091  0.2772 -0.3710  0.0080
17330TIP3    H173481   2.126   3.165   4.090 -1.1673  0.0675  1.3339
17330TIP3    H273482   2.146   3.035   4.166 -0.0623 -0.4472  0.1791
17331TIP3   OH273483   2.440   0.038  16.035  0.4334 -0.1050  0.0667
17331TIP3    H173484   2.460   0.113  15.978  0.0002  0.6310  0.8561
17331TIP3    H273485   2.364   0.068  16.086 -0.9781 -1.8255 -0.9867
17332TIP3   OH273486   3.269   4.438  15.528  0.8163 -0.3202 -0.0165
17332TIP3    H173487   3.361   4.431  15.553  1.0580  1.1843 -0.4586
17332TIP3    H273488   3.224   4.466  15.608  1.2167  1.9999 -0.5722
17333TIP3   OH273489   0.776   1.660   4.646 -0.8283  0.2696  0.3606
17333TIP3    H173490   0.698   1.614   4.678 -1.2278  0.4482 -0.3316
17333TIP3    H273491   0.822   1.595   4.593 -1.5740  0.7455 -0.9052
17334TIP3   OH273492   2.914   4.736  16.819 -0.3093 -0.5834  0.3998
17334TIP3    H173493   2.905   4.677  16.744  0.3804  0.2234 -0.3361
17334TIP3    H273494   3.000   4.715  16.855 -0.7764 -1.1940  1.1649
17335TIP3   OH273495   2.974   6.165  16.154  0.0567 -0.2188  0.5615
17335TIP3    H173496   3.042   6.167  16.086 -1.2201 -1.7394 -0.7812
17335TIP3    H273497   2.892   6.174  16.106 -0.8376 -0.8975  1.9444
17336TIP3   OH273498   5.154   1.747   5.206 -0.4716 -0.4279 -0.3821
17336TIP3    H173499   5.131   1.798   5.284 -1.4409 -0.0446 -0.8993
17336TIP3    H273500   5.103   1.788   5.136  0.0041 -1.0882 -1.1145
17337TIP3   OH273501   4.991   6.614   2.086 -0.6936  0.1012 -0.0885
17337TIP3    H173502   4.906   6.625   2.042 -0.9632  0.2136  0.4490
17337TIP3    H273503   4.998   6.520   2.101 -1.6124  0.2855  1.5845
17338TIP3   OH273504   1.223   3.800  14.777 -0.0113  0.1927  0.0110
17338TIP3    H173505   1.237   3.894  14.778 -1.2796  0.3966  1.1620
17338TIP3    H273506   1.308   3.762  14.755  0.5399  1.5988 -0.2729
17339TIP3   OH273507   0.114   0.293  14.354 -0.0274 -0.3208  0.3265
17339TIP3    H173508   0.172   0.368  14.353 -0.7840  0.2617 -0.2418
17339TIP3    H273509   0.169   0.220  14.384  0.7883  0.3804  0.5367
17340TIP3   OH273510   3.661   2.408   0.960  0.2566 -0.1363 -0.3359
17340TIP3    H173511   3.739   2.446   1.001  0.6253 -1.6928  0.4201
17340TIP3    H273512   3.598   2.398   1.031  0.9552 -2.9908 -0.0431
17341TIP3   OH273513   0.566   0.898   0.072  0.3364  0.4339 -0.2576
17341TIP3    H173514   0.519   0.859   0.145  1.8429 -0.4324  0.2670
17341TIP3    H273515   0.632   0.833   0.048  0.3780  1.0495 -1.8632
17342TIP3   OH273516   5.716   2.302   1.293 -0.1902  0.5391 -0.3302
17342TIP3    H173517   5.637   2.310   1.239 -0.5815  0.6507  0.2449
17342TIP3    H273518   5.733   2.392   1.322 -1.3128  0.1640  1.5736
17343TIP3   OH273519   6.041   6.244  11.196 -0.1097 -0.3621  0.6633
17343TIP3    H173520   6.050   6.305  11.122 -1.4705  0.8954  1.5180
17343TIP3    H273521   6.129   6.208  11.207  0.3191  0.1006 -0.9950
17344TIP3   OH273522   5.562   6.415   4.065  0.8596  0.0501  0.1082
17344TIP3    H173523   5.594   6.346   4.123 -0.5134 -0.1843  0.6022
17344TIP3    H273524   5.562   6.375   3.978  0.3676 -0.4838  0.3469
17345TIP3   OH273525   5.961   0.002   6.099 -0.0433 -0.5267 -0.1922
17345TIP3    H173526   6.049  -0.034   6.110  0.4122 -0.0548 -2.0982
17345TIP3    H273527   5.972   0.071   6.034 -2.2132 -2.0638 -2.2712
17346TIP3   OH273528   6.024   3.267   4.898  0.4498  0.3339  0.3134
17346TIP3    H173529   6.026   3.175   4.873 -1.6966  0.3833 -0.1000
17346TIP3    H273530   6.000   3.313   4.818  1.0359  1.2220  0.6353
17347TIP3   OH273531   0.495   6.268   2.518  0.0421  0.2874 -0.0903
17347TIP3    H173532   0.557   6.335   2.545  0.6745  0.3607 -1.6602
17347TIP3    H273533   0.454   6.303   2.439 -0.6747 -0.5519 -0.1059
17348TIP3   OH273534   2.818   5.055  15.300  0.0219  0.2022 -0.3640
17348TIP3    H173535   2.898   5.055  15.352  1.1250  2.6281 -1.9256
17348TIP3    H273536   2.793   4.963  15.294  0.9014 -0.2948  2.8117
17349TIP3   OH273537   5.303   0.795   4.295 -0.3131 -0.1888 -0.1875
17349TIP3    H173538   5.319   0.823   4.205  0.0848  0.6772  0.1483
17349TIP3    H273539   5.371   0.730   4.312 -0.3559 -0.3136 -0.4994
17350TIP3   OH273540   1.253   0.329  11.205  0.3084  0.1047  0.2252
17350TIP3    H173541   1.347   0.343  11.214  0.6002 -0.5893 -1.5465
17350TIP3    H273542   1.243   0.282  11.122 -1.6192  0.4024  0.2571
17351TIP3   OH273543   6.715   2.438   3.351 -0.1247 -0.2492  0.3633
17351TIP3    H173544   6.623   2.411   3.354  0.1758 -1.2133  1.4383
17351TIP3    H273545   6.755   2.380   3.287 -1.0626  2.8669 -3.2575
17352TIP3   OH273546   1.161   6.313   5.468  0.1030 -0.1335  0.0288
17352TIP3    H173547   1.150   6.325   5.373  1.3813 -1.3441 -0.2907
17352TIP3    H273548   1.217   6.235   5.476 -0.4868 -0.4001  1.7956
17353TIP3   OH273549   5.951   5.590   3.897  0.0696 -0.3364 -0.1519
17353TIP3    H173550   5.862   5.624   3.908 -0.6259 -1.6471 -1.5666
17353TIP3    H273551   5.978   5.565   3.985 -0.3945  1.4073  0.5059
17354TIP3   OH273552   4.188   6.210   5.226 -0.2871  0.6434 -0.2579
17354TIP3    H173553   4.099   6.176   5.227 -0.6713  1.6288  0.0266
17354TIP3    H273554   4.207   6.232   5.317  0.8847 -1.1553 -0.0462
17355TIP3   OH273555   0.660   1.850   1.543  0.0338  0.1295 -0.1538
17355TIP3    H173556   0.703   1.781   1.492  0.9939  0.5525  0.0867
17355TIP3    H273557   0.570   1.849   1.511  0.5171  0.0975 -1.5634
17356TIP3   OH273558   2.527   3.416  11.144  0.0635 -0.0351  0.1855
17356TIP3    H173559   2.596   3.481  11.127  0.6944 -0.4119  1.2993
17356TIP3    H273560   2.464   3.461  11.200  0.0281 -0.0859  0.1868
17357TIP3   OH273561   2.917   6.535  12.636 -0.0490 -0.1513 -0.3523
17357TIP3    H173562   2.964   6.452  12.640 -0.2249 -0.1931  1.4169
17357TIP3    H273563   2.841   6.522  12.693 -1.4536  0.3799 -2.0693
17358TIP3   OH273564   1.860   3.364  16.625 -0.4290  0.4328 -0.5071
17358TIP3    H173565   1.859   3.375  16.720 -0.2371  2.2301 -0.7057
17358TIP3    H273566   1.920   3.432  16.593  0.9238 -1.2820 -1.7791
17359TIP3   OH273567   2.986   6.798  14.693  0.1585 -0.1858 -0.0915
17359TIP3    H173568   2.973   6.761  14.606 -0.5399  1.2189 -0.6037
17359TIP3    H273569   2.986   6.723  14.752  0.9020 -1.1781 -1.3256
17360TIP3   OH273570   3.103   1.919   2.367 -0.0976  0.7244 -0.2772
17360TIP3    H173571   3.146   1.853   2.421 -0.7528  0.1341 -0.4726
17360TIP3    H273572   3.141   1.907   2.280  1.2662  1.9529  0.1314
17361TIP3   OH273573   5.525   0.366  16.590  0.6189  0.0492 -0.6938
17361TIP3    H173574   5.522   0.454  16.626 -1.1330 -0.3318  0.1913
17361TIP3    H273575   5.592   0.321  16.641  0.1384  0.3193  0.1847
17362TIP3   OH273576   4.866   1.965   3.223 -0.3374  0.2061 -0.0408
17362TIP3    H173577   4.961   1.973   3.216 -0.2526 -0.2088  0.5518
17362TIP3    H273578   4.831   2.012   3.147  0.3572 -0.0075 -0.4931
17363TIP3   OH273579   4.081   6.396   5.951  0.4705  0.3781 -0.3580
17363TIP3    H173580   4.003   6.357   5.913 -1.3131  1.3227  2.2309
17363TIP3    H273581   4.130   6.322   5.988  0.2155 -0.0808 -0.9547
17364TIP3   OH273582   3.077   4.620   3.139 -0.3427  0.1830  0.0614
17364TIP3    H173583   3.153   4.580   3.183 -0.8063 -1.0136 -0.2067
17364TIP3    H273584   3.001   4.578   3.180 -0.8270  0.4938 -0.5196
17365TIP3   OH273585   3.825   2.919  15.367  0.0734 -0.2072 -0.1082
17365TIP3    H173586   3.871   2.997  15.337  0.4866  0.0784  1.2192
17365TIP3    H273587   3.735   2.949  15.382  0.3144  0.1194  0.7437
17366TIP3   OH273588   5.660   1.900   2.767 -0.1018 -0.3385  0.0354
17366TIP3    H173589   5.621   1.941   2.844 -1.1894 -2.0894  0.4574
17366TIP3    H273590   5.691   1.973   2.714  0.8253  0.8800  2.2035
17367TIP3   OH273591   0.638   4.510   5.429 -0.2095  0.7661 -0.3470
17367TIP3    H173592   0.668   4.433   5.379  0.4460 -0.1671  1.4475
17367TIP3    H273593   0.621   4.576   5.362 -2.8794 -1.5907 -2.1344
17368TIP3   OH273594   0.074   6.073   6.190 -0.1082 -0.0378  0.6657
17368TIP3    H173595   0.080   6.138   6.261 -0.4482 -0.0984  0.7476
17368TIP3    H273596   0.111   5.993   6.228  0.3620  0.1220  0.5474
17369TIP3   OH273597   1.186   0.397  14.622  0.1065 -0.2688 -0.2709
17369TIP3    H173598   1.279   0.381  14.637  0.1435  0.5410  0.3825
17369TIP3    H273599   1.141   0.334  14.678  0.2443  2.4257  3.0540
17370TIP3   OH273600   1.939   5.585  13.341  0.4365 -0.5416  0.2658
17370TIP3    H173601   2.010   5.532  13.304  1.7901  2.1180 -1.0735
17370TIP3    H273602   1.954   5.581  13.435  1.0853 -1.7572  0.1320
17371TIP3   OH273603   1.302   5.282   2.472  0.2975  0.1706  0.0149
17371TIP3    H173604   1.392   5.252   2.477  0.0823 -0.6977 -1.1039
17371TIP3    H273605   1.309   5.377   2.458  1.0627 -0.0650 -1.2912
17372TIP3   OH273606   5.450   4.396   1.216 -0.1004  0.0529  0.4717
17372TIP3    H173607   5.459   4.311   1.173  0.4861  0.5982 -0.5292
17372TIP3    H273608   5.356   4.414   1.214 -0.3000 -0.8695  1.2972
17373TIP3   OH273609   6.587   3.125  10.863 -0.3342  0.1002  0.3418
17373TIP3    H173610   6.543   3.142  10.946 -1.3973 -1.3061  0.0742
17373TIP3    H273611   6.517   3.128  10.797  0.5111  1.2868 -0.5234
17374TIP3   OH273612   0.979   0.753   2.402  0.4658  0.2066 -0.0209
17374TIP3    H173613   0.894   0.711   2.386  1.0482 -0.7438 -0.6611
17374TIP3    H273614   0.978   0.830   2.344  0.2257 -0.0429 -0.3519
17375TIP3   OH273615   1.993   6.114   4.572 -0.7011 -0.2935  0.3910
17375TIP3    H173616   2.035   6.166   4.503 -0.9762 -0.5162  0.0489
17375TIP3    H273617   1.997   6.169   4.650 -0.5008  0.0166  0.1630
17376TIP3   OH273618   2.778   1.249   4.884  0.1900  0.3290 -0.3671
17376TIP3    H173619   2.837   1.204   4.824 -0.4671  0.0446 -0.8029
17376TIP3    H273620   2.704   1.276   4.830 -1.3426 -1.6220  0.6360
17377TIP3   OH273621   1.454   3.244   2.924 -0.2441  0.0967  0.5750
17377TIP3    H173622   1.539   3.262   2.884  1.0848 -0.3579  3.0899
17377TIP3    H273623   1.449   3.304   2.998 -1.5517 -0.7763  1.2132
17378TIP3   OH273624   5.157   0.522  16.114  0.4249 -0.2007 -0.1054
17378TIP3    H173625   5.225   0.458  16.095  0.3835 -0.0684 -0.7283
17378TIP3    H273626   5.075   0.476  16.093  0.4665  0.5377 -2.0392
17379TIP3   OH273627   4.022   3.176   0.111 -0.2192  0.7845  0.2263
17379TIP3    H173628   4.106   3.154   0.150 -0.3040  0.9743  0.5130
17379TIP3    H273629   3.961   3.111   0.145  0.7501 -2.4249 -3.7209
17380TIP3   OH273630   6.667   1.443   5.928  0.3715 -0.0390  0.3117
17380TIP3    H173631   6.668   1.347   5.928 -0.6474 -0.0644  0.6622
17380TIP3    H273632   6.740   1.468   5.871  0.8704 -1.0164  0.5015
17381TIP3   OH273633   1.451   5.260  16.494 -0.1003  0.4046 -0.6442
17381TIP3    H173634   1.496   5.219  16.420  0.1808  0.4083 -0.4792
17381TIP3    H273635   1.473   5.353  16.486 -0.2662  0.4385 -0.6966
17382TIP3   OH273636   4.007   3.435   5.762  0.1965 -0.2225 -0.3865
17382TIP3    H173637   3.945   3.404   5.828 -0.5692  0.3642 -0.8203
17382TIP3    H273638   3.966   3.412   5.678  1.7911 -2.1785 -0.6709
17383TIP3   OH273639   4.619   3.598   3.806  0.3179  0.5060 -0.2750
17383TIP3    H173640   4.546   3.660   3.805 -0.3506 -0.2342  1.1665
17383TIP3    H273641   4.697   3.652   3.792 -0.3084  1.6160  0.4295
17384TIP3   OH273642   6.061   6.007   1.525  0.0444 -0.6197  0.4168
17384TIP3    H173643   6.060   6.006   1.429  0.1068 -0.8678  0.4175
17384TIP3    H273644   6.050   5.915   1.549  0.7087 -0.6416  0.6422
17385TIP3   OH273645   2.583   6.376   1.655  0.0317 -0.6726 -0.2686
17385TIP3    H173646   2.505   6.338   1.696 -0.0076 -0.4212 -0.1118
17385TIP3    H273647   2.606   6.450   1.710 -0.0938 -0.2585 -0.7624
17386TIP3   OH273648   6.174   5.259  10.613 -0.2184  0.3831 -0.7956
17386TIP3    H173649   6.119   5.302  10.678 -0.8092 -0.5158 -0.6945
17386TIP3    H273650   6.122   5.184  10.583  2.1519 -2.2782  1.5456
17387TIP3   OH273651   4.605   2.392   5.911 -0.1858 -0.2798  0.8088
17387TIP3    H173652   4.688   2.439   5.904  0.4814 -1.4506  0.7524
17387TIP3    H273653   4.600   2.364   6.002 -0.3779 -0.4641  0.7436
17388TIP3   OH273654   2.422   5.634  15.705 -0.3453 -0.1522  0.5698
17388TIP3    H173655   2.513   5.664  15.708 -0.1922 -0.6831  1.5076
17388TIP3    H273656   2.420   5.556  15.760 -1.2298 -0.5476 -0.0008
17389TIP3   OH273657   1.354   5.718   5.538 -0.3852 -0.6000  0.0915
17389TIP3    H173658   1.392   5.723   5.625 -2.2033  0.8602  0.8288
17389TIP3    H273659   1.408   5.776   5.484  1.2413 -2.1368  0.0277
17390TIP3   OH273660   2.705   4.196   5.266 -0.1711  0.3526 -0.5387
17390TIP3    H173661   2.758   4.150   5.200 -1.7033 -0.8217 -0.9594
17390TIP3    H273662   2.617   4.162   5.254 -1.2257  2.9079 -0.4030
17391TIP3   OH273663   4.755   4.963  13.395  0.0234  0.4149 -0.1926
17391TIP3    H173664   4.768   4.884  13.342  0.3211  0.7784 -0.6653
17391TIP3    H273665   4.685   4.940  13.456 -0.3922  0.0311 -0.8196
17392TIP3   OH273666   2.387   0.520   1.458 -0.2658 -0.1342 -0.5021
17392TIP3    H173667   2.296   0.491   1.465  0.0867 -1.2941 -0.5893
17392TIP3    H273668   2.438   0.439   1.458  0.7870  0.5153 -0.1986
17393TIP3   OH273669   1.079   0.649  11.431  0.3958  0.2144  0.3956
17393TIP3    H173670   1.050   0.570  11.386  0.3248 -0.4249  1.5411
17393TIP3    H273671   1.140   0.690  11.370  0.0579 -0.4638 -0.4115
17394TIP3   OH273672   6.549   1.891  11.087 -0.0410  0.2046 -0.5557
17394TIP3    H173673   6.581   1.980  11.070  1.4929 -0.0867  0.6516
17394TIP3    H273674   6.585   1.839  11.015  0.3316  0.2869 -0.4291
17395TIP3   OH273675   4.961   4.605  10.583  0.1955 -0.1497  0.4064
17395TIP3    H173676   4.886   4.551  10.555 -0.0677  1.4576 -2.1792
17395TIP3    H273677   4.922   4.678  10.631  0.2417 -0.2020  0.5231
17396TIP3   OH273678   2.767   1.412  16.684 -0.2491 -0.0353 -0.6232
17396TIP3    H173679   2.780   1.335  16.739 -0.5693 -1.2404 -2.1705
17396TIP3    H273680   2.827   1.478  16.718 -0.4081 -0.7731  1.1035
17397TIP3   OH273681   0.648   6.477   0.453  0.2709 -0.1716  0.2366
17397TIP3    H173682   0.553   6.473   0.438  0.7672 -0.0123 -3.3776
17397TIP3    H273683   0.686   6.481   0.366  3.6013  1.0710  1.6525
17398TIP3   OH273684   3.645   4.280   5.496  0.0623  0.2727 -0.1739
17398TIP3    H173685   3.619   4.343   5.429  2.2699  1.4514  0.0150
17398TIP3    H273686   3.738   4.299   5.511 -0.1216 -0.7094  2.3996
17399TIP3   OH273687   1.968   2.749  12.868  0.0674 -0.5949 -0.3181
17399TIP3    H173688   1.954   2.839  12.896 -0.8787 -0.5273 -1.0115
17399TIP3    H273689   1.908   2.736  12.795 -0.2111 -1.9650  0.1283
17400TIP3   OH273690   6.181   4.240  11.930  0.5911 -0.1028 -0.3016
17400TIP3    H173691   6.166   4.259  11.838 -0.3045  1.5885  0.1778
17400TIP3    H273692   6.170   4.324  11.975  1.7617 -0.7350  1.2640
17401TIP3   OH273693   3.705   2.861  11.900 -0.4266  0.5452  0.0172
17401TIP3    H173694   3.614   2.885  11.916 -0.4363  0.3268  0.2817
17401TIP3    H273695   3.713   2.772  11.934 -0.2978  0.3043 -0.6316
17402TIP3   OH273696   6.099   5.080   3.605 -0.0239 -0.2592 -0.3655
17402TIP3    H173697   6.151   5.154   3.575 -1.1047  1.4179  1.7271
17402TIP3    H273698   6.128   5.064   3.695 -1.6304 -0.6570  0.1068
17403TIP3   OH273699   2.983   0.795  15.196  0.3077  0.3258  0.1997
17403TIP3    H173700   2.931   0.875  15.207  0.5285  0.7057 -1.3999
17403TIP3    H273701   2.934   0.743  15.132 -0.4641 -1.3869  2.1285
17404TIP3   OH273702   2.849   4.208   5.512  0.5990 -0.4009  0.1162
17404TIP3    H173703   2.942   4.186   5.499  0.8866  1.4112 -1.0487
17404TIP3    H273704   2.816   4.224   5.424 -0.7042 -0.4826  0.5831
17405TIP3   OH273705   5.679   0.093   4.861 -0.8277 -0.3315 -0.2685
17405TIP3    H173706   5.648   0.114   4.773  1.6559 -1.9281 -1.5672
17405TIP3    H273707   5.644   0.006   4.879 -0.8122 -0.2685  0.0667
17406TIP3   OH273708   2.071   3.545  16.588 -0.0503 -0.4359  0.6243
17406TIP3    H173709   2.100   3.551  16.497  0.5778 -0.4198  0.8271
17406TIP3    H273710   2.148   3.515  16.636 -0.3927 -0.4815  1.1483
17407TIP3   OH273711   3.771   4.869   2.031 -0.1206 -0.1484  0.2389
17407TIP3    H173712   3.731   4.802   1.976 -1.0637  1.9714 -1.7362
17407TIP3    H273713   3.700   4.899   2.088  0.6235 -1.6891  2.0317
17408TIP3   OH273714   6.423   3.076  12.514 -0.0293 -0.4722 -0.1641
17408TIP3    H173715   6.479   3.040  12.583 -1.1133 -0.3067  0.8231
17408TIP3    H273716   6.407   3.166  12.541  0.7044  0.0350 -1.3839
17409TIP3   OH273717   2.488   2.756   4.680 -0.3770 -0.3061 -0.0196
17409TIP3    H173718   2.516   2.785   4.767 -1.8905  0.8678  0.0898
17409TIP3    H273719   2.400   2.721   4.693 -0.1184 -1.2920 -0.8659
17410TIP3   OH273720   0.869   3.988  10.962 -0.1780 -0.8854  0.3127
17410TIP3    H173721   0.791   3.934  10.973 -1.2037  1.1737  4.2641
17410TIP3    H273722   0.942   3.928  10.977 -1.1908 -1.9096  1.2988
17411TIP3   OH273723   0.948   3.442  14.046 -0.1938  0.3898 -0.0213
17411TIP3    H173724   0.866   3.393  14.053  0.7458 -1.3387 -0.7617
17411TIP3    H273725   0.992   3.428  14.130  0.2372 -0.3359 -0.3672
17412TIP3   OH273726   6.245   3.773  14.719 -0.1432 -0.3635 -0.2288
17412TIP3    H173727   6.185   3.819  14.661  1.2309  1.0826 -0.5207
17412TIP3    H273728   6.206   3.783  14.806 -0.3006  0.5884 -0.4068
17413TIP3   OH273729   6.586   3.996  14.036 -0.9233 -0.1521 -0.8053
17413TIP3    H173730   6.595   3.963  13.947  0.7688 -0.5616 -0.4991
17413TIP3    H273731   6.582   3.916  14.090  2.0804  0.0731 -0.1599
17414TIP3   OH273732   5.264   3.903   2.012 -0.3557  0.0389  0.3752
17414TIP3    H173733   5.320   3.835   1.975 -0.4093  1.0291 -1.6072
17414TIP3    H273734   5.176   3.880   1.980 -0.4503  0.7426  0.1300
17415TIP3   OH273735   4.353   2.458  12.972  0.2558  0.2244 -0.1546
17415TIP3    H173736   4.389   2.378  12.934 -1.4257 -0.5286 -0.2444
17415TIP3    H273737   4.329   2.512  12.897  0.5252  0.4046 -0.1087
17416TIP3   OH273738   6.221   6.665   0.628  0.5935 -0.3699 -0.4161
17416TIP3    H173739   6.310   6.644   0.657 -0.8214 -0.4402  4.3593
17416TIP3    H273740   6.221   6.760   0.615  1.1817 -0.2472  0.4386
17417TIP3   OH273741   0.880   2.867  16.197  0.5539  0.4050  1.3637
17417TIP3    H173742   0.830   2.941  16.164  1.3884 -0.0787 -1.1062
17417TIP3    H273743   0.960   2.866  16.144  0.5549 -2.2353  1.3181
17418TIP3   OH273744   4.058   6.120  16.430  0.1561 -0.5671  0.0126
17418TIP3    H173745   4.090   6.034  16.458  0.7557 -0.6079 -0.7945
17418TIP3    H273746   4.137   6.167  16.402 -0.5941 -1.0580 -3.0827
17419TIP3   OH273747   4.293   0.550  11.350 -0.3398  0.2057  0.7121
17419TIP3    H173748   4.222   0.489  11.331 -0.7627  0.6271  0.9303
17419TIP3    H273749   4.290   0.563  11.445 -0.8556  1.2815  0.5658
17420TIP3   OH273750   5.926   0.972  15.549  0.0246 -0.2872 -0.4542
17420TIP3    H173751   5.932   1.044  15.487 -0.0894 -0.9134 -1.1997
17420TIP3    H273752   5.955   0.895  15.499 -2.4397 -1.2364 -0.4791
17421TIP3   OH273753   3.024   6.313  16.792  0.6556  0.3107 -0.3475
17421TIP3    H173754   2.979   6.358  16.864  0.8061 -0.0913  0.0036
17421TIP3    H273755   3.110   6.291  16.828  0.1091 -1.4235 -0.0677
17422TIP3   OH273756   1.785   0.793  17.137 -0.5975 -0.0717  0.0664
17422TIP3    H173757   1.722   0.836  17.194 -3.1339 -0.6043 -2.2446
17422TIP3    H273758   1.820   0.721  17.190 -0.8833  1.0735  1.8419
17423TIP3   OH273759   1.262   1.347  10.513 -0.2550  0.0012  0.2268
17423TIP3    H173760   1.240   1.439  10.499  1.2778  0.2796 -0.4266
17423TIP3    H273761   1.177   1.303  10.520 -1.0038  1.3559 -0.1542
17424TIP3   OH273762   1.414   6.762  16.958 -0.0215  0.2957 -0.7185
17424TIP3    H173763   1.329   6.802  16.935 -0.4628  0.4751  1.1703
17424TIP3    H273764   1.449   6.732  16.874 -2.3067 -0.4636 -1.4519
17425TIP3   OH273765   4.523   2.294  17.166 -0.1742  0.6052 -0.2317
17425TIP3    H173766   4.478   2.327  17.244  0.4860  0.2481  0.3064
17425TIP3    H273767   4.615   2.293  17.190  0.2373  2.1599 -1.6264
17426TIP3   OH273768   2.320   0.401  13.616 -0.3555  0.1184 -0.1509
17426TIP3    H173769   2.260   0.366  13.682  0.0365  1.6133  1.0286
17426TIP3    H273770   2.382   0.455  13.666  0.6237  0.3702 -1.6116
17427TIP3   OH273771   0.510   4.278  15.018 -0.1430  0.6795  0.0871
17427TIP3    H173772   0.473   4.299  15.104  1.3555  2.0077  0.4415
17427TIP3    H273773   0.595   4.239  15.037 -1.4048 -2.6335 -0.7068
17428TIP3   OH273774   2.647   0.261   1.710 -0.9943  0.8034  0.1406
17428TIP3    H173775   2.631   0.354   1.729 -1.3756  0.6791  0.4315
17428TIP3    H273776   2.719   0.262   1.647 -0.6092  1.2757  0.5779
17429TIP3   OH273777   3.161   0.898  16.557 -0.3673  0.5816 -0.4085
17429TIP3    H173778   3.081   0.856  16.588 -0.7828  0.7719 -1.1946
17429TIP3    H273779   3.201   0.936  16.635  1.4810 -3.6294  0.8837
17430TIP3   OH273780   1.892   0.744   5.130  0.2964 -0.7235  0.4644
17430TIP3    H173781   1.876   0.759   5.223 -0.5555 -0.2199  0.2496
17430TIP3    H273782   1.983   0.769   5.116 -0.0903  0.9271  0.8180
17431TIP3   OH273783   6.099   5.973   1.940  0.5581 -0.1948  0.1151
17431TIP3    H173784   6.176   6.008   1.987  0.2728  0.6175 -0.0070
17431TIP3    H273785   6.026   5.991   1.999  0.0228  1.9715 -1.1685
17432TIP3   OH273786   0.969   2.817   5.201  0.0818  0.0315 -0.0853
17432TIP3    H173787   1.026   2.891   5.182 -0.2172  0.1081 -0.7214
17432TIP3    H273788   0.880   2.850   5.184 -0.1696 -0.0121  1.1422
17433TIP3   OH273789   0.003   5.472   6.365 -0.0066  0.5360  0.0784
17433TIP3    H173790   0.077   5.411   6.363 -2.1591 -2.1218 -0.5553
17433TIP3    H273791  -0.022   5.477   6.457  0.2078  0.5478  0.1377
17434TIP3   OH273792   2.157   0.319   5.727 -0.3810  0.0263  0.0891
17434TIP3    H173793   2.079   0.268   5.750 -1.7575  2.4387  0.8912
17434TIP3    H273794   2.149   0.399   5.778  2.4291  0.4960 -0.1548
17435TIP3   OH273795   3.613   6.334   3.815 -0.4334 -0.3307  0.0198
17435TIP3    H173796   3.682   6.281   3.775  1.6306  1.2767  1.3356
17435TIP3    H273797   3.568   6.273   3.874  1.1607 -0.9540  0.6386
17436TIP3   OH273798   2.114   1.302   3.377 -0.2400  0.0649  0.4136
17436TIP3    H173799   2.093   1.306   3.470 -0.4442  2.8904  0.2908
17436TIP3    H273800   2.162   1.383   3.360  1.3825 -1.2873 -1.5618
17437TIP3   OH273801   0.366   2.203   2.103 -0.2867 -0.4752 -0.7015
17437TIP3    H173802   0.364   2.151   2.023  1.2910 -0.0351 -1.0432
17437TIP3    H273803   0.337   2.290   2.075  0.3477 -0.2991 -0.8161
17438TIP3   OH273804   4.424   3.742   4.744  0.6486 -0.1733 -0.1727
17438TIP3    H173805   4.456   3.669   4.797 -0.6500 -0.7079 -0.1174
17438TIP3    H273806   4.501   3.797   4.730  1.5047 -1.2393  0.2981
17439TIP3   OH273807   4.270   2.186  11.676 -0.1263  0.0134  0.4481
17439TIP3    H173808   4.288   2.221  11.763  1.3698 -1.2981  0.6888
17439TIP3    H273809   4.271   2.091  11.688 -0.1768 -0.1749 -0.9550
17440TIP3   OH273810   4.588   5.298  12.718 -1.3352  0.0255 -0.1713
17440TIP3    H173811   4.612   5.374  12.665 -1.1541 -0.1693 -0.3719
17440TIP3    H273812   4.665   5.280  12.771 -1.8096  0.7345  0.7779
17441TIP3   OH273813   5.067   0.852   4.591  0.2321 -0.3684  0.4873
17441TIP3    H173814   5.004   0.882   4.525 -0.6237 -1.0971  0.9682
17441TIP3    H273815   5.153   0.868   4.551 -0.2287  1.4358  0.1747
17442TIP3   OH273816   0.618   3.871   0.932  0.1846 -0.1127 -0.2052
17442TIP3    H173817   0.697   3.818   0.924  0.3340 -0.2068  1.6227
17442TIP3    H273818   0.547   3.813   0.906  0.4880 -0.7891  0.4530
17443TIP3   OH273819   3.202   0.880   1.884 -0.1599 -0.2345 -0.2087
17443TIP3    H173820   3.154   0.935   1.946  0.6166  0.5474 -0.2857
17443TIP3    H273821   3.235   0.942   1.819  0.0539 -0.8980 -0.7323
17444TIP3   OH273822   1.735   4.416  12.734 -0.3693 -0.3812  0.1216
17444TIP3    H173823   1.675   4.453  12.670  0.5117  0.8030 -0.0522
17444TIP3    H273824   1.705   4.327  12.747 -3.8251  0.9529  2.0548
17445TIP3   OH273825   4.728   1.552  12.431  1.1637 -0.5452 -0.7588
17445TIP3    H173826   4.637   1.570  12.408  1.3647  0.7223 -0.6275
17445TIP3    H273827   4.724   1.529  12.524  1.0464  0.1128 -0.5980
17446TIP3   OH273828   5.185   6.564  12.414 -0.3495  0.1975  0.2045
17446TIP3    H173829   5.117   6.558  12.481 -2.6826 -0.4076 -2.1226
17446TIP3    H273830   5.211   6.656  12.414 -0.1022  0.1284  2.1412
17447TIP3   OH273831   6.736   5.284  12.770 -0.3129  0.0329  0.3048
17447TIP3    H173832   6.812   5.340  12.751  0.7737 -1.6867 -0.5099
17447TIP3    H273833   6.704   5.258  12.684 -0.4092 -1.1259  0.6895
17448TIP3   OH273834   2.699   5.333   4.289 -0.0715 -0.6185 -0.0043
17448TIP3    H173835   2.651   5.307   4.211 -1.9771 -1.5808  1.4557
17448TIP3    H273836   2.632   5.370   4.347  1.5578  1.4993  0.5860
17449TIP3   OH273837   6.311   3.022  15.061  0.3434 -0.1616 -0.1025
17449TIP3    H173838   6.365   2.989  15.134 -0.4538 -1.3408 -0.0348
17449TIP3    H273839   6.251   3.084  15.102 -0.1802 -0.9071  0.2835
17450TIP3   OH273840   4.533   1.179  12.117 -0.1820  0.0872  0.4800
17450TIP3    H173841   4.524   1.257  12.063 -0.1275 -0.7209 -0.7210
17450TIP3    H273842   4.587   1.207  12.191 -1.4699  1.5744  0.8745
17451TIP3   OH273843   5.484   1.906  16.302  0.6122  0.0978  0.2030
17451TIP3    H173844   5.431   1.943  16.373 -1.5429 -3.7322  0.7174
17451TIP3    H273845   5.421   1.889  16.232  2.3743  1.8009 -1.8702
17452TIP3   OH273846   4.216   1.602  17.138  0.3717 -0.4398  0.1017
17452TIP3    H173847   4.299   1.585  17.094  1.0770 -0.6222  1.4706
17452TIP3    H273848   4.150   1.596  17.069  1.2704 -2.3713 -0.6206
17453TIP3   OH273849   1.193   6.398  12.105 -0.1354  0.7802 -0.0534
17453TIP3    H173850   1.233   6.354  12.179 -0.6118 -2.1730 -1.4810
17453TIP3    H273851   1.099   6.396  12.124 -0.1321  1.4956  0.0428
17454TIP3   OH273852   2.676   5.628  14.602 -0.2452  0.3289 -0.4051
17454TIP3    H173853   2.690   5.629  14.507 -0.4549 -2.4153 -0.5100
17454TIP3    H273854   2.581   5.635  14.612 -0.3694 -1.0537 -0.4910
17455TIP3   OH273855   5.973   0.737   4.843  0.0829  0.9446 -0.0071
17455TIP3    H173856   6.016   0.749   4.758  0.9912  2.1652  0.6171
17455TIP3    H273857   5.954   0.826   4.873 -0.4524  0.5121  0.9616
17456TIP3   OH273858   4.680   0.312   2.468  0.1788 -0.5920  0.3040
17456TIP3    H173859   4.623   0.299   2.543 -0.1833 -1.4552 -0.1066
17456TIP3    H273860   4.768   0.320   2.504 -0.0575 -0.4714  0.8480
17457TIP3   OH273861   4.151   5.034   1.475  0.8744  0.0354  0.1130
17457TIP3    H173862   4.100   5.115   1.466  0.3830 -0.1609  1.0499
17457TIP3    H273863   4.241   5.060   1.455  0.5267  0.5498 -0.7950
17458TIP3   OH273864   4.437   5.217   3.713  0.2411 -0.3458  0.0640
17458TIP3    H173865   4.480   5.146   3.760  1.8998 -0.1070 -1.0677
17458TIP3    H273866   4.398   5.175   3.636  1.4753 -0.0018 -0.7617
17459TIP3   OH273867   5.462   0.952  13.478 -0.1797  1.0128  0.0622
17459TIP3    H173868   5.428   0.889  13.415  0.0750  0.1393  0.7798
17459TIP3    H273869   5.550   0.972  13.447  0.9767 -1.4727  1.5703
17460TIP3   OH273870   1.098   5.062   5.260 -0.9842  0.2407 -0.7042
17460TIP3    H173871   1.156   5.122   5.213 -2.1108  0.7522 -1.4606
17460TIP3    H273872   1.059   5.116   5.329 -1.3829  0.1838 -0.8815
17461TIP3   OH273873   1.310   4.366   0.981  0.3001  0.2704 -0.3857
17461TIP3    H173874   1.316   4.303   1.053 -0.0661  0.3687 -0.2712
17461TIP3    H273875   1.300   4.451   1.023 -0.7232  0.2369 -0.5654
17462TIP3   OH273876   5.990   3.288   1.500 -0.5795 -0.1742 -0.0258
17462TIP3    H173877   5.968   3.233   1.425  0.8997 -1.8980  0.7676
17462TIP3    H273878   6.008   3.374   1.462 -0.5396 -0.8535 -1.5687
17463TIP3   OH273879   3.050   6.398  13.751  0.3180  0.3538 -0.1083
17463TIP3    H173880   3.079   6.326  13.807 -2.2271 -0.1872  0.5649
17463TIP3    H273881   3.086   6.377  13.665  1.3429 -0.6225  0.5452
17464TIP3   OH273882   5.464   3.096   3.708 -0.3653  0.1548  0.1889
17464TIP3    H173883   5.515   3.076   3.629 -1.1599 -2.9809  0.3991
17464TIP3    H273884   5.517   3.161   3.755  0.5904  1.3245 -2.4182
17465TIP3   OH273885   1.150   0.814   5.740  0.1839 -0.1858 -0.0982
17465TIP3    H173886   1.144   0.874   5.815 -2.9635  2.1908 -2.0893
17465TIP3    H273887   1.221   0.850   5.687  0.3531 -0.0433  0.2219
17466TIP3   OH273888   5.772   1.988  14.322  0.3389 -0.1437  0.3934
17466TIP3    H173889   5.696   1.941  14.289  2.3749 -1.7257 -2.2155
17466TIP3    H273890   5.762   1.985  14.417 -3.1620  0.2677  0.0896
17467TIP3   OH273891   5.956   3.475  15.127 -0.1094  0.4060 -0.4193
17467TIP3    H173892   5.983   3.432  15.046  0.5284  0.5104 -0.2646
17467TIP3    H273893   5.991   3.564  15.121  0.8360  0.1083  0.4194
17468TIP3   OH273894   5.429   6.593   5.621 -0.2540  0.2333 -0.0691
17468TIP3    H173895   5.455   6.515   5.670 -0.6721 -1.3379 -2.2453
17468TIP3    H273896   5.511   6.636   5.598 -0.0369  0.6314  1.4581
17469TIP3   OH273897   2.713   6.755  14.970  0.8701 -0.4001  0.0643
17469TIP3    H173898   2.683   6.845  14.977  1.8644 -0.0954  0.5728
17469TIP3    H273899   2.643   6.709  14.924  0.0447  0.4756  0.4410
17470TIP3   OH273900   0.486   4.747  12.326  0.3320 -0.1078 -0.2623
17470TIP3    H173901   0.421   4.738  12.396  0.4228  1.3213  0.0164
17470TIP3    H273902   0.511   4.657  12.305 -1.5710 -0.6848 -0.2108
17471TIP3   OH273903   4.113   6.445   6.793  0.4962  0.8302 -0.0892
17471TIP3    H173904   4.099   6.351   6.804  0.2834  0.9606  0.8460
17471TIP3    H273905   4.179   6.466   6.859 -0.8142  1.6655  0.9852
17472TIP3   OH273906   3.697   0.409  14.250 -0.3534  0.1377  0.7233
17472TIP3    H173907   3.678   0.473  14.318 -2.1584  2.6377 -2.0019
17472TIP3    H273908   3.793   0.406  14.245 -0.1613 -0.8284  3.9581
17473TIP3   OH273909   0.744   2.041  15.757 -0.1442 -0.6067 -0.0291
17473TIP3    H173910   0.731   2.057  15.664  1.2344 -1.7292 -0.4371
17473TIP3    H273911   0.698   1.959  15.774 -0.1076 -0.5799  0.2094
17474TIP3   OH273912   0.551   1.654   5.559 -0.2493 -0.5729  0.2311
17474TIP3    H173913   0.462   1.621   5.563  0.4586 -2.4082  1.8936
17474TIP3    H273914   0.596   1.593   5.500  0.6625 -1.6408  1.9846
17475TIP3   OH273915   2.416   2.069  15.362  0.1050  0.1010  0.6219
17475TIP3    H173916   2.499   2.077  15.409  1.0344  1.5070 -1.1693
17475TIP3    H273917   2.349   2.096  15.425  1.0274 -0.8823  2.0224
17476TIP3   OH273918   1.885   1.721  13.208 -0.1242 -0.0820 -0.3562
17476TIP3    H173919   1.806   1.772  13.226 -0.2516 -0.3308 -0.2047
17476TIP3    H273920   1.914   1.751  13.122 -1.1120 -0.9028 -0.9930
17477TIP3   OH273921   3.250   4.513  12.525 -0.1335  0.4257 -0.1127
17477TIP3    H173922   3.221   4.569  12.453 -0.5974 -0.4290 -0.5916
17477TIP3    H273923   3.198   4.433  12.515  0.1217  0.1356  0.9073
17478TIP3   OH273924   0.897   0.821   3.802 -0.6885 -0.0667 -0.1522
17478TIP3    H173925   0.863   0.749   3.855 -1.8195 -0.2310 -1.0682
17478TIP3    H273926   0.893   0.789   3.712  0.0988  0.6348 -0.4387
17479TIP3   OH273927   6.297   4.674  13.807 -0.6352 -0.2468  0.2085
17479TIP3    H173928   6.202   4.672  13.794 -0.7538 -0.8419  1.1264
17479TIP3    H273929   6.322   4.583  13.820 -0.5496  0.2444  4.1547
17480TIP3   OH273930   5.240   5.563   1.912 -0.1803 -0.2337  0.2324
17480TIP3    H173931   5.282   5.645   1.885 -0.3161 -0.3577 -0.3581
17480TIP3    H273932   5.168   5.591   1.968  1.1128 -0.0462  1.8546
17481TIP3   OH273933   6.351   0.219  13.788 -0.0249 -0.6127 -0.7042
17481TIP3    H173934   6.347   0.208  13.883 -0.7503 -2.1085 -0.9012
17481TIP3    H273935   6.262   0.198  13.758  0.3803 -0.7915 -1.7784
17482TIP3   OH273936   2.037   2.408  10.810  0.4304  0.1203  0.3092
17482TIP3    H173937   2.033   2.477  10.745  2.2165 -0.1513 -0.1260
17482TIP3    H273938   2.063   2.330  10.761 -1.0232 -0.7364  0.8816
17483TIP3   OH273939   1.714   2.379   3.246  0.3639 -0.6990 -0.0323
17483TIP3    H173940   1.722   2.325   3.324 -1.5157  0.3384  0.8957
17483TIP3    H273941   1.625   2.363   3.214  0.2464  0.7828 -0.5127
17484TIP3   OH273942   2.342   0.143  14.939  0.0195  0.0871  0.1379
17484TIP3    H173943   2.265   0.087  14.928  1.3147 -1.3096 -2.0360
17484TIP3    H273944   2.378   0.153  14.851  0.4174  3.5383  0.6087
17485TIP3   OH273945   1.910   3.525  11.215  0.6782  0.3440  0.0106
17485TIP3    H173946   1.934   3.441  11.254  0.6300  0.4523  0.2821
17485TIP3    H273947   1.880   3.504  11.127 -1.6343 -0.2437  0.8823
17486TIP3   OH273948   5.779   4.766  12.933 -0.0037  0.6108 -0.2116
17486TIP3    H173949   5.794   4.671  12.940  1.1037  0.8076  0.1986
17486TIP3    H273950   5.801   4.800  13.019 -1.6390  1.1008  0.0383
17487TIP3   OH273951   2.983   0.424  12.176  0.3859 -0.2050 -0.5751
17487TIP3    H173952   3.055   0.482  12.152 -0.3692  0.4780 -1.2108
17487TIP3    H273953   2.985   0.355  12.110  0.0103  0.2027 -1.0153
17488TIP3   OH273954   1.138   0.125  16.076  0.0854 -0.0285  0.1709
17488TIP3    H173955   1.056   0.121  16.026 -0.7100 -0.9482  1.5122
17488TIP3    H273956   1.137   0.045  16.129  1.3987  0.4312  0.8962
17489TIP3   OH273957   4.919   1.615  16.166 -0.2004  0.2832  0.1083
17489TIP3    H173958   4.874   1.695  16.192 -2.4456 -0.4922 -1.2187
17489TIP3    H273959   4.957   1.581  16.247  1.0598  2.8224  0.6301
17490TIP3   OH273960   5.257   5.321  14.228 -0.2762  0.6294 -0.0014
17490TIP3    H173961   5.171   5.335  14.269 -0.9985  1.9446 -1.9081
17490TIP3    H273962   5.236   5.282  14.143  0.9389  2.1322 -0.9989
17491TIP3   OH273963   5.439   1.486  12.831 -0.6064  0.2651  0.6659
17491TIP3    H173964   5.500   1.561  12.829 -0.8894  0.4486 -1.3951
17491TIP3    H273965   5.482   1.420  12.777 -2.6027  0.6869 -1.4786
17492TIP3   OH273966   0.178   1.746  16.585  0.1080 -0.3945  0.1899
17492TIP3    H173967   0.106   1.797  16.549  0.7772  0.7478  0.4157
17492TIP3    H273968   0.214   1.802  16.654  0.1105 -1.6863  1.2547
17493TIP3   OH273969   2.010   1.482   4.107 -0.0393  0.2643 -0.2254
17493TIP3    H173970   1.947   1.411   4.113  0.8490 -0.5131  0.0232
17493TIP3    H273971   2.022   1.495   4.013  1.3937 -1.3674 -0.2872
17494TIP3   OH273972   5.918   4.231   4.863 -0.5399  0.2933 -0.1446
17494TIP3    H173973   5.928   4.225   4.958 -2.9226 -0.2586  0.1021
17494TIP3    H273974   6.005   4.212   4.828  0.2643  0.1052  1.9239
17495TIP3   OH273975   3.675   5.790  16.317  0.4973 -0.0787 -0.1297
17495TIP3    H173976   3.660   5.811  16.409 -0.8297 -0.2210 -0.3109
17495TIP3    H273977   3.764   5.821  16.300 -0.1718  2.2804  0.5221
17496TIP3   OH273978   4.177   5.479   4.992  0.6755  0.0966  0.5012
17496TIP3    H173979   4.154   5.388   5.011  1.0842  0.1815  1.4302
17496TIP3    H273980   4.244   5.501   5.057  0.7710  0.9782  0.1121
17497TIP3   OH273981   5.972   0.057   0.220  0.0478 -0.2543 -0.2333
17497TIP3    H173982   5.968  -0.037   0.202 -0.1102 -0.2234 -0.3604
17497TIP3    H273983   5.958   0.063   0.314  1.4704 -0.4582 -0.0089
17498TIP3   OH273984   4.522   0.456   3.857  0.1415 -0.1675 -0.4926
17498TIP3    H173985   4.499   0.548   3.870 -1.1252 -0.5943  0.4034
17498TIP3    H273986   4.491   0.413   3.936 -0.0556 -1.5147 -1.3016
17499TIP3   OH273987   2.940   6.264   5.244  0.3536 -0.3199 -0.0945
17499TIP3    H173988   2.850   6.298   5.246 -0.0631 -1.4569  0.9729
17499TIP3    H273989   2.995   6.342   5.246 -0.6032  0.3766 -0.3450
17500TIP3   OH273990   3.748   0.269  16.086 -0.5893 -0.3771  0.2667
17500TIP3    H173991   3.707   0.281  16.001 -0.2976  0.4179  0.2373
17500TIP3    H273992   3.838   0.241  16.066 -0.6607 -0.6418  0.3173
17501TIP3   OH273993   2.739   3.023   5.007  0.2285 -0.1196 -0.1631
17501TIP3    H173994   2.717   3.101   4.956  1.1132  1.1238  1.3148
17501TIP3    H273995   2.713   3.045   5.097  0.1357 -1.6831  0.2057
17502TIP3   OH273996   4.716   2.327  15.299 -0.1511 -0.0372  0.2420
17502TIP3    H173997   4.683   2.349  15.212  2.6350  2.1633 -0.3188
17502TIP3    H273998   4.702   2.232  15.306 -3.2091  0.2517 -1.3408
17503TIP3   OH273999   4.542   1.204  15.502 -0.5781  0.5077 -1.0886
17503TIP3    H174000   4.566   1.246  15.585 -1.9551 -0.5805 -0.1153
17503TIP3    H274001   4.463   1.250  15.474  0.3420  1.4227 -2.2443
17504TIP3   OH274002   0.722   3.299   1.752 -0.0358  0.0624  0.0860
17504TIP3    H174003   0.693   3.208   1.748 -0.1371  0.1107 -0.3257
17504TIP3    H274004   0.803   3.296   1.803  0.0030 -0.2717  0.0051
17505TIP3   OH274005   3.849   0.891   0.335  0.7874  0.1552  0.2977
17505TIP3    H174006   3.760   0.888   0.299  0.8959 -2.4499  0.1993
17505TIP3    H274007   3.843   0.841   0.416  2.4320 -0.9775 -0.2703
17506TIP3   OH274008   3.643   2.208   4.023 -0.2978  0.0511 -0.1203
17506TIP3    H174009   3.582   2.201   3.950 -0.0754 -1.1816 -0.1966
17506TIP3    H274010   3.722   2.161   3.994 -0.2724 -0.6055  0.9631
17507TIP3   OH274011   1.571   0.538   2.634  0.7680  0.0283 -0.0306
17507TIP3    H174012   1.611   0.518   2.719  0.9944 -0.6561 -0.2936
17507TIP3    H274013   1.560   0.453   2.592  2.6833  0.5189 -1.5981
17508TIP3   OH274014   5.625   3.466   0.010  0.0117 -0.5592  0.0223
17508TIP3    H174015   5.546   3.493   0.057  0.9604  0.9604  0.7922
17508TIP3    H274016   5.593   3.431  -0.073 -1.5305 -0.9887  0.7788
17509TIP3   OH274017   3.128   2.529   3.324  0.1711 -0.6330  0.0753
17509TIP3    H174018   3.083   2.602   3.281  0.8302 -1.1003 -1.4704
17509TIP3    H274019   3.099   2.532   3.415 -3.2375 -1.1305 -0.9339
17510TIP3   OH274020   3.026   1.551  16.831 -0.4013 -0.1994  0.1137
17510TIP3    H174021   3.075   1.487  16.779 -0.1763  1.3832 -1.6823
17510TIP3    H274022   3.057   1.538  16.920 -0.4786 -2.6889 -0.1828
17511TIP3   OH274023   6.301   5.832  15.817  0.1934 -0.0683 -0.0905
17511TIP3    H174024   6.333   5.914  15.780 -1.3612  0.0235 -1.2956
17511TIP3    H274025   6.211   5.852  15.843  0.5961 -0.7210  1.8779
17512TIP3   OH274026   5.084   5.603   2.702  0.3632 -0.1671  0.2594
17512TIP3    H174027   5.104   5.572   2.790  0.3319 -1.2619 -0.0991
17512TIP3    H274028   4.991   5.584   2.690  0.2291  0.5220  0.2077
17513TIP3   OH274029   2.048   2.328   3.813 -0.0223 -0.2102  0.2926
17513TIP3    H174030   2.109   2.315   3.740  0.5823  1.6696  0.4196
17513TIP3    H274031   2.039   2.424   3.819 -0.5901 -0.3658  2.2478
17514TIP3   OH274032   6.438   1.310  15.640  0.5391  0.2105 -0.4703
17514TIP3    H174033   6.512   1.256  15.612  0.7401  0.2517 -0.0224
17514TIP3    H274034   6.361   1.255  15.625  0.8191 -0.5869  0.9305
17515TIP3   OH274035   1.939   0.947  14.888 -0.0613 -0.4167 -0.2415
17515TIP3    H174036   1.949   0.858  14.854 -3.5731 -0.8456 -0.3586
17515TIP3    H274037   1.965   0.940  14.980 -1.2855 -1.8120  0.0193
17516TIP3   OH274038   1.305   1.460   2.631  0.0903  0.0820  0.5719
17516TIP3    H174039   1.374   1.394   2.642 -1.1677 -1.3527 -0.0113
17516TIP3    H274040   1.345   1.526   2.575  0.5809 -1.3994 -0.8738
17517TIP3   OH274041   0.462   6.706  17.078  0.2940 -0.8627 -0.1458
17517TIP3    H174042   0.537   6.730  17.133 -0.0779 -2.3719  1.0552
17517TIP3    H274043   0.470   6.612  17.066 -0.4395 -0.7660 -1.4917
17518TIP3   OH274044   5.706   5.588  15.720 -0.2054  0.1297  0.4741
17518TIP3    H174045   5.701   5.506  15.672  0.5880  0.6286 -0.5029
17518TIP3    H274046   5.662   5.571  15.803 -0.6601 -1.0650 -0.0064
17519TIP3   OH274047   4.474   1.157  17.069 -0.3489 -0.3239 -0.6113
17519TIP3    H174048   4.473   1.111  16.986 -0.9431  0.8815 -1.2877
17519TIP3    H274049   4.566   1.166  17.091 -0.2108 -1.2783 -0.7767
17520TIP3   OH274050   1.249   6.498  16.965 -0.3179  0.2420 -0.1880
17520TIP3    H174051   1.312   6.558  17.006 -1.6773  0.3154  1.8984
17520TIP3    H274052   1.172   6.553  16.948 -1.2830 -0.6955  1.0155
17521TIP3   OH274053   4.234   6.464   2.480  0.1569  0.7908  0.4645
17521TIP3    H174054   4.165   6.498   2.537  0.2407  1.9749 -0.1211
17521TIP3    H274055   4.195   6.387   2.437 -0.0029  0.0783  1.8725
17522TIP3   OH274056   0.081   0.951  15.103  0.2376 -0.1049  0.4549
17522TIP3    H174057   0.033   0.885  15.152 -0.2420  0.7690  1.1776
17522TIP3    H274058   0.075   1.030  15.157 -0.3059  0.8743 -0.9886
17523TIP3   OH274059   1.512   4.300  13.420  0.3483 -0.4501  0.0764
17523TIP3    H174060   1.474   4.339  13.498 -0.1034  0.9502 -0.8119
17523TIP3    H274061   1.447   4.237  13.390 -1.1155  1.5618 -1.1377
17524TIP3   OH274062   5.001   6.245  17.250 -0.1849 -0.1059 -0.3254
17524TIP3    H174063   5.046   6.276  17.172 -0.0630 -0.1886 -0.2878
17524TIP3    H274064   5.049   6.166  17.276  0.7920  0.8116  0.7603
17525TIP3   OH274065   2.600   3.575  17.042  0.3672  0.5200  0.2811
17525TIP3    H174066   2.638   3.636  17.105  0.4516 -2.2598  3.0181
17525TIP3    H274067   2.636   3.490  17.065 -1.9775 -1.0817 -1.6001
17526TIP3   OH274068   6.629   0.547  15.370 -0.0251 -0.8198 -0.6791
17526TIP3    H174069   6.671   0.625  15.332  2.7267 -1.3999  1.0796
17526TIP3    H274070   6.538   0.555  15.344  0.5882  1.9938 -2.2016
17527TIP3   OH274071   1.531   0.838   1.899 -0.3315 -0.4823  0.5563
17527TIP3    H174072   1.453   0.783   1.889 -0.7431  0.0651  0.7208
17527TIP3    H274073   1.501   0.926   1.875  0.2244 -0.2596  0.6750
17528TIP3   OH274074   4.434   0.471   3.015 -0.7957  0.3996 -0.0828
17528TIP3    H174075   4.418   0.478   3.109 -2.0705 -0.1278 -0.2589
17528TIP3    H274076   4.398   0.386   2.990  0.7635 -0.0656 -0.8086
17529TIP3   OH274077   0.392   6.238   5.488  0.3019 -0.2856  0.1600
17529TIP3    H174078   0.326   6.235   5.558  2.3333  1.7142  2.2425
17529TIP3    H274079   0.352   6.291   5.419 -0.7248 -0.1093  0.8867
17530TIP3   OH274080   4.302   1.322  15.452  0.1468  0.0548  0.5882
17530TIP3    H174081   4.256   1.327  15.368 -1.8251  1.0300  1.6931
17530TIP3    H274082   4.234   1.298  15.515  1.3685  0.4583  2.0822
17531TIP3   OH274083   1.405   4.414  11.472  0.3376 -0.2208  0.1779
17531TIP3    H174084   1.334   4.470  11.503 -0.8712 -0.9181 -1.2472
17531TIP3    H274085   1.441   4.460  11.397 -0.6727 -1.3113 -1.0110
17532TIP3   OH274086   0.506   5.357   6.090 -0.0129  0.3037  0.1843
17532TIP3    H174087   0.547   5.308   6.162 -1.1729 -0.2566  0.4697
17532TIP3    H274088   0.564   5.432   6.076  2.1288 -1.4643 -0.6817
17533TIP3   OH274089   4.385   5.149   0.295 -0.6080  0.7121  0.1860
17533TIP3    H174090   4.324   5.107   0.235  0.2117  0.8312 -0.7387
17533TIP3    H274091   4.356   5.121   0.382 -0.5269 -1.1360 -0.3708
17534TIP3   OH274092   2.969   1.004  13.571 -0.1202 -0.2547 -0.3935
17534TIP3    H174093   2.928   1.083  13.605  1.9118  0.1307  1.2806
17534TIP3    H274094   2.913   0.977  13.498 -2.1745  1.3422  0.5446
17535TIP3   OH274095   0.744   0.202   4.646 -0.3486  0.3964  0.5006
17535TIP3    H174096   0.661   0.249   4.652 -0.9000 -0.2643 -1.8536
17535TIP3    H274097   0.726   0.125   4.593  2.1209  1.0783 -1.4309
17536TIP3   OH274098   3.362   2.584  15.182  0.0903 -0.2685 -0.3158
17536TIP3    H174099   3.271   2.586  15.151 -0.4676 -1.1754  1.1713
17536TIP3    H274100   3.408   2.529  15.119 -0.8874 -1.6181  0.1315
17537TIP3   OH274101   0.945   0.440   2.726 -0.2461 -0.2250  0.4305
17537TIP3    H174102   0.873   0.480   2.677  0.9172  0.4837 -0.7323
17537TIP3    H274103   0.978   0.510   2.781  2.5161  0.8126 -2.4195
17538TIP3   OH274104   6.572   4.225  16.980 -0.0400  0.8853 -0.2753
17538TIP3    H174105   6.575   4.297  16.917 -1.0681  0.6002 -0.6642
17538TIP3    H274106   6.626   4.157  16.940 -0.2831  0.8895 -0.6164
17539TIP3   OH274107   6.525   3.600  15.994 -0.2261  0.4379  0.0014
17539TIP3    H174108   6.603   3.628  15.946 -0.5148  0.3270 -0.5412
17539TIP3    H274109   6.558   3.548  16.066  0.3095  1.9261  0.8626
17540TIP3   OH274110   3.648   5.235   5.856 -0.2673 -0.3801  0.4052
17540TIP3    H174111   3.650   5.149   5.814  2.4847 -0.1956  0.0427
17540TIP3    H274112   3.641   5.215   5.949 -0.9659 -0.9527  0.2360
17541TIP3   OH274113   1.564   0.309   4.511 -0.1268  0.2749  0.2456
17541TIP3    H174114   1.509   0.231   4.519  0.4450 -0.1954 -0.4048
17541TIP3    H274115   1.602   0.321   4.598 -0.1468 -0.2188  0.3219
17542TIP3   OH274116   0.887   2.598  12.660  0.3411  0.4831 -0.0124
17542TIP3    H174117   0.831   2.636  12.727 -0.6468 -1.2581  0.1783
17542TIP3    H274118   0.899   2.507  12.687  0.3931 -0.0871 -1.8908
17543TIP3   OH274119   2.473   6.085  16.032  0.0819 -0.7494  0.2458
17543TIP3    H174120   2.409   6.151  16.006 -0.2196 -1.2718 -0.3535
17543TIP3    H274121   2.436   6.002  16.003  0.0409 -1.2917  1.8127
17544TIP3   OH274122   5.169   1.405   2.225  0.1762 -0.4865 -0.3649
17544TIP3    H174123   5.123   1.477   2.267 -0.9663 -1.7622  0.6264
17544TIP3    H274124   5.108   1.331   2.232  0.3115 -0.9454 -3.5142
17545TIP3   OH274125   0.618   4.431  14.295  0.1238  0.4436  0.2010
17545TIP3    H174126   0.611   4.377  14.217 -1.4438 -0.5776  1.0225
17545TIP3    H274127   0.700   4.403  14.336  0.0427 -0.3028 -0.1338
17546TIP3   OH274128   1.548   5.957   1.798 -0.1555 -0.0138 -1.2163
17546TIP3    H174129   1.610   5.945   1.869 -1.1367 -0.3789 -0.4139
17546TIP3    H274130   1.570   5.888   1.735  0.5818  0.1867 -1.1863
17547TIP3   OH274131   6.390   5.786  12.747 -0.2026 -0.6716  0.1664
17547TIP3    H174132   6.358   5.875  12.762 -2.2356 -1.1552 -1.1150
17547TIP3    H274133   6.319   5.743  12.698  0.7554 -2.9809  0.7495
17548TIP3   OH274134   5.208   0.872  14.952 -0.1757 -0.0544  0.1327
17548TIP3    H174135   5.176   0.903  15.037  1.4852  1.5065  0.2164
17548TIP3    H274136   5.130   0.871  14.897 -0.7380  1.8287  0.8486
17549TIP3   OH274137   0.449   1.466   3.698  0.9427  0.4484  0.2355
17549TIP3    H174138   0.439   1.423   3.613  2.1298 -0.4616  0.5278
17549TIP3    H274139   0.416   1.403   3.762 -0.6078  1.4169  0.4004
17550TIP3   OH274140   0.180   5.224  14.953  0.2212 -0.1299 -0.5181
17550TIP3    H174141   0.262   5.177  14.941  0.3688  0.3962 -1.6902
17550TIP3    H274142   0.116   5.173  14.903 -0.0923 -0.3443  0.1011
17551TIP3   OH274143   2.594   1.111   1.153 -0.2254  0.2274 -0.1385
17551TIP3    H174144   2.577   1.186   1.095 -0.0569  2.8012  2.9884
17551TIP3    H274145   2.507   1.077   1.175 -0.3085 -0.4212 -1.4248
17552TIP3   OH274146   1.035   3.947  10.692 -0.0263 -0.2835  0.0473
17552TIP3    H174147   1.029   3.925  10.785 -1.8905 -0.8387 -0.1895
17552TIP3    H274148   1.048   3.863  10.648  1.9662  0.0912 -0.1256
17553TIP3   OH274149   4.975   1.923   5.353 -0.2115  0.2074  0.1350
17553TIP3    H174150   4.988   1.984   5.426 -0.8119 -0.9522  1.2346
17553TIP3    H274151   4.995   1.974   5.275  0.7586  1.3820  1.1358
17554TIP3   OH274152   0.221   3.743  16.492 -0.1738  0.3242  0.1208
17554TIP3    H174153   0.211   3.822  16.438 -0.3362 -0.2112 -0.6337
17554TIP3    H274154   0.159   3.756  16.564  0.2372  1.1601  0.3304
17555TIP3   OH274155   5.639   3.839  14.324  0.2042  0.8210  0.1081
17555TIP3    H174156   5.611   3.795  14.405 -1.5231  0.8747 -0.4379
17555TIP3    H274157   5.560   3.839  14.269  0.7823  2.6863 -0.7385
17556TIP3   OH274158   2.883   3.082  10.793  0.2070  0.6356  0.3418
17556TIP3    H174159   2.822   3.029  10.844  0.5170  0.1915  0.2485
17556TIP3    H274160   2.969   3.043  10.808  0.1277 -0.3262 -1.5792
17557TIP3   OH274161   1.271   0.778  11.627  0.2490 -0.4580 -0.5169
17557TIP3    H174162   1.200   0.717  11.606  0.1210 -0.1818 -0.8992
17557TIP3    H274163   1.331   0.727  11.682 -0.2647 -0.6841 -0.1519
17558TIP3   OH274164   1.994   4.512  16.030 -0.0807 -0.0111  0.7263
17558TIP3    H174165   2.068   4.569  16.051 -0.2401  0.3030  0.4411
17558TIP3    H274166   2.007   4.434  16.084 -0.9113  1.1335  2.6101
17559TIP3   OH274167   2.445   0.121   0.967 -0.1589  0.6516  0.1438
17559TIP3    H174168   2.405   0.094   0.885 -0.5727  0.9050  0.2611
17559TIP3    H274169   2.477   0.040   1.007  0.5596  0.5934 -0.5360
17560TIP3   OH274170   2.883   2.847   0.449  0.0206 -0.2553  0.4842
17560TIP3    H174171   2.858   2.936   0.423  2.2075  0.7759  1.7482
17560TIP3    H274172   2.943   2.818   0.380  0.3448 -0.2298  0.7540
17561TIP3   OH274173   4.978   3.919  16.570  0.4273 -0.8719  0.0643
17561TIP3    H174174   4.994   3.988  16.634  0.2158 -0.5630 -0.2183
17561TIP3    H274175   4.906   3.867  16.607 -0.0076 -0.4172 -0.1467
17562TIP3   OH274176   6.151   2.922  14.105  0.3701 -0.5947 -0.3156
17562TIP3    H174177   6.189   2.862  14.041 -0.8027  0.8605 -2.4421
17562TIP3    H274178   6.070   2.880  14.133  0.3303 -0.7274 -0.6296
17563TIP3   OH274179   3.919   4.457  10.843  0.1075  0.3811 -0.4983
17563TIP3    H174180   4.011   4.469  10.818 -0.3914  0.0794 -2.5850
17563TIP3    H274181   3.900   4.366  10.820 -0.2659 -0.0432  1.4514
17564TIP3   OH274182   1.763   1.776  13.679 -0.2752 -0.3833  0.6366
17564TIP3    H174183   1.839   1.775  13.737  0.3497 -1.1629 -0.1949
17564TIP3    H274184   1.784   1.714  13.610 -0.8406  0.8487 -0.6716
17565TIP3   OH274185   6.231   2.623  13.378  0.3423  0.2917  0.3040
17565TIP3    H174186   6.164   2.587  13.435 -1.6960  1.1904 -1.4619
17565TIP3    H274187   6.229   2.567  13.300 -0.2156  1.9149 -0.8635
17566TIP3   OH274188   2.864   6.388  16.569  0.0226  0.2003 -0.4853
17566TIP3    H174189   2.848   6.315  16.509 -0.7059 -0.2506  0.2558
17566TIP3    H274190   2.922   6.351  16.636 -0.7619  0.1584  0.1714
17567TIP3   OH274191   0.604   3.304  11.793  0.6668  0.1037  0.0448
17567TIP3    H174192   0.551   3.327  11.869  0.8216 -0.3724  0.3003
17567TIP3    H274193   0.646   3.386  11.767  0.8083  0.2163  0.6258
17568TIP3   OH274194   4.931   1.844   0.249  0.1819  0.8224 -0.1119
17568TIP3    H174195   5.003   1.905   0.230 -0.2129  1.5502  0.7184
17568TIP3    H274196   4.900   1.869   0.336 -1.9807  1.4281 -1.0160
17569TIP3   OH274197   2.979   2.613  14.254 -0.0481 -0.6402  0.2325
17569TIP3    H174198   2.974   2.707  14.274  0.7054 -0.7404  0.9341
17569TIP3    H274199   3.043   2.607  14.184 -2.7564 -0.2803 -2.3671
17570TIP3   OH274200   3.007   0.324   1.394  0.2978  0.0620  0.3795
17570TIP3    H174201   2.929   0.370   1.424  1.4914  1.7496  0.9258
17570TIP3    H274202   2.976   0.270   1.321 -1.1831  1.4294 -0.0196
17571TIP3   OH274203   2.314   5.578  15.451  0.2717  0.2114  0.2894
17571TIP3    H174204   2.364   5.558  15.531  1.2256  0.5270 -0.2238
17571TIP3    H274205   2.237   5.521  15.457  0.8395 -0.5025  0.9428
17572TIP3   OH274206   4.292   1.223   2.855 -0.6802  0.4239  0.3743
17572TIP3    H174207   4.352   1.238   2.782 -0.2587 -0.5101  0.5209
17572TIP3    H274208   4.268   1.131   2.848 -0.9317  0.4263  1.1938
17573TIP3   OH274209   3.746   6.579  14.154 -0.4046  0.7529  0.2184
17573TIP3    H174210   3.751   6.618  14.241 -0.8060 -0.3107  0.7251
17573TIP3    H274211   3.674   6.516  14.159  0.8265 -0.7509 -0.3034
17574TIP3   OH274212   0.825   0.164   1.709  0.2048  0.3453  0.1569
17574TIP3    H174213   0.869   0.082   1.689 -0.7246 -0.3881  1.0682
17574TIP3    H274214   0.821   0.210   1.625 -1.5893 -1.6988 -0.9209
17575TIP3   OH274215   4.559   0.361   2.727 -0.2823  0.3818  0.5493
17575TIP3    H174216   4.519   0.316   2.801 -0.9958  0.8301  0.4369
17575TIP3    H274217   4.487   0.409   2.686  0.1305  0.1981 -0.3870
17576TIP3   OH274218   6.693   1.697  12.159  0.3497  0.6670 -0.1871
17576TIP3    H174219   6.709   1.771  12.100 -0.4601  0.2539 -0.9295
17576TIP3    H274220   6.601   1.676  12.147  0.3797  0.0424  0.6212
17577TIP3   OH274221   1.425   0.682  14.080  0.5740 -0.6942 -0.3975
17577TIP3    H174222   1.414   0.773  14.051 -0.4773 -0.7377 -0.1426
17577TIP3    H274223   1.490   0.646  14.020  0.8155  0.1593 -0.6581
17578TIP3   OH274224   1.786   5.868   1.095  0.3974 -0.5141 -0.0227
17578TIP3    H174225   1.816   5.838   1.181 -1.2863 -0.9661  0.4309
17578TIP3    H274226   1.805   5.961   1.093  0.7865 -0.5793  0.6974
17579TIP3   OH274227   4.239   1.240   1.123  0.5062 -0.1851 -0.2565
17579TIP3    H174228   4.250   1.147   1.145  0.7837 -0.2307 -0.5841
17579TIP3    H274229   4.290   1.251   1.043 -0.5420 -0.0413 -0.9110
17580TIP3   OH274230   2.508   3.333   1.713  0.2845 -0.0656 -0.7397
17580TIP3    H174231   2.541   3.417   1.746 -1.5266 -0.1716  1.4515
17580TIP3    H274232   2.417   3.350   1.690 -0.3628 -1.6248  0.5883
17581TIP3   OH274233   1.115   5.621  11.507 -0.1673 -0.3204  0.0388
17581TIP3    H174234   1.096   5.537  11.466  1.0129 -0.2924 -0.5763
17581TIP3    H274235   1.063   5.621  11.587  0.6337 -2.0830  0.5682
17582TIP3   OH274236   4.708   5.700  13.864  0.0782  0.2968  0.4049
17582TIP3    H174237   4.655   5.620  13.857  0.6165  0.0206 -0.7452
17582TIP3    H274238   4.790   5.670  13.903  0.3844  0.2289 -0.2825
17583TIP3   OH274239   2.806   1.185  14.373 -0.1284  0.0928  0.2718
17583TIP3    H174240   2.814   1.119  14.304 -1.7106  0.1614  0.0036
17583TIP3    H274241   2.807   1.134  14.454 -0.1763 -0.1592  0.1143
17584TIP3   OH274242   1.916   4.258   0.135  0.1899  0.0920  0.5748
17584TIP3    H174243   1.869   4.176   0.150  1.2938 -0.3277  1.8834
17584TIP3    H274244   1.850   4.327   0.147 -0.9685 -0.6352 -1.5162
17585TIP3   OH274245   3.392   5.427   2.107  0.5651 -0.6029  0.0904
17585TIP3    H174246   3.373   5.372   2.183 -0.0991 -0.1322  0.2730
17585TIP3    H274247   3.429   5.367   2.042  0.1874 -1.1977  0.4190
17586TIP3   OH274248   0.626   6.607  14.358  0.2325 -0.2236  0.1770
17586TIP3    H174249   0.538   6.621  14.395  0.4380  0.0114  0.5921
17586TIP3    H274250   0.653   6.522  14.393  0.2540 -0.1981  0.2228
17587TIP3   OH274251   0.976   4.225   1.169  0.0883 -0.1614 -0.6834
17587TIP3    H174252   1.014   4.298   1.218  1.0336 -0.7523 -0.5313
17587TIP3    H274253   0.898   4.202   1.220  0.2536  0.1843 -0.2597
17588TIP3   OH274254   1.676   2.525   2.874 -0.3310 -0.5352  0.0397
17588TIP3    H174255   1.637   2.544   2.960  1.0993  1.4255  0.2754
17588TIP3    H274256   1.694   2.610   2.836  1.1070 -1.3917 -1.2605
17589TIP3   OH274257   5.496   2.377  15.000  0.3987  0.2009 -0.7881
17589TIP3    H174258   5.546   2.351  14.923  0.9310  0.1481 -0.4214
17589TIP3    H274259   5.539   2.457  15.031  1.0531 -0.5578  0.2840
17590TIP3   OH274260   0.381   4.778  13.212  0.0311  0.1397 -0.1854
17590TIP3    H174261   0.326   4.773  13.290 -1.6656  0.6024 -1.3234
17590TIP3    H274262   0.353   4.859  13.168 -0.5256 -1.1734 -2.3333
17591TIP3   OH274263   4.497   1.254  13.747  0.4758 -0.1822  0.2966
17591TIP3    H174264   4.467   1.328  13.799 -2.3627 -0.6188 -0.6411
17591TIP3    H274265   4.576   1.285  13.703 -0.5462  2.1988  0.1012
17592TIP3   OH274266   0.739   4.516   1.076  0.4272  0.6889 -0.5900
17592TIP3    H174267   0.788   4.554   1.150  1.6389 -1.0291 -0.4904
17592TIP3    H274268   0.770   4.564   1.000 -1.4100  3.0415  0.0536
17593TIP3   OH274269   3.997   5.203   4.678  0.4249  0.2843 -0.6057
17593TIP3    H174270   3.916   5.227   4.722  0.3418 -0.2144 -0.4790
17593TIP3    H274271   4.037   5.138   4.735  0.3174 -0.3708 -1.2651
17594TIP3   OH274272   0.867   1.302   1.048 -0.0713  0.5271 -0.1444
17594TIP3    H174273   0.940   1.350   1.087 -1.4081  2.2817  0.2829
17594TIP3    H274274   0.831   1.363   0.983 -0.2997 -0.8503 -1.3300
17595TIP3   OH274275   3.024   6.227  13.507 -0.5723  0.5149 -0.3772
17595TIP3    H174276   3.024   6.138  13.473 -1.0972  0.4669 -0.2509
17595TIP3    H274277   2.957   6.228  13.575 -1.1824  1.2292 -0.9771
17596TIP3   OH274278   4.633   6.101   2.821 -0.6654 -0.2596 -0.2013
17596TIP3    H174279   4.540   6.093   2.801 -0.9976  1.5044  0.5749
17596TIP3    H274280   4.645   6.193   2.844  0.7110 -1.0962  2.6396
17597TIP3   OH274281   1.934   2.052   3.108 -0.0769 -0.0264 -0.3812
17597TIP3    H174282   1.906   2.131   3.062  1.1765  0.8479  0.3297
17597TIP3    H274283   2.010   2.022   3.058  0.6623  0.3437  0.5312
17598TIP3   OH274284   0.342   1.053   5.903  0.0341  0.1329  0.1669
17598TIP3    H174285   0.299   1.016   5.980  1.4377  0.6479  1.2125
17598TIP3    H274286   0.348   0.980   5.841  1.5454 -1.0709  1.6829
17599TIP3   OH274287   4.679   4.942  11.617 -0.4961 -0.1752  0.4593
17599TIP3    H174288   4.742   4.872  11.637  1.1228  1.1588  0.0779
17599TIP3    H274289   4.606   4.925  11.677 -0.5897 -2.7675 -0.2976
17600TIP3   OH274290   5.341   0.051  12.002  0.1657 -0.1572 -0.2313
17600TIP3    H174291   5.429   0.073  11.970  1.1453  0.6552  2.7716
17600TIP3    H274292   5.289   0.129  11.983  0.6688  0.2151 -0.1246
17601TIP3   OH274293   4.135   2.113  12.947  0.2703  0.4555 -0.2699
17601TIP3    H174294   4.145   2.128  13.041 -0.6783 -0.1040 -0.0806
17601TIP3    H274295   4.087   2.030  12.941 -0.9256  1.2205 -1.2379
17602TIP3   OH274296   3.446   2.091  12.457  0.3761 -0.1280 -0.3891
17602TIP3    H174297   3.381   2.157  12.433 -1.1565 -1.5950 -0.3580
17602TIP3    H274298   3.519   2.141  12.495 -0.5821  1.5576 -0.7466
17603TIP3   OH274299   4.878   4.569  11.067  0.1491  0.9999  0.0363
17603TIP3    H174300   4.853   4.501  11.005 -0.4948  2.3051 -1.1577
17603TIP3    H274301   4.854   4.533  11.153  2.5592 -1.5020 -0.2771
17604TIP3   OH274302   5.346   6.317   7.066 -0.2094  0.1195  0.2961
17604TIP3    H174303   5.438   6.306   7.042  0.2832 -0.1482  2.1899
17604TIP3    H274304   5.312   6.228   7.074  0.0524  0.1452  1.9999
17605TIP3   OH274305   3.063   6.778   5.323  0.1934  0.7081  0.5554
17605TIP3    H174306   3.088   6.862   5.361 -0.7672  1.8328 -1.2384
17605TIP3    H274307   3.020   6.800   5.241  0.6253 -1.5823 -0.3307
17606TIP3   OH274308   0.419   6.218   6.383  0.2789 -0.3457 -0.0985
17606TIP3    H174309   0.348   6.154   6.379  0.2095 -0.2944  0.2763
17606TIP3    H274310   0.385   6.287   6.440  0.9011 -0.6502  0.6402
17607TIP3   OH274311   6.463   0.227   1.587 -0.1808 -0.2624 -0.2362
17607TIP3    H174312   6.514   0.308   1.586 -0.7142  0.0719 -0.4678
17607TIP3    H274313   6.403   0.236   1.514 -0.1012 -0.9621 -0.3868
17608TIP3   OH274314   4.955   5.430   3.611 -0.1514 -0.7343  0.3056
17608TIP3    H174315   5.022   5.451   3.677 -0.4642 -0.1477  0.4376
17608TIP3    H274316   5.003   5.383   3.543  0.0997 -1.7257  1.1536
17609TIP3   OH274317   2.134   1.782   5.118  0.2264  0.0867  0.0927
17609TIP3    H174318   2.137   1.830   5.035  0.3083  0.5155  0.3408
17609TIP3    H274319   2.213   1.728   5.118  0.7534  0.8418  0.3362
17610TIP3   OH274320   2.175   4.592  13.465 -0.0289  0.6810  0.3197
17610TIP3    H174321   2.202   4.608  13.555 -2.2285  2.8361  0.6392
17610TIP3    H274322   2.215   4.662  13.415  2.7151 -1.5481 -0.7521
17611TIP3   OH274323   4.982   5.528  15.229 -0.2457 -0.3336  0.2157
17611TIP3    H174324   4.963   5.484  15.146  0.3276  2.5607 -1.4880
17611TIP3    H274325   4.896   5.555  15.262 -0.2193  1.5702 -1.1964
17612TIP3   OH274326   6.453   4.124   0.879 -0.6340  0.0352 -0.0714
17612TIP3    H174327   6.516   4.056   0.854 -1.9481 -1.2390  0.0382
17612TIP3    H274328   6.489   4.160   0.961 -0.7602 -1.6395  0.7406
17613TIP3   OH274329   5.292   5.005   4.725  0.5613 -0.0539  0.2992
17613TIP3    H174330   5.351   4.992   4.651  1.9006  0.3053  1.2812
17613TIP3    H274331   5.322   5.086   4.767 -2.0679  1.4148 -0.5042
17614TIP3   OH274332   4.627   4.731  13.699 -0.3529 -0.1614 -0.2144
17614TIP3    H174333   4.567   4.706  13.770 -0.4380  2.1449  0.5702
17614TIP3    H274334   4.573   4.782  13.639 -0.1433 -1.6478 -1.6780
17615TIP3   OH274335   2.187   3.641   3.493  0.0496  0.1681 -0.2477
17615TIP3    H174336   2.268   3.594   3.474  0.3403  0.4923  0.1900
17615TIP3    H274337   2.167   3.688   3.411  0.2004 -0.0617 -0.4182
17616TIP3   OH274338   5.282   2.440   5.904  0.0170  0.3438 -0.2374
17616TIP3    H174339   5.238   2.439   5.819 -1.6817  0.0050  0.6317
17616TIP3    H274340   5.233   2.503   5.956  1.0839  0.5898  0.4842
17617TIP3   OH274341   0.676   5.998   4.212  0.2272 -0.1758  0.1309
17617TIP3    H174342   0.602   6.056   4.228  0.9175  0.8380 -0.2533
17617TIP3    H274343   0.639   5.924   4.163 -0.4450  0.5570 -0.4831
17618TIP3   OH274344   1.705   5.792   4.810  0.6663  0.3171  0.0953
17618TIP3    H174345   1.614   5.797   4.780  0.1672 -0.2219  1.4647
17618TIP3    H274346   1.750   5.863   4.764 -1.0270  2.2578  1.3712
17619TIP3   OH274347   4.391   2.628  13.774  0.0829 -0.3382  0.2444
17619TIP3    H174348   4.357   2.644  13.686  1.6246 -0.6797 -0.4295
17619TIP3    H274349   4.406   2.715  13.811 -0.6522 -0.1959  0.2031
17620TIP3   OH274350   1.820   3.807   5.062 -0.0608  0.3579 -0.5523
17620TIP3    H174351   1.910   3.790   5.033  0.6409  0.4983  1.4846
17620TIP3    H274352   1.783   3.721   5.081  0.0348  0.3880 -0.2359
17621TIP3   OH274353   5.013   2.385   0.671  0.1224  0.2766 -0.6221
17621TIP3    H174354   4.928   2.429   0.678  0.2792  0.3630  0.9160
17621TIP3    H274355   5.051   2.420   0.590 -2.0283 -1.0823 -2.2590
17622TIP3   OH274356   1.127   3.461  13.807  0.2896  0.2383  0.0942
17622TIP3    H174357   1.043   3.417  13.790  1.6447 -2.5759  0.4248
17622TIP3    H274358   1.130   3.470  13.902  2.6908 -4.7494  0.6802
17623TIP3   OH274359   3.303   1.457  16.225  0.1318 -0.4845 -0.0529
17623TIP3    H174360   3.298   1.550  16.205 -0.8478 -0.3829  0.6658
17623TIP3    H274361   3.306   1.453  16.320 -2.3691 -1.2983  0.0163
17624TIP3   OH274362   0.635   4.917   5.305  0.3913  0.2004 -0.4846
17624TIP3    H174363   0.723   4.951   5.292  0.2755 -0.3229 -2.7321
17624TIP3    H274364   0.588   4.940   5.225 -1.2228 -0.4517  0.2561
17625TIP3   OH274365   5.581   3.011   0.072 -1.1906  0.2640 -0.0091
17625TIP3    H174366   5.523   2.942   0.040 -0.1891 -0.1076 -1.0498
17625TIP3    H274367   5.522   3.081   0.101 -2.1685  1.2791 -4.0969
17626TIP3   OH274368   6.687   2.637  15.780 -0.2907  0.1388 -0.4063
17626TIP3    H174369   6.754   2.654  15.845  0.0730  0.5117 -0.8769
17626TIP3    H274370   6.693   2.543  15.763  0.7336  0.3295 -1.1233
17627TIP3   OH274371   5.793   6.038  16.145 -0.8817 -0.1496 -0.5104
17627TIP3    H174372   5.763   6.034  16.054 -0.1122  2.0317 -0.8877
17627TIP3    H274373   5.716   6.015  16.197 -1.4830 -0.8389 -1.7007
17628TIP3   OH274374   0.058   5.363  14.412 -0.5666 -0.6249 -0.2566
17628TIP3    H174375   0.005   5.348  14.334  1.8467 -2.5300 -1.5711
17628TIP3    H274376   0.144   5.387  14.379  0.3719 -1.0246  1.8195
17629TIP3   OH274377   2.444   5.854  17.276 -0.2701 -0.1166  0.2475
17629TIP3    H174378   2.495   5.894  17.347 -0.1085  0.0252  0.0514
17629TIP3    H274379   2.502   5.858  17.200 -0.4509 -0.2545  0.1028
17630TIP3   OH274380   0.826   6.556   2.713 -0.1330 -0.8092 -0.1427
17630TIP3    H174381   0.853   6.636   2.667 -2.0173  1.2453  2.1934
17630TIP3    H274382   0.907   6.520   2.748  0.4336  1.8577  1.4799
17631TIP3   OH274383   6.377   3.804   0.004  0.3552  0.2368 -0.5571
17631TIP3    H174384   6.457   3.855   0.013  1.7270 -2.3064  2.3682
17631TIP3    H274385   6.401   3.731  -0.055  0.6614 -1.3270  1.4541
17632TIP3   OH274386   3.085   4.617  13.242  0.0508 -0.0540 -0.2147
17632TIP3    H174387   3.012   4.645  13.188 -1.0210  1.6201  1.9868
17632TIP3    H274388   3.157   4.603  13.181 -0.8984  2.4858 -1.9875
17633TIP3   OH274389   2.957   1.348  11.875  0.5381 -0.1159 -0.6465
17633TIP3    H174390   2.979   1.293  11.800 -0.1632  0.4455 -1.2787
17633TIP3    H274391   2.888   1.406  11.842  0.1871  0.0970  0.4499
17634TIP3   OH274392   2.455   2.596  16.001 -0.3429  0.4877 -0.1671
17634TIP3    H174393   2.491   2.684  16.004 -0.6694  0.6219 -0.2130
17634TIP3    H274394   2.469   2.561  16.089 -0.1121  0.5443 -0.1796
17635TIP3   OH274395   6.376   4.341   4.269 -0.1023  0.6803  0.0043
17635TIP3    H174396   6.411   4.424   4.301  1.0653  0.3064 -0.2574
17635TIP3    H274397   6.374   4.284   4.346 -1.0036  0.9714  0.2067
17636TIP3   OH274398   6.433   3.755  16.299 -0.4092 -0.0683 -0.2570
17636TIP3    H174399   6.510   3.698  16.308  0.0961  0.4915 -1.0508
17636TIP3    H274400   6.462   3.827  16.244 -1.5567  0.0571 -0.7094
17637TIP3   OH274401   3.885   5.487  12.917 -0.2149  0.1458  0.2256
17637TIP3    H174402   3.976   5.466  12.898 -0.7549 -1.5728 -0.5388
17637TIP3    H274403   3.837   5.462  12.838 -1.4278  0.5047  0.8309
17638TIP3   OH274404   3.368   5.119  15.625 -0.1156 -0.0538 -0.1265
17638TIP3    H174405   3.435   5.052  15.634  0.7377  0.7878 -0.2192
17638TIP3    H274406   3.351   5.124  15.531  0.0486  0.0897 -0.1479
17639TIP3   OH274407   3.322   2.456   0.989  0.5260 -0.2449 -0.3115
17639TIP3    H174408   3.343   2.369   1.022  0.7347 -0.1581 -0.2180
17639TIP3    H274409   3.335   2.450   0.894  1.2978 -0.0957 -0.2153
17640TIP3   OH274410   1.433   3.472  15.829  0.0723  0.3240  0.0780
17640TIP3    H174411   1.474   3.548  15.786  0.7965  0.6324  1.2787
17640TIP3    H274412   1.477   3.467  15.914 -0.4557 -1.0388  0.2764
17641TIP3   OH274413   2.910   1.419   3.954  0.0561 -0.3422 -0.0538
17641TIP3    H174414   2.856   1.426   3.875  0.3159 -0.5521 -0.2493
17641TIP3    H274415   2.847   1.407   4.025 -0.2144  0.4956 -0.1474
17642TIP3   OH274416   6.708   2.758  15.515  0.8305 -0.1864  0.4155
17642TIP3    H174417   6.738   2.733  15.603  1.4014 -0.2500  0.2024
17642TIP3    H274418   6.618   2.788  15.529 -0.5269 -3.9534  0.4613
17643TIP3   OH274419   1.186   6.616  11.121 -0.0421 -0.1112  0.2798
17643TIP3    H174420   1.265   6.655  11.083 -0.4928 -0.0675 -0.6274
17643TIP3    H274421   1.214   6.529  11.149  1.0983  1.0307  2.8101
17644TIP3   OH274422   3.703   0.443   0.345  0.2817  0.7732  0.3170
17644TIP3    H174423   3.652   0.361   0.350  0.1971  0.8484  0.6912
17644TIP3    H274424   3.709   0.473   0.435 -2.1646  2.6936 -0.1105
17645TIP3   OH274425   2.217   1.795   6.202 -0.0083 -0.0461 -0.5010
17645TIP3    H174426   2.243   1.839   6.121 -0.9943 -1.6244 -1.7070
17645TIP3    H274427   2.123   1.807   6.208 -0.0476 -0.5611  0.0355
17646TIP3   OH274428   0.160   5.552   1.951  0.4481 -0.1616 -0.1871
17646TIP3    H174429   0.155   5.645   1.931  0.8113 -0.1140 -0.0492
17646TIP3    H274430   0.246   5.525   1.921  0.1383 -0.5728 -0.7289
17647TIP3   OH274431   2.654   2.105  16.957 -0.1489 -0.0326 -0.1468
17647TIP3    H174432   2.668   2.040  16.888  1.1290 -1.9391  1.8323
17647TIP3    H274433   2.606   2.058  17.026  3.5098  0.0799  2.6655
17648TIP3   OH274434   2.160   4.947   4.241  0.8310 -0.6761 -0.1139
17648TIP3    H174435   2.130   4.909   4.159  1.3475 -0.7640 -0.2593
17648TIP3    H274436   2.116   4.895   4.309  0.1857 -0.4234 -0.3338
17649TIP3   OH274437   6.036   3.704  16.950 -0.1557 -0.4041  0.4151
17649TIP3    H174438   6.126   3.678  16.930 -0.6697 -0.3817 -2.1639
17649TIP3    H274439   6.043   3.758  17.029  2.3491  1.2168 -0.8612
17650TIP3   OH274440   1.361   6.208   5.062 -0.3525 -0.2086 -0.2624
17650TIP3    H174441   1.440   6.262   5.062 -0.2881 -0.3020 -0.3366
17650TIP3    H274442   1.324   6.219   4.974 -0.6492  0.1656 -0.0916
17651TIP3   OH274443   2.281   4.828  13.336 -0.3131 -0.3976 -1.1208
17651TIP3    H174444   2.303   4.801  13.247 -1.5463 -0.1087 -1.5128
17651TIP3    H274445   2.219   4.900  13.326  1.1337  1.0321 -0.0365
17652TIP3   OH274446   3.438   6.104  12.761  0.6410 -0.1187  0.1040
17652TIP3    H174447   3.385   6.028  12.738  2.3564 -0.5936 -2.5220
17652TIP3    H274448   3.392   6.179  12.724  1.0421 -0.3670 -0.9088
17653TIP3   OH274449   4.356   2.752  14.988  0.6444  0.1028 -0.0677
17653TIP3    H174450   4.332   2.799  15.067 -0.0915 -0.3761  0.0003
17653TIP3    H274451   4.444   2.784  14.966  0.4137  1.0074  0.3434
17654TIP3   OH274452   3.812   2.609   3.529 -0.6007 -0.3317  0.4943
17654TIP3    H174453   3.806   2.694   3.573  0.7103  0.2658 -0.4412
17654TIP3    H274454   3.749   2.615   3.457 -0.3330 -0.0567  0.2811
17655TIP3   OH274455   3.737   3.840  12.526 -0.2534  0.0973 -0.2279
17655TIP3    H174456   3.678   3.805  12.459 -0.6282 -2.2944  1.2956
17655TIP3    H274457   3.689   3.914  12.563 -0.9738  0.1035 -1.1504
17656TIP3   OH274458   0.446   1.831  14.897  1.1935  0.2804 -0.3911
17656TIP3    H174459   0.365   1.829  14.948  0.8972  0.0761 -0.8662
17656TIP3    H274460   0.418   1.855  14.808  1.4885 -1.1204 -0.8714
17657TIP3   OH274461   0.879   2.003  11.335 -0.7561  0.3200  0.6049
17657TIP3    H174462   0.881   1.912  11.306 -0.2756  0.0022  1.6037
17657TIP3    H274463   0.874   2.054  11.255  0.1065 -0.5486 -0.0067
17658TIP3   OH274464   0.346   1.959  17.175 -0.4570 -0.2578 -0.6465
17658TIP3    H174465   0.299   2.032  17.134 -0.2445  1.0874  1.4271
17658TIP3    H274466   0.315   1.959  17.265  0.6537 -1.8243 -0.2573
17659TIP3   OH274467   6.711   0.250  15.237 -0.5312  0.4021  0.5033
17659TIP3    H174468   6.647   0.267  15.305  0.3283  0.6798  1.2532
17659TIP3    H274469   6.696   0.318  15.171 -0.6524  0.7864  0.9283
17660TIP3   OH274470   3.940   6.688  13.982  0.3103  0.3121  0.8299
17660TIP3    H174471   3.870   6.655  14.039 -0.0039  0.5814  0.6028
17660TIP3    H274472   4.011   6.625  13.993 -0.2163 -0.3471  0.5319
17661TIP3   OH274473   5.211   6.265   5.224  0.3023 -0.0529 -0.3702
17661TIP3    H174474   5.290   6.219   5.255  1.6993  1.0315 -2.2076
17661TIP3    H274475   5.173   6.303   5.303  0.5600 -2.1865  0.8131
17662TIP3   OH274476   2.594   1.879   4.050 -0.5902 -0.3511  0.5145
17662TIP3    H174477   2.644   1.883   4.131 -1.6360 -2.2864  1.2896
17662TIP3    H274478   2.653   1.838   3.986  0.1727  1.0209  0.3220
17663TIP3   OH274479   0.673   4.351  12.139 -0.1341  0.2069  0.4877
17663TIP3    H174480   0.668   4.417  12.208  0.6142 -0.1985  0.9379
17663TIP3    H274481   0.699   4.271  12.184  1.9815  0.3098 -0.4825
17664TIP3   OH274482   1.795   5.616  16.853  0.4325 -0.0142 -0.0662
17664TIP3    H174483   1.865   5.551  16.842 -0.3877 -1.1932  1.5951
17664TIP3    H274484   1.805   5.674  16.777  3.5262  0.1573  0.3893
17665TIP3   OH274485   2.280   0.501   1.002  0.4543 -0.0855 -0.3282
17665TIP3    H174486   2.270   0.411   1.030  0.9311  0.0044  0.1418
17665TIP3    H274487   2.374   0.510   0.982  0.6925  0.7037  1.0566
17666TIP3   OH274488   0.133   1.857   0.615 -0.1150  0.4003  0.5503
17666TIP3    H174489   0.100   1.767   0.605  3.3105 -0.6220 -2.5497
17666TIP3    H274490   0.183   1.855   0.697 -0.8721 -0.1962  1.0167
17667TIP3   OH274491   4.289   1.915   3.125 -0.1981  0.4239 -0.1040
17667TIP3    H174492   4.338   1.835   3.144 -0.8316  0.1323  0.3243
17667TIP3    H274493   4.340   1.985   3.165  0.0941  0.1749 -0.0392
17668TIP3   OH274494   0.679   1.204   1.812  0.1274 -0.5645 -0.0805
17668TIP3    H174495   0.727   1.283   1.786 -3.1782  1.7728  0.6483
17668TIP3    H274496   0.594   1.236   1.841 -0.6383 -4.2637  2.0307
17669TIP3   OH274497   1.671   5.776  12.537  0.2728 -0.6991  0.1298
17669TIP3    H174498   1.703   5.845  12.595 -2.5019  0.9001 -0.1426
17669TIP3    H274499   1.633   5.823  12.463  2.4658 -2.6879 -2.3178
17670TIP3   OH274500   1.958   2.254   1.143 -0.1949  0.5476 -0.1139
17670TIP3    H174501   1.949   2.241   1.049  0.0765 -0.7365  0.0188
17670TIP3    H274502   2.049   2.282   1.155 -0.4338  1.4010 -0.2989
17671TIP3   OH274503   4.869   6.764  16.665 -0.0215 -0.1735  0.2516
17671TIP3    H174504   4.781   6.752  16.630 -0.5327 -1.0248  1.8024
17671TIP3    H274505   4.925   6.714  16.604 -0.7989 -0.9364  0.1508
17672TIP3   OH274506   1.069   5.999   3.126  0.1974  0.5452 -0.0749
17672TIP3    H174507   1.132   5.941   3.169 -1.4316 -2.1731 -1.2280
17672TIP3    H274508   1.045   6.063   3.194  0.7242 -1.1795  1.7856
17673TIP3   OH274509   1.991   4.762  12.505  0.1993  0.2395 -0.0026
17673TIP3    H174510   2.055   4.714  12.451 -1.2273 -1.5934 -0.1162
17673TIP3    H274511   1.929   4.695  12.534 -1.7333  1.9904  0.0281
17674TIP3   OH274512   2.040   0.973   2.625  0.1428  0.1805 -0.1469
17674TIP3    H174513   2.033   0.884   2.589  1.3446  0.2276 -0.5279
17674TIP3    H274514   1.982   1.025   2.570 -0.3042 -0.3077 -0.1438
17675TIP3   OH274515   0.978   5.056  14.639 -0.5458  0.2645 -0.5377
17675TIP3    H174516   0.985   5.047  14.544 -0.8745  0.0533 -0.5415
17675TIP3    H274517   0.949   4.970  14.669 -0.1239  0.2313 -0.2149
17676TIP3   OH274518   0.772   1.063   3.067  0.1173  0.3390 -0.1913
17676TIP3    H174519   0.799   1.155   3.074  1.5343 -0.0952  0.2135
17676TIP3    H274520   0.853   1.014   3.075 -0.1943 -0.8689 -3.4438
17677TIP3   OH274521   1.939   6.455   4.347  0.2205 -0.3248  0.3238
17677TIP3    H174522   1.986   6.536   4.363 -0.7615  0.4157 -0.4170
17677TIP3    H274523   2.006   6.387   4.346  1.5946  0.9868 -2.9109
17678TIP3   OH274524   1.272   0.688  16.750  0.3395 -0.1038 -0.4310
17678TIP3    H174525   1.251   0.596  16.768  0.0578 -0.0434 -0.4571
17678TIP3    H274526   1.188   0.728  16.729  0.5529  0.0161 -1.0561
17679TIP3   OH274527   1.301   4.500   4.923  0.2444 -0.0891 -0.8774
17679TIP3    H174528   1.354   4.523   4.847 -0.6257 -2.0445 -2.1438
17679TIP3    H274529   1.221   4.552   4.912  0.7688  0.8255 -0.4264
17680TIP3   OH274530   2.564   5.179   5.336 -0.0027  0.0850 -0.2912
17680TIP3    H174531   2.655   5.148   5.340 -0.0794 -0.0205  0.8506
17680TIP3    H274532   2.512   5.105   5.367 -0.4864  0.1165 -1.0326
17681TIP3   OH274533   4.346   4.722  15.879  0.1170 -0.3740 -1.0349
17681TIP3    H174534   4.306   4.776  15.947  0.8101 -1.3821  0.2063
17681TIP3    H274535   4.273   4.689  15.828 -0.2654  2.5530 -2.4747
17682TIP3   OH274536   6.150   1.544   4.651 -0.5343  0.2241  0.2641
17682TIP3    H174537   6.121   1.514   4.565  1.0333  0.7945 -0.4790
17682TIP3    H274538   6.170   1.463   4.699 -0.4755 -0.0583 -0.2369
17683TIP3   OH274539   2.744   0.458  11.205 -0.3233  0.2721  0.1155
17683TIP3    H174540   2.831   0.499  11.205 -0.6864  1.0548  0.0418
17683TIP3    H274541   2.738   0.415  11.120 -0.5699  1.4264 -0.4509
17684TIP3   OH274542   0.007   6.084  11.220 -0.1211  0.4098  0.0011
17684TIP3    H174543   0.089   6.035  11.223 -0.8806 -0.8586  0.2488
17684TIP3    H274544   0.034   6.174  11.200  1.5219  0.4727  2.2394
17685TIP3   OH274545   0.301   2.504  16.275 -0.6008  0.0329 -0.4387
17685TIP3    H174546   0.284   2.466  16.361 -1.5580  0.0487 -0.6118
17685TIP3    H274547   0.395   2.492  16.261 -0.4397  0.0315  0.6053
17686TIP3   OH274548   2.526   0.312   3.311 -0.2903  0.3373  0.1139
17686TIP3    H174549   2.541   0.248   3.381 -0.4001 -1.1020 -1.1797
17686TIP3    H274550   2.602   0.302   3.253 -1.4060 -0.1797 -1.2737
17687TIP3   OH274551   5.522   0.729   0.013 -0.1270  0.0791 -0.4953
17687TIP3    H174552   5.485   0.689  -0.066  0.5335 -0.7086 -0.4151
17687TIP3    H274553   5.493   0.672   0.084  1.0771 -0.4396 -0.4131
17688TIP3   OH274554   1.838   6.303  12.268 -0.0056  0.3989  0.0522
17688TIP3    H174555   1.848   6.323  12.362 -0.4818  0.5712  0.0639
17688TIP3    H274556   1.909   6.352  12.227  0.7432 -0.3684  0.4121
17689TIP3   OH274557   6.610   1.039   1.048  0.0066  0.0205 -0.1701
17689TIP3    H174558   6.597   1.002   1.135 -0.9886 -0.3151 -0.4645
17689TIP3    H274559   6.689   1.093   1.057 -1.5264  2.0368  1.6139
17690TIP3   OH274560   3.198   1.134   5.809 -0.5910 -0.1823 -0.1801
17690TIP3    H174561   3.239   1.063   5.859 -0.5955 -0.6228 -0.7902
17690TIP3    H274562   3.224   1.214   5.855  1.2152 -0.4257 -0.7300
17691TIP3   OH274563   1.435   1.512   1.767 -0.2904 -0.0833 -0.6159
17691TIP3    H174564   1.379   1.586   1.744 -0.3282 -0.1831 -0.8412
17691TIP3    H274565   1.499   1.549   1.828 -1.0990 -0.1503  0.2827
17692TIP3   OH274566   4.001   5.293   3.798 -0.0479 -0.5130  0.5174
17692TIP3    H174567   4.070   5.267   3.737  0.2038 -1.3126  1.1308
17692TIP3    H274568   3.921   5.253   3.762 -0.2842  0.7439 -0.4115
17693TIP3   OH274569   5.818   0.964   4.568  0.4579 -0.0105 -0.0435
17693TIP3    H174570   5.733   1.006   4.577 -0.4048 -1.7048 -0.1012
17693TIP3    H274571   5.881   1.035   4.581 -0.9299  0.9785  1.5675
17694TIP3   OH274572   6.019   6.125  16.404 -0.1911 -0.4034  0.3502
17694TIP3    H174573   5.947   6.138  16.466 -1.0178  0.4934 -0.7505
17694TIP3    H274574   6.098   6.122  16.458 -0.8268  1.0331  1.4033
17695TIP3   OH274575   5.541   5.473  13.324 -0.0208  0.6780  0.2196
17695TIP3    H174576   5.452   5.498  13.349 -0.6340  0.5931 -1.7971
17695TIP3    H274577   5.531   5.390  13.278  1.2272  0.2139  0.7587
17696TIP3   OH274578   4.633   5.251  14.644  0.2960  0.1926  0.0661
17696TIP3    H174579   4.724   5.244  14.671  0.1038  1.6131  1.1604
17696TIP3    H274580   4.620   5.345  14.630 -1.1118  0.0406  0.2955
17697TIP3   OH274581   3.078   4.594  17.136  0.5004 -0.1870 -0.2508
17697TIP3    H174582   3.020   4.518  17.133 -0.4278  0.4475  0.9215
17697TIP3    H274583   3.028   4.660  17.183  1.1588  1.2778 -1.5843
17698TIP3   OH274584   6.696   3.124   3.813 -0.0313 -0.4596 -0.3141
17698TIP3    H174585   6.765   3.190   3.821  0.3971 -0.9898  0.4283
17698TIP3    H274586   6.741   3.040   3.821 -0.7394 -0.8152  0.0736
17699TIP3   OH274587   6.438   6.659  15.440  0.0555  0.1641 -0.4284
17699TIP3    H174588   6.354   6.626  15.410 -0.4453 -0.1154  1.2399
17699TIP3    H274589   6.466   6.719  15.371 -2.5468  1.9720  0.0305
17700TIP3   OH274590   4.143   4.074   0.996 -0.5313  0.3466  0.0767
17700TIP3    H174591   4.140   3.979   1.008  1.8221  0.1781 -0.2603
17700TIP3    H274592   4.106   4.110   1.076 -3.3843 -0.8343 -0.6490
17701TIP3   OH274593   6.642   4.108  15.466  0.1515 -0.0706  0.0860
17701TIP3    H174594   6.729   4.118  15.505  0.5212 -0.8155 -0.5500
17701TIP3    H274595   6.608   4.198  15.464  0.7332  0.1798  0.7064
17702TIP3   OH274596   5.662   1.536   3.465  0.0138  0.2192 -0.3616
17702TIP3    H174597   5.703   1.450   3.454  1.1103  0.8603 -1.2752
17702TIP3    H274598   5.580   1.531   3.415 -0.2367 -0.5015  0.1140
17703TIP3   OH274599   4.454   5.932  15.858  0.2914  0.2684  0.1233
17703TIP3    H174600   4.381   5.989  15.831  0.1926 -0.3571 -0.9472
17703TIP3    H274601   4.513   5.932  15.783  1.3700  0.7230  0.9738
17704TIP3   OH274602   4.200   2.947  11.346 -0.6752  0.3727  0.3812
17704TIP3    H174603   4.122   2.907  11.384 -1.4845 -0.3308 -1.9326
17704TIP3    H274604   4.270   2.930  11.409 -1.8270 -1.3735  1.1930
17705TIP3   OH274605   5.219   3.748  11.164 -0.1671  0.6981 -0.9555
17705TIP3    H174606   5.216   3.692  11.086  1.5207 -0.9896  0.1516
17705TIP3    H274607   5.137   3.727  11.211  0.7939 -1.4844 -0.1686
17706TIP3   OH274608   4.856   5.873   3.709  0.2512  0.6230  0.3231
17706TIP3    H174609   4.926   5.912   3.657  1.1750  0.6254  1.5385
17706TIP3    H274610   4.897   5.855   3.794 -0.5156 -1.7600  0.2192
17707TIP3   OH274611   2.291   3.493   1.326 -0.6543  0.1886  0.0507
17707TIP3    H174612   2.264   3.485   1.234 -0.9761 -0.0239  0.1679
17707TIP3    H274613   2.210   3.492   1.376 -0.5024  0.7234  0.3107
17708TIP3   OH274614   5.985   2.789   4.133  0.0212  0.2751 -0.3602
17708TIP3    H174615   6.051   2.802   4.201 -0.5896 -0.3568  0.3726
17708TIP3    H274616   6.004   2.703   4.097 -0.7564 -0.1726  0.2725
17709TIP3   OH274617   6.169   5.239  15.551  0.1064 -0.3638 -0.4395
17709TIP3    H174618   6.154   5.172  15.618 -0.6824  0.1608 -0.0821
17709TIP3    H274619   6.190   5.318  15.601  0.9437 -0.3139 -0.8554
17710TIP3   OH274620   2.709   1.439  12.253  0.0774  0.4535 -0.2836
17710TIP3    H174621   2.760   1.518  12.232 -1.4486  1.2341 -1.1728
17710TIP3    H274622   2.627   1.472  12.289  0.5935 -0.8167  2.1098
17711TIP3   OH274623   6.377   6.103   4.502  0.0024  0.0338 -0.4674
17711TIP3    H174624   6.335   6.165   4.443 -0.5982 -1.1168 -1.2700
17711TIP3    H274625   6.318   6.096   4.576  0.7121  1.4137  0.2423
17712TIP3   OH274626   5.588   4.135   2.284 -0.2003 -0.3640  0.4607
17712TIP3    H174627   5.627   4.219   2.257 -0.5178  0.4158  2.3616
17712TIP3    H274628   5.558   4.096   2.202 -0.0601  1.3951 -0.4699
17713TIP3   OH274629   1.352   2.826   2.908 -0.0704  0.0889 -0.4511
17713TIP3    H174630   1.368   2.737   2.940 -1.6688 -0.4840 -1.2239
17713TIP3    H274631   1.404   2.882   2.966 -0.0605 -1.2433  0.8424
17714TIP3   OH274632   4.334   3.079  13.564  0.0787 -0.3868 -0.0741
17714TIP3    H174633   4.279   3.083  13.485 -0.9595 -0.9687  0.5942
17714TIP3    H274634   4.423   3.066  13.531 -0.1006  1.1339 -1.1977
17715TIP3   OH274635   1.327   4.875  13.565 -0.3037  0.0865 -0.2726
17715TIP3    H174636   1.371   4.901  13.646  0.9463  0.7550 -1.1551
17715TIP3    H274637   1.373   4.922  13.496 -1.2372 -0.6213 -1.4005
17716TIP3   OH274638   1.307   3.043   3.307  0.4026 -0.1530 -0.2037
17716TIP3    H174639   1.290   2.951   3.286  2.7653 -0.7592  0.3834
17716TIP3    H274640   1.393   3.061   3.271  0.1090  1.7480 -0.0143
17717TIP3   OH274641   6.316   2.294  15.672  0.4321  0.2108  0.0931
17717TIP3    H174642   6.265   2.234  15.618 -1.6370  1.2833  0.8230
17717TIP3    H274643   6.299   2.267  15.762 -0.7407  2.0282  0.4463
17718TIP3   OH274644   5.954   3.074  13.166 -0.3018 -0.5397 -0.5211
17718TIP3    H174645   5.896   3.134  13.120  1.7635  1.7374 -0.2184
17718TIP3    H274646   5.998   3.026  13.095  1.9501  2.0803 -0.9569
17719TIP3   OH274647   4.819   0.526   0.883  0.2847 -0.0945  0.0257
17719TIP3    H174648   4.895   0.576   0.855 -1.2229  2.7069  0.7270
17719TIP3    H274649   4.855   0.447   0.924  2.7300  0.3902 -1.1477
17720TIP3   OH274650   4.878   0.052   3.363  0.0990  0.4725  0.0408
17720TIP3    H174651   4.928   0.111   3.418  0.8823 -0.4083  0.2836
17720TIP3    H274652   4.917  -0.034   3.378 -0.6655 -0.0171 -0.7266
17721TIP3   OH274653   5.402   6.683  13.148 -0.1867  0.1869  0.0611
17721TIP3    H174654   5.344   6.714  13.079  1.5198 -1.1612 -2.0221
17721TIP3    H274655   5.489   6.716  13.123  0.4014 -0.0552  1.7260
17722TIP3   OH274656   3.219   3.914  12.532 -0.1132 -0.5845  0.0682
17722TIP3    H174657   3.202   4.008  12.529 -1.7981 -0.9335 -2.5325
17722TIP3    H274658   3.146   3.878  12.583 -0.3433 -0.6564 -0.3108
17723TIP3   OH274659   5.970   2.071  13.526  0.7066  0.1926 -0.5887
17723TIP3    H174660   6.023   1.992  13.535 -0.8273 -0.6788  1.2259
17723TIP3    H274661   5.890   2.042  13.483  0.0277  0.6862  0.3159
17724TIP3   OH274662   3.447   4.462  17.065  0.0619  0.3521  0.2991
17724TIP3    H174663   3.367   4.411  17.079  0.5275 -0.0547  1.4903
17724TIP3    H274664   3.427   4.549  17.099 -0.5103  0.8150 -1.1466
17725TIP3   OH274665   2.482   1.922  17.112 -0.2186 -0.1891 -0.2674
17725TIP3    H174666   2.402   1.903  17.063  0.4542 -1.4486 -0.8900
17725TIP3    H274667   2.455   1.987  17.177 -1.7184 -0.5067 -0.5513
17726TIP3   OH274668   4.794   4.315  12.547 -0.1959  0.4153  0.4519
17726TIP3    H174669   4.829   4.303  12.458 -0.8030  1.7115  0.0335
17726TIP3    H274670   4.871   4.331  12.601  0.1072  0.4334  0.0192
17727TIP3   OH274671   2.674   6.477   3.239 -0.3454 -0.3225 -0.2922
17727TIP3    H174672   2.578   6.475   3.236 -0.3746 -0.0759  0.5763
17727TIP3    H274673   2.695   6.513   3.325  0.5359 -2.5053  0.4486
17728TIP3   OH274674   4.722   6.405   2.867 -0.3049 -0.2495 -0.6237
17728TIP3    H174675   4.745   6.488   2.909  1.1270 -1.3538  0.7851
17728TIP3    H274676   4.754   6.415   2.777 -2.6739  1.7991 -1.3293
17729TIP3   OH274677   5.301   1.811   0.719  0.1470 -0.0943  0.4791
17729TIP3    H174678   5.351   1.883   0.756 -0.1435  0.0322  0.6248
17729TIP3    H274679   5.357   1.777   0.648  0.2057  0.3866  0.2919
17730TIP3   OH274680   2.427   5.460  14.946 -0.3504  0.0558 -0.0334
17730TIP3    H174681   2.506   5.412  14.970 -0.0115  0.0519 -1.1267
17730TIP3    H274682   2.441   5.484  14.854 -1.1611  0.9577  0.0757
17731TIP3   OH274683   2.430   6.079   5.296 -0.5283  0.1913 -0.2013
17731TIP3    H174684   2.409   6.167   5.327 -0.2289  0.1837  0.0252
17731TIP3    H274685   2.506   6.091   5.239 -1.1695  0.2224 -1.0533
17732TIP3   OH274686   6.206   3.967  12.951 -0.3839  0.7950 -0.4822
17732TIP3    H174687   6.132   3.906  12.951 -0.1286  0.4846 -0.6115
17732TIP3    H274688   6.210   4.000  13.041  0.7285 -0.9127  0.1178
17733TIP3   OH274689   1.837   1.309  15.142  0.7897  0.0361  0.1796
17733TIP3    H174690   1.927   1.332  15.116  0.1073  3.1950  0.4268
17733TIP3    H274691   1.782   1.355  15.079 -0.6965 -2.1332 -0.1672
17734TIP3   OH274692   2.632   4.788  16.615  0.2948  0.2187 -0.9947
17734TIP3    H174693   2.586   4.779  16.531 -2.8500  2.5124  0.3741
17734TIP3    H274694   2.683   4.868  16.606 -0.9841  1.1161 -0.3232
17735TIP3   OH274695   3.786   2.779   5.504 -0.4025 -0.0356 -0.3050
17735TIP3    H174696   3.746   2.692   5.498 -0.6186 -0.0719  1.3830
17735TIP3    H274697   3.777   2.816   5.415  0.1746 -1.9213 -1.1678
17736TIP3   OH274698   2.447   2.637   1.992  0.3852  0.3446  0.2908
17736TIP3    H174699   2.386   2.710   2.007  0.7118  0.8352 -0.7697
17736TIP3    H274700   2.515   2.649   2.059  0.3556  0.9256  0.2235
17737TIP3   OH274701   3.721   2.032  15.104  0.1183  0.6140  0.1233
17737TIP3    H174702   3.644   1.997  15.060 -1.6523  3.3315  0.9695
17737TIP3    H274703   3.779   2.059  15.033  0.4132 -1.6192 -0.5170
17738TIP3   OH274704   6.027   0.297   0.115 -0.3287 -0.3075  0.3130
17738TIP3    H174705   6.017   0.212   0.156 -0.5970 -0.9762 -1.1224
17738TIP3    H274706   6.110   0.292   0.067  0.3436  0.7106  1.3165
17739TIP3   OH274707   5.357   4.803   4.902  0.2769 -0.3375 -0.0873
17739TIP3    H174708   5.330   4.864   4.834  0.4277 -0.8660 -0.6317
17739TIP3    H274709   5.418   4.852   4.957  0.6912 -0.1264 -0.7463
17740TIP3   OH274710   1.361   2.617  11.163  0.2980 -0.2393 -0.0288
17740TIP3    H174711   1.365   2.712  11.159  1.2278 -0.3019 -0.8181
17740TIP3    H274712   1.277   2.595  11.123  1.1727  0.1502 -2.1934
17741TIP3   OH274713   4.351   2.765   0.258 -0.3185  0.1409  0.2919
17741TIP3    H174714   4.400   2.743   0.178 -1.6857  0.0058 -0.5268
17741TIP3    H274715   4.355   2.685   0.310  2.1864  0.8255  1.2302
17742TIP3   OH274716   3.630   6.700  15.723 -0.2110  0.4373  0.2812
17742TIP3    H174717   3.590   6.754  15.791  0.7423  0.2197  1.0262
17742TIP3    H274718   3.646   6.761  15.651 -1.4888  0.6094  0.1338
17743TIP3   OH274719   4.537   4.834  16.273 -0.1343 -0.4902  0.4823
17743TIP3    H174720   4.491   4.752  16.254 -1.4842 -0.0487  1.7587
17743TIP3    H274721   4.483   4.902  16.233  0.7293 -0.1602 -0.1523
17744TIP3   OH274722   2.481   6.587   4.939  1.0059 -0.1101  0.4174
17744TIP3    H174723   2.396   6.629   4.937  0.8492 -0.4548 -2.5804
17744TIP3    H274724   2.469   6.510   4.994  0.0793  1.2323  2.1139
17745TIP3   OH274725   4.461   0.825  10.634 -0.5424 -0.2769  0.3259
17745TIP3    H174726   4.498   0.861  10.554  1.1685  0.6971  1.5339
17745TIP3    H274727   4.366   0.832  10.621 -0.2826  0.1282 -1.4908
17746TIP3   OH274728   1.387   3.856   2.263 -0.3314 -0.1811 -0.0859
17746TIP3    H174729   1.413   3.915   2.192  1.3530 -1.3840 -0.5106
17746TIP3    H274730   1.428   3.772   2.241  1.5696 -0.1767  3.1175
17747TIP3   OH274731   4.484   2.974   0.362  0.1393 -0.2008 -0.3235
17747TIP3    H174732   4.480   2.990   0.456 -1.4704  0.1157 -0.4299
17747TIP3    H274733   4.417   2.908   0.346  0.9504 -0.8479 -1.1462
17748TIP3   OH274734   3.280   3.330  13.151 -0.0123  0.2587  0.4254
17748TIP3    H174735   3.357   3.291  13.191 -0.7092 -2.8428 -1.0890
17748TIP3    H274736   3.220   3.347  13.224 -0.1717 -2.7166  1.0510
17749TIP3   OH274737   1.432   6.502   0.307  0.0665 -0.0694 -0.3428
17749TIP3    H174738   1.420   6.444   0.382 -0.7690  0.7305  0.1559
17749TIP3    H274739   1.365   6.570   0.318 -1.2552 -0.9088 -2.7613
17750TIP3   OH274740   1.047   0.667  14.921  0.1275 -0.1560 -0.2007
17750TIP3    H174741   1.076   0.583  14.957  0.6709  0.3064  0.4515
17750TIP3    H274742   0.952   0.666  14.931  0.1797 -0.4788  0.2948
17751TIP3   OH274743   5.400   1.983   0.910  0.0565 -0.1337  0.2121
17751TIP3    H174744   5.347   2.054   0.946  0.0445 -0.2017  0.3309
17751TIP3    H274745   5.485   2.023   0.892 -1.4147  1.1613 -4.4390
17752TIP3   OH274746   3.998   2.556   4.406  0.2728 -0.1351  0.4891
17752TIP3    H174747   4.051   2.520   4.478 -0.1721 -0.3441  0.7149
17752TIP3    H274748   4.058   2.557   4.331  0.6558 -0.1885  0.7893
17753TIP3   OH274749   5.260   2.386  15.725 -0.0925  0.2771 -0.3830
17753TIP3    H174750   5.339   2.438  15.714 -0.4854  1.1852  0.9043
17753TIP3    H274751   5.241   2.351  15.638  1.6826  0.0879 -0.7167
17754TIP3   OH274752   5.755   4.964  15.878 -0.0808 -0.4193 -0.7757
17754TIP3    H174753   5.809   4.991  15.803  1.3612 -1.3935 -0.1079
17754TIP3    H274754   5.737   4.871  15.862 -1.2708 -0.2012 -0.7969
17755TIP3   OH274755   1.690   2.288  12.976  0.8489  0.2487 -0.2295
17755TIP3    H174756   1.687   2.329  13.062  2.1305  0.8175 -0.4401
17755TIP3    H274757   1.655   2.355  12.917  1.2576  0.3804 -0.3283
17756TIP3   OH274758   6.525   0.200   2.921  0.0177  0.4698  0.2413
17756TIP3    H174759   6.495   0.275   2.973  1.8774  0.6257  1.1115
17756TIP3    H274760   6.618   0.216   2.907 -0.1837 -0.1869 -2.1190
17757TIP3   OH274761   1.300   4.116  17.009 -0.2687 -0.0605 -0.1948
17757TIP3    H174762   1.306   4.198  17.058 -1.8259  0.1178 -0.2749
17757TIP3    H274763   1.309   4.048  17.075 -2.5766  0.1816  0.4050
17758TIP3   OH274764   1.551   1.871   5.862  0.4136 -0.1866 -0.2005
17758TIP3    H174765   1.635   1.911   5.839  1.8036 -1.9971  1.5382
17758TIP3    H274766   1.514   1.929   5.928  0.5969  0.2745 -0.4996
17759TIP3   OH274767   3.085   4.997  13.062 -0.0090  0.0339  0.1336
17759TIP3    H174768   3.022   4.996  13.133  0.3761 -2.0863  0.4750
17759TIP3    H274769   3.120   4.908  13.059  0.3215  0.2015 -2.4011
17760TIP3   OH274770   0.400   4.758   4.970  0.8091  0.3243 -0.3422
17760TIP3    H174771   0.322   4.812   4.959 -1.2640 -2.4801 -0.0483
17760TIP3    H274772   0.422   4.765   5.062  1.2412  1.5694 -0.5418
17761TIP3   OH274773   2.428   2.888  11.391  0.0056 -0.2256  0.4273
17761TIP3    H174774   2.500   2.828  11.412 -0.0099 -0.5566 -0.4395
17761TIP3    H274775   2.430   2.953  11.461  1.3148 -0.0745  0.2657
17762TIP3   OH274776   1.613   4.402   1.730 -0.2820 -0.8275  0.3017
17762TIP3    H174777   1.705   4.399   1.705  0.0665 -1.0292  1.5893
17762TIP3    H274778   1.613   4.438   1.818 -1.5605  0.5468 -0.2468
17763TIP3   OH274779   2.207   2.211   3.626 -0.4192 -0.2469  0.2985
17763TIP3    H174780   2.153   2.208   3.547  0.5104  1.3860 -0.4253
17763TIP3    H274781   2.297   2.217   3.594  0.3186 -3.6253  1.4846
17764TIP3   OH274782   3.202   1.712  14.326 -0.7737 -0.1955 -0.1023
17764TIP3    H174783   3.146   1.779  14.287 -2.6734 -3.0332 -2.3935
17764TIP3    H274784   3.169   1.702  14.415 -0.4572  1.8737  0.2770
17765TIP3   OH274785   1.573   5.539  16.177  0.0648  0.1402  0.6658
17765TIP3    H174786   1.646   5.580  16.131 -0.0324 -0.2534  0.1671
17765TIP3    H274787   1.556   5.458  16.130  0.6373 -0.7762  1.9999
17766TIP3   OH274788   3.579   1.345   3.037  0.6417 -0.1681  0.0534
17766TIP3    H174789   3.498   1.396   3.042  1.8529  2.0151 -1.5464
17766TIP3    H274790   3.595   1.334   2.943  1.5401 -1.6538  0.3680
17767TIP3   OH274791   2.931   0.837   2.002 -0.3374 -0.5301 -0.2784
17767TIP3    H174792   3.012   0.794   2.031  0.6390  1.0156 -0.6351
17767TIP3    H274793   2.912   0.797   1.917  0.4908 -0.3671 -0.5478
17768TIP3   OH274794   1.192   3.068   2.867 -0.5614 -0.4033 -0.2721
17768TIP3    H174795   1.261   3.127   2.835 -0.2054 -0.4810  0.3427
17768TIP3    H274796   1.236   2.984   2.877 -0.2028  0.0120  2.1019
17769TIP3   OH274797   0.112   2.808  16.421 -0.5294  0.3690  0.6970
17769TIP3    H174798   0.175   2.773  16.485 -2.2608 -0.8186  1.7887
17769TIP3    H274799   0.125   2.753  16.343 -0.4596 -0.1199  1.0483
17770TIP3   OH274800   1.684   2.555  12.982  0.1179 -0.4310  0.1726
17770TIP3    H174801   1.763   2.552  13.036 -0.2579  1.2430  0.8805
17770TIP3    H274802   1.679   2.647  12.953 -0.8600 -0.8233 -0.9277
17771TIP3   OH274803   5.914   1.808   4.992 -0.1478 -0.1440  0.4747
17771TIP3    H174804   5.916   1.712   4.998  2.0627 -0.3146 -1.8464
17771TIP3    H274805   6.007   1.833   4.986 -0.7906  1.8780 -1.9110
17772TIP3   OH274806   4.255   2.349  14.703 -0.1706  0.2286  0.6579
17772TIP3    H174807   4.214   2.433  14.682  0.3616  0.3427  0.0769
17772TIP3    H274808   4.182   2.289  14.716 -0.5119 -0.0538 -2.2979
17773TIP3   OH274809   6.698   5.427   4.812  0.0370  0.6185  0.7465
17773TIP3    H174810   6.748   5.405   4.733 -0.5233  0.6594  0.3731
17773TIP3    H274811   6.607   5.418   4.785 -0.1706  1.6329  1.1024
17774TIP3   OH274812   1.516   1.066  16.956 -0.6209  0.5787 -0.1810
17774TIP3    H174813   1.439   1.045  17.009 -0.8678  1.2991 -0.2572
17774TIP3    H274814   1.494   1.034  16.868 -0.1970 -0.6488  0.1567
17775TIP3   OH274815   2.535   2.085  11.884 -0.0714 -0.1756  0.3215
17775TIP3    H174816   2.622   2.051  11.907  0.3395  1.1126  0.7367
17775TIP3    H274817   2.519   2.155  11.948 -1.2808 -0.1945  0.0507
17776TIP3   OH274818   5.326   3.070  17.194 -0.1117  0.1919  0.4292
17776TIP3    H174819   5.277   3.102  17.118  0.6087 -0.1557 -0.1842
17776TIP3    H274820   5.335   2.976  17.178 -0.9680 -0.0968  1.5236
17777TIP3   OH274821   6.692   2.964   1.789  0.6449 -0.0804  0.0763
17777TIP3    H174822   6.784   2.988   1.789  0.4248  0.7880  0.2051
17777TIP3    H274823   6.668   2.955   1.881  0.7439 -0.8815  0.0272
17778TIP3   OH274824   6.174   3.268  12.834  0.5439 -0.1805  0.2803
17778TIP3    H174825   6.234   3.258  12.907 -0.6923  0.4686  1.3980
17778TIP3    H274826   6.149   3.361  12.836 -1.1505 -0.6371  0.3446
17779TIP3   OH274827   3.874   1.383   4.360  0.5332  0.1996 -0.3028
17779TIP3    H174828   3.803   1.447   4.370  0.6712  0.5620 -1.5899
17779TIP3    H274829   3.836   1.301   4.393 -0.4329  0.4230 -0.8420
17780TIP3   OH274830   3.224   2.569   2.328 -0.1958  0.0024  0.4836
17780TIP3    H174831   3.243   2.480   2.359  3.1468  0.6202  0.3872
17780TIP3    H274832   3.266   2.626   2.393 -2.3000  1.5414  0.5377
17781TIP3   OH274833   1.520   1.636  12.765  0.0099  0.1618  0.1983
17781TIP3    H174834   1.549   1.603  12.850 -0.8632  1.0062  0.8396
17781TIP3    H274835   1.438   1.589  12.748  0.8320 -0.9502 -0.7916
17782TIP3   OH274836   2.393   3.657  16.319 -0.2174  0.1665 -0.0202
17782TIP3    H174837   2.410   3.649  16.413  0.2768 -0.3526 -0.1529
17782TIP3    H274838   2.468   3.615  16.277 -0.1340  0.9370 -0.6575
17783TIP3   OH274839   4.917   4.539   2.196  0.0351  0.2444 -0.1428
17783TIP3    H174840   4.840   4.486   2.175 -1.3374  1.9599  0.4366
17783TIP3    H274841   4.926   4.532   2.291 -0.9572  2.0973  0.1030
17784TIP3   OH274842   5.991   3.186  11.257 -0.3124  0.1726  0.1332
17784TIP3    H174843   5.905   3.226  11.243 -0.6305  0.2724  2.2940
17784TIP3    H274844   5.977   3.093  11.244 -0.8964  0.1196  1.1319
17785TIP3   OH274845   2.889   0.180   3.769 -0.0041  0.1835 -0.1166
17785TIP3    H174846   2.975   0.186   3.727  0.1104 -0.2308  0.0515
17785TIP3    H274847   2.829   0.218   3.705  0.2247 -0.0617 -0.4814
17786TIP3   OH274848   4.729   0.702  13.515  0.1199  0.9239 -0.2850
17786TIP3    H174849   4.775   0.745  13.443  0.3494  0.2149 -0.5659
17786TIP3    H274850   4.640   0.690  13.483  0.5533 -0.5725 -0.9584
17787TIP3   OH274851   5.255   6.197  15.497 -0.1663  0.0150  1.0275
17787TIP3    H174852   5.218   6.134  15.559  0.7346 -0.1344  1.4185
17787TIP3    H274853   5.190   6.201  15.426 -0.1965 -1.4223  0.9525
17788TIP3   OH274854   5.201   5.824   0.956  0.0269 -0.1861  0.2537
17788TIP3    H174855   5.235   5.854   0.872  0.7897 -0.9841  0.2623
17788TIP3    H274856   5.219   5.730   0.956 -0.8539 -0.3595  0.8984
17789TIP3   OH274857   1.644   5.142  11.294  0.2384  0.0116 -0.5882
17789TIP3    H174858   1.647   5.237  11.304  1.4202 -0.1318  0.5838
17789TIP3    H274859   1.660   5.127  11.201  0.7684  0.9236 -0.6475
17790TIP3   OH274860   0.387   1.290   2.460  0.4462 -0.0861  0.6865
17790TIP3    H174861   0.465   1.331   2.497 -0.1076  1.2395  0.4131
17790TIP3    H274862   0.355   1.231   2.529 -0.3995  2.1182  2.2370
17791TIP3   OH274863   3.549   6.748  11.076 -0.0552  0.4066  0.2416
17791TIP3    H174864   3.586   6.693  11.007  0.0258  0.1449  0.4906
17791TIP3    H274865   3.456   6.726  11.077  0.1912 -0.6843  1.2027
17792TIP3   OH274866   0.987   0.801  13.547  0.9234  0.3371 -0.4368
17792TIP3    H174867   0.992   0.734  13.478  0.2181  0.0427 -0.2112
17792TIP3    H274868   0.903   0.784  13.591  1.5604  0.2395  0.7749
17793TIP3   OH274869   3.458   6.429   6.108  0.0612  0.3903  0.5581
17793TIP3    H174870   3.554   6.433   6.107  0.1877 -1.8309  1.0630
17793TIP3    H274871   3.438   6.347   6.062 -1.5970  0.8374  0.4705
17794TIP3   OH274872   5.142   6.373  10.804  0.4462  0.0539  0.3931
17794TIP3    H174873   5.133   6.448  10.863  1.5651  1.2354 -0.8759
17794TIP3    H274874   5.142   6.297  10.861 -2.4334  0.8839  1.5963
17795TIP3   OH274875   6.075   5.050  11.573 -0.0773 -0.3419  0.4269
17795TIP3    H174876   6.154   4.996  11.571  0.1760  0.0004  0.9783
17795TIP3    H274877   6.012   4.998  11.623 -0.7265 -1.3104 -1.3793
17796TIP3   OH274878   2.523   4.523  16.031  0.1821 -0.8335  0.3949
17796TIP3    H174879   2.435   4.492  16.008  0.4627 -0.0413 -1.8248
17796TIP3    H274880   2.513   4.616  16.048  0.6195 -0.7002 -0.0515
17797TIP3   OH274881   1.321   5.864   0.415 -0.9166 -0.6462  0.2464
17797TIP3    H174882   1.353   5.954   0.424  1.7971 -1.6116  0.9785
17797TIP3    H274883   1.316   5.849   0.321 -0.6834  0.0351  0.1212
17798TIP3   OH274884   0.674   4.268   2.964 -0.1815  0.0578 -1.2045
17798TIP3    H174885   0.646   4.351   3.003  0.8191 -0.4558  0.6972
17798TIP3    H274886   0.621   4.202   3.008 -0.9551 -0.3245 -2.6932
17799TIP3   OH274887   1.503   1.572  14.830 -0.5269  0.3091  0.5905
17799TIP3    H174888   1.485   1.650  14.883 -1.1110  0.4200  0.2307
17799TIP3    H274889   1.484   1.598  14.741  0.6924  0.1905  0.2828
17800TIP3   OH274890   5.742   0.453   4.389 -0.0435 -0.1434  0.9075
17800TIP3    H174891   5.745   0.455   4.485 -2.2823  0.1786  0.9979
17800TIP3    H274892   5.733   0.361   4.367 -0.2041 -0.1596  1.0408
17801TIP3   OH274893   3.657   6.097  10.889 -0.0838 -0.0190  0.0683
17801TIP3    H174894   3.708   6.176  10.910  0.2434  0.1496 -1.3227
17801TIP3    H274895   3.614   6.074  10.972  0.1832  1.3517  0.6070
17802TIP3   OH274896   0.784   5.339   3.008  0.4792 -0.4430 -0.2156
17802TIP3    H174897   0.738   5.396   3.070  3.7584 -0.0755  2.0194
17802TIP3    H274898   0.758   5.250   3.033 -2.6871 -0.1026 -2.0967
17803TIP3   OH274899   3.708   5.187  15.243 -0.4510 -0.4813  0.5861
17803TIP3    H174900   3.690   5.278  15.265  0.8242  0.0499 -0.4371
17803TIP3    H274901   3.771   5.158  15.309  1.3135  0.2847 -0.6944
17804TIP3   OH274902   3.984   0.355  12.312  0.4816 -0.0965 -0.4234
17804TIP3    H174903   3.922   0.394  12.374  0.1404  0.1389 -0.9155
17804TIP3    H274904   4.002   0.268  12.348 -0.2264 -0.2126 -0.3414
17805TIP3   OH274905   1.082   0.656  12.383 -0.8478  0.1284 -0.7203
17805TIP3    H174906   1.082   0.607  12.466 -0.3662  1.1577 -0.1080
17805TIP3    H274907   1.062   0.746  12.408  0.8392  0.7455 -1.5468
17806TIP3   OH274908   0.518   4.840  11.714  0.1355 -0.5000 -0.2924
17806TIP3    H174909   0.585   4.774  11.727  1.5283  0.7691 -0.8441
17806TIP3    H274910   0.508   4.882  11.800  1.0895  0.2569 -0.5435
17807TIP3   OH274911   4.074   6.069   1.686 -0.4966 -0.1686 -0.1257
17807TIP3    H174912   4.148   6.117   1.726  0.2424  1.1840 -2.9343
17807TIP3    H274913   4.003   6.133   1.684 -0.1282  0.2119 -2.0691
17808TIP3   OH274914   1.594   6.345   0.953  0.2425 -0.3917  0.0703
17808TIP3    H174915   1.644   6.426   0.943 -0.5942  0.0859 -0.2046
17808TIP3    H274916   1.596   6.328   1.048 -1.3166  1.0603  0.3883
17809TIP3   OH274917   2.920   1.654   6.125 -0.1554 -0.3035  0.0522
17809TIP3    H174918   2.997   1.601   6.108  1.0709  1.6231 -0.5985
17809TIP3    H274919   2.896   1.635   6.215  1.0415 -0.9659  0.2341
17810TIP3   OH274920   5.159   5.354   0.389 -0.1710 -0.2927 -0.5525
17810TIP3    H174921   5.073   5.363   0.428  0.5823  0.0855  1.0438
17810TIP3    H274922   5.203   5.287   0.442  1.4108  1.3587  0.2834
17811TIP3   OH274923   4.869   2.894  16.364 -0.0791  0.2560 -0.1291
17811TIP3    H174924   4.943   2.845  16.400 -0.1248  0.1578 -0.1677
17811TIP3    H274925   4.830   2.836  16.299 -0.5424  0.0762  0.3101
17812TIP3   OH274926   2.196   5.057  10.538  0.0135 -0.1824 -0.1314
17812TIP3    H174927   2.175   5.024  10.451 -0.6143  1.7493 -0.7171
17812TIP3    H274928   2.272   5.004  10.565  0.1962 -0.8220 -1.8123
17813TIP3   OH274929   1.420   1.171  13.833  0.6124  0.0156 -0.1575
17813TIP3    H174930   1.447   1.208  13.749 -0.4032 -0.0824 -0.5380
17813TIP3    H274931   1.425   1.244  13.895 -3.4218  1.4439 -1.3130
17814TIP3   OH274932   1.829   4.391   4.101  0.6164 -0.0001  0.2180
17814TIP3    H174933   1.836   4.334   4.178  1.9208  0.9595  0.8182
17814TIP3    H274934   1.806   4.477   4.136  0.0319  0.1745 -0.5757
17815TIP3   OH274935   3.361   1.432  16.491 -0.4517  0.0185 -0.0127
17815TIP3    H174936   3.418   1.498  16.530 -0.2722 -0.4812  0.5859
17815TIP3    H274937   3.419   1.356  16.479 -1.0620 -0.5917  0.8707
17816TIP3   OH274938   2.133   0.849  16.908  0.0037  0.5266  0.4606
17816TIP3    H174939   2.091   0.769  16.877 -1.2353  0.9176  1.1048
17816TIP3    H274940   2.067   0.891  16.962  1.2456  1.1351  1.5326
17817TIP3   OH274941   5.573   6.428   0.877  0.0249  0.4935  0.4638
17817TIP3    H174942   5.544   6.484   0.949 -0.3391  0.6098  0.2230
17817TIP3    H274943   5.598   6.346   0.920 -1.5448  0.0492  0.5731
17818TIP3   OH274944   1.045   0.135   2.859 -0.0079 -0.1936  0.2497
17818TIP3    H174945   1.043   0.052   2.905 -0.3343 -0.3478 -0.0355
17818TIP3    H274946   0.972   0.130   2.797  0.8860 -0.2898 -0.8083
17819TIP3   OH274947   5.167   3.254  14.564  0.4410 -0.1880  0.1685
17819TIP3    H174948   5.198   3.184  14.621  0.1726  1.4437  2.3558
17819TIP3    H274949   5.102   3.302  14.616  1.2557  2.2270 -0.9405
17820TIP3   OH274950   3.319   3.751   2.593 -0.4034 -0.0401 -0.2294
17820TIP3    H174951   3.291   3.768   2.503 -3.0835 -2.3907  0.0737
17820TIP3    H274952   3.298   3.832   2.640 -0.4452  0.6498 -1.4168
17821TIP3   OH274953   0.774   3.022  10.890 -0.1738  0.2347 -0.0658
17821TIP3    H174954   0.684   2.999  10.914 -0.0506  2.4516  2.8272
17821TIP3    H274955   0.785   2.989  10.801 -3.1498 -1.9504  0.3039
17822TIP3   OH274956   0.976   6.429  13.421  0.2716 -0.4255  1.0878
17822TIP3    H174957   0.896   6.479  13.403  0.2483 -1.2747 -1.4598
17822TIP3    H274958   1.044   6.474  13.371  1.2559 -0.1617  2.6314
17823TIP3   OH274959   0.335   5.223  11.367  0.2792  0.4411  0.0684
17823TIP3    H174960   0.243   5.250  11.364 -0.2506 -1.3014  0.0553
17823TIP3    H274961   0.373   5.275  11.438 -1.2904 -0.4572  1.6235
17824TIP3   OH274962   1.129   2.923  11.330  0.7174  0.0603 -0.1202
17824TIP3    H174963   1.155   2.847  11.278  1.9700  1.2027 -1.2231
17824TIP3    H274964   1.086   2.981  11.267 -2.0800 -0.6050  1.1369
17825TIP3   OH274965   4.863   4.756   3.021 -0.4769 -0.1811 -0.1243
17825TIP3    H174966   4.880   4.826   2.958 -0.7218 -0.8264 -0.9117
17825TIP3    H274967   4.836   4.681   2.968 -1.1319 -0.5967  0.7784
17826TIP3   OH274968   2.353   6.254  13.962  0.2005 -0.1457  0.8115
17826TIP3    H174969   2.384   6.265  14.052  0.1511  2.8286  0.5178
17826TIP3    H274970   2.386   6.331  13.916  1.0802 -2.1225 -1.9878
17827TIP3   OH274971   2.482   2.565   1.279  0.0739 -0.3412  0.3002
17827TIP3    H174972   2.455   2.474   1.263 -1.1598  0.3018 -1.4225
17827TIP3    H274973   2.572   2.558   1.312  0.3407 -2.1436 -0.7472
17828TIP3   OH274974   2.940   2.765   2.705  0.5607 -0.0594  0.0648
17828TIP3    H174975   2.872   2.827   2.678 -0.0009 -0.4953  0.4610
17828TIP3    H274976   2.911   2.680   2.672  0.6441 -0.3392  0.6898
17829TIP3   OH274977   0.211   0.618   3.762  0.5282  0.6931  0.0418
17829TIP3    H174978   0.229   0.668   3.842  1.3847  0.7851 -0.2046
17829TIP3    H274979   0.204   0.528   3.792  1.7366  0.6157  0.0967
17830TIP3   OH274980   0.888   4.096   4.402 -0.4870  0.1930  0.0173
17830TIP3    H174981   0.946   4.126   4.333  0.7633 -0.1491  0.9081
17830TIP3    H274982   0.859   4.176   4.446 -0.3659  0.3374 -0.1653
17831TIP3   OH274983   3.761   2.067  15.761  0.4223  0.3580 -0.1330
17831TIP3    H174984   3.779   2.146  15.811 -1.2286 -0.7379  2.2912
17831TIP3    H274985   3.723   2.098  15.679  0.4223  2.0968  0.5147
17832TIP3   OH274986   6.523   3.532  14.696  0.4243 -0.3155  0.6225
17832TIP3    H174987   6.446   3.514  14.643  0.3477  0.2147  0.5440
17832TIP3    H274988   6.501   3.498  14.783 -0.4901  1.1186  0.9799
17833TIP3   OH274989   0.064   4.655  15.603  0.4344 -0.2028  0.1933
17833TIP3    H174990   0.003   4.608  15.660 -1.1646 -1.5866 -2.5483
17833TIP3    H274991   0.008   4.715  15.552  1.5625 -0.3219 -1.2300
17834TIP3   OH274992   5.165   5.937  14.505  0.4877  0.1350 -0.2596
17834TIP3    H174993   5.196   5.954  14.416  0.0854  2.5104  0.0256
17834TIP3    H274994   5.089   5.994  14.516  0.0408 -0.7289  1.3359
17835TIP3   OH274995   3.954   6.301  11.991 -0.1611  0.1869 -0.1199
17835TIP3    H174996   3.926   6.380  11.945 -0.6395  0.0193 -0.1172
17835TIP3    H274997   3.995   6.247  11.923 -1.8544 -0.5349 -0.5771
17836TIP3   OH274998   0.993   3.683  11.180  0.2822  0.3561  0.5911
17836TIP3    H174999   0.908   3.667  11.138  1.0158 -2.1366  0.0257
17836TIP3    H275000   0.998   3.779  11.186 -1.7306  0.6109 -1.1006
17837TIP3   OH275001   4.348   1.353   2.024  0.1802 -0.0883 -0.2486
17837TIP3    H175002   4.291   1.416   1.979  0.4447  0.1082 -0.3117
17837TIP3    H275003   4.411   1.326   1.957 -0.3797 -0.9716 -0.4215
17838TIP3   OH275004   2.190   5.044  13.165 -0.2641 -0.3895 -0.0844
17838TIP3    H175005   2.211   5.000  13.082 -1.1442  1.0863 -1.1076
17838TIP3    H275006   2.094   5.039  13.171 -0.2720  0.2894  0.3909
17839TIP3   OH275007   1.861   1.617  13.480  0.2055 -0.1889 -0.0308
17839TIP3    H175008   1.818   1.665  13.410  2.0037  0.1019 -0.9734
17839TIP3    H275009   1.923   1.559  13.436  0.9191 -0.4558  1.2762
17840TIP3   OH275010   2.323   4.301   1.811  0.4491 -0.1241  0.0382
17840TIP3    H175011   2.414   4.319   1.787  0.2389  1.9160  0.6529
17840TIP3    H275012   2.297   4.377   1.863 -1.3097 -1.1518  0.6923
17841TIP3   OH275013   2.356   0.618  16.527 -0.0803  0.2955 -0.4544
17841TIP3    H175014   2.411   0.694  16.543  0.9035 -0.7241  1.0563
17841TIP3    H275015   2.267   0.649  16.542  0.0650  1.8580 -2.5583
17842TIP3   OH275016   5.109   4.762   0.921  0.3002  0.1585  0.4369
17842TIP3    H175017   5.081   4.760   0.829  0.3983 -0.7090  0.4250
17842TIP3    H275018   5.118   4.855   0.941  1.4599  0.3210 -0.7883
17843TIP3   OH275019   6.420   2.954   5.224 -0.3742  0.5503  0.0142
17843TIP3    H175020   6.357   2.882   5.214 -0.0028  0.6813 -4.1605
17843TIP3    H275021   6.381   3.027   5.176  1.5367  1.5601 -0.0400
17844TIP3   OH275022   6.377   5.205   0.624 -0.5053 -0.0740  0.0088
17844TIP3    H175023   6.338   5.223   0.539 -0.7489 -1.0392 -0.0853
17844TIP3    H275024   6.306   5.167   0.676 -0.1582 -0.2046  0.3984
17845TIP3   OH275025   0.426   5.784  15.068 -0.1421  0.2573  0.3714
17845TIP3    H175026   0.437   5.770  15.162 -3.1265  0.0960  0.7244
17845TIP3    H275027   0.398   5.699  15.033  1.1398  0.2595 -0.7156
17846TIP3   OH275028   3.539   3.627   2.501  0.5766 -0.4110  0.1861
17846TIP3    H175029   3.457   3.667   2.528 -0.4633 -2.2189 -0.2156
17846TIP3    H275030   3.572   3.684   2.431 -0.0603  0.6029  0.7002
17847TIP3   OH275031   0.104   3.467  15.716  0.3183  0.1228 -0.4475
17847TIP3    H175032   0.022   3.423  15.739  0.4219  0.5675  0.8247
17847TIP3    H275033   0.088   3.504  15.629 -1.4056  1.5930  0.4741
17848TIP3   OH275034   2.379   2.806   0.148 -0.1800  0.3709  0.5310
17848TIP3    H175035   2.313   2.789   0.216 -0.5314 -2.7040 -0.4808
17848TIP3    H275036   2.459   2.766   0.181 -0.2630 -0.8256 -0.6556
17849TIP3   OH275037   5.623   5.598   3.082 -0.6891  0.0717 -0.4939
17849TIP3    H175038   5.588   5.516   3.117 -1.6252  0.5602 -0.2833
17849TIP3    H275039   5.644   5.651   3.159  2.8703 -1.1455 -0.5062
17850TIP3   OH275040   6.022   3.135  10.441  0.2038 -0.4293 -0.1942
17850TIP3    H175041   6.062   3.108  10.524  0.9634  1.1535 -0.0219
17850TIP3    H275042   5.949   3.075  10.429 -0.1257 -0.4709  1.8138
17851TIP3   OH275043   2.297   1.005  11.563  0.1843  0.0288  0.2425
17851TIP3    H175044   2.299   0.921  11.517  0.4836  0.7406 -1.0638
17851TIP3    H275045   2.235   0.991  11.635 -0.7305 -0.9360 -0.7104
17852TIP3   OH275046   4.596   2.852  11.003 -0.0106 -0.3392 -0.2010
17852TIP3    H175047   4.547   2.906  10.941 -0.8058 -0.5962  0.2018
17852TIP3    H275048   4.635   2.783  10.949 -2.2568 -1.6690 -0.1625
17853TIP3   OH275049   1.451   4.363   0.112  0.3972 -0.0081 -0.4971
17853TIP3    H175050   1.527   4.421   0.120  0.6009 -0.1071 -1.5749
17853TIP3    H275051   1.380   4.410   0.155  1.1562 -0.0951  0.8840
17854TIP3   OH275052   5.595   0.517  11.972 -0.0742 -0.0763  0.2982
17854TIP3    H175053   5.605   0.445  11.909 -2.2349 -0.8455  0.7600
17854TIP3    H275054   5.568   0.592  11.920  1.8732  0.3324 -0.1464
17855TIP3   OH275055   5.803   4.520   1.911 -0.3243  0.0428 -0.0074
17855TIP3    H175056   5.823   4.600   1.959 -1.6748  0.9683 -0.9271
17855TIP3    H275057   5.829   4.539   1.820  0.9481 -1.1877  0.0941
17856TIP3   OH275058   4.511   4.067   0.145  0.0387  0.6986 -0.4184
17856TIP3    H175059   4.440   4.050   0.084 -2.5659 -2.3823  3.2753
17856TIP3    H275060   4.486   4.147   0.190  0.3430  1.1611 -1.0607
17857TIP3   OH275061   4.345   0.183   2.980  0.3236 -0.5984 -0.0512
17857TIP3    H175062   4.251   0.174   2.995  0.4192 -1.5232 -0.0036
17857TIP3    H275063   4.383   0.102   3.012  1.2085  0.0033  0.4442
17858TIP3   OH275064   5.343   3.221   4.616 -0.1049  0.7901  0.2556
17858TIP3    H175065   5.250   3.239   4.632  0.2493  1.4699  1.6171
17858TIP3    H275066   5.369   3.289   4.554 -0.6093  0.3481 -0.4537
17859TIP3   OH275067   6.110   5.876  11.781  0.0035 -0.1678 -0.6026
17859TIP3    H175068   6.039   5.824  11.742  0.0545  1.3430 -2.7770
17859TIP3    H275069   6.066   5.952  11.818  0.2665 -0.2480 -0.1280
17860TIP3   OH275070   0.453   5.569  12.481 -0.2390  0.7209 -0.3665
17860TIP3    H175071   0.378   5.567  12.422  0.1497  0.8189 -0.8662
17860TIP3    H275072   0.509   5.497  12.451  0.2278  1.1268 -0.4739
17861TIP3   OH275073   1.357   2.253   3.995  0.0476  0.2029 -0.1132
17861TIP3    H175074   1.406   2.208   3.926  2.8142  0.5393  1.5447
17861TIP3    H275075   1.377   2.203   4.075 -1.3951  1.0637  0.8048
17862TIP3   OH275076   4.184   2.590  14.584 -0.0945 -0.3148 -0.4425
17862TIP3    H175077   4.199   2.685  14.584 -1.8472 -0.0371  0.6848
17862TIP3    H275078   4.131   2.575  14.506  0.6243 -0.4595 -0.9138
17863TIP3   OH275079   4.572   4.431  14.515  0.5642  0.5796 -0.3260
17863TIP3    H175080   4.561   4.339  14.538  1.0645  0.4836 -0.4626
17863TIP3    H275081   4.611   4.429  14.427  1.9308  0.8937  0.2499
17864TIP3   OH275082   5.785   2.507  12.122  0.7118  0.2067  0.2164
17864TIP3    H175083   5.739   2.453  12.057  1.4245  1.1955 -1.1202
17864TIP3    H275084   5.743   2.593  12.116  2.1503  0.8660 -0.3811
17865TIP3   OH275085   5.511   2.340   3.610 -0.7834  0.6116 -0.2665
17865TIP3    H175086   5.556   2.416   3.575  3.3682 -2.2392 -1.4730
17865TIP3    H275087   5.560   2.316   3.688 -1.6628 -1.1624 -0.2222
17866TIP3   OH275088   3.422   5.063   0.358  0.2539 -0.2409  1.2376
17866TIP3    H175089   3.369   5.121   0.303  0.3264  0.1388  1.5656
17866TIP3    H275090   3.431   5.110   0.440  0.2068 -0.7771  1.5542
17867TIP3   OH275091   4.535   5.353   6.003 -0.2677 -0.1901 -0.0757
17867TIP3    H175092   4.510   5.428   6.057 -1.0365 -0.3294 -0.2301
17867TIP3    H275093   4.583   5.295   6.061  3.5599  2.0855 -0.8010
17868TIP3   OH275094   2.565   3.996  14.716  0.0277 -0.0139  0.3196
17868TIP3    H175095   2.480   4.032  14.740 -0.4283  0.2628 -1.6156
17868TIP3    H275096   2.587   3.936  14.787 -2.2681 -0.8779  0.3412
17869TIP3   OH275097   4.607   3.631   5.312  0.2428  0.0203 -0.8525
17869TIP3    H175098   4.563   3.583   5.383 -1.7971  1.8549 -0.8383
17869TIP3    H275099   4.694   3.592   5.307 -0.1805 -1.2930  1.5161
17870TIP3   OH275100   3.596   2.714   0.793 -0.3074 -0.2254  0.5126
17870TIP3    H175101   3.632   2.795   0.758 -0.4402 -0.2115  0.4094
17870TIP3    H275102   3.596   2.726   0.888  0.7380 -0.5450  0.5618
17871TIP3   OH275103   3.969   2.436  11.347  0.5472 -0.0946  0.8375
17871TIP3    H175104   3.980   2.458  11.255  0.8981 -0.2418  0.8453
17871TIP3    H275105   3.978   2.341  11.350  1.3438 -0.0111  1.1418
17872TIP3   OH275106   1.634   0.759   0.901  0.3467 -0.1533  0.2295
17872TIP3    H175107   1.638   0.665   0.885 -3.0594 -0.6490  1.6559
17872TIP3    H275108   1.644   0.799   0.815  1.8891 -1.8014 -0.3781
17873TIP3   OH275109   6.114   3.588  14.306 -0.5882  0.8049 -0.2668
17873TIP3    H175110   6.164   3.612  14.228 -1.4749 -0.1505 -1.1442
17873TIP3    H275111   6.181   3.559  14.368  0.1896  2.3343 -0.3825
17874TIP3   OH275112   0.371   5.463   3.798 -0.2356 -0.3882  0.4173
17874TIP3    H175113   0.443   5.411   3.834 -0.1491 -0.6763 -0.1649
17874TIP3    H275114   0.411   5.519   3.732 -0.2171  0.9353  1.5287
17875TIP3   OH275115   5.249   1.163  16.394 -0.2393  0.2423 -0.3224
17875TIP3    H175116   5.325   1.129  16.348  1.7893  1.2974  2.1345
17875TIP3    H275117   5.259   1.130  16.484 -2.3693  0.8890  0.1834
17876TIP3   OH275118   0.617   0.685   4.755 -0.7733  0.7921  0.4108
17876TIP3    H175119   0.535   0.734   4.754 -1.4782 -0.3564  0.8592
17876TIP3    H275120   0.592   0.598   4.787  0.7766  0.7402  1.5319
17877TIP3   OH275121   1.045   6.422  13.995  0.1229 -0.3455 -0.8506
17877TIP3    H175122   1.038   6.340  13.946 -1.1640 -1.0486  0.4819
17877TIP3    H275123   1.132   6.455  13.973  0.0806 -1.2978 -2.5766
17878TIP3   OH275124   5.286   0.821   5.557  0.0136 -0.0517 -0.0822
17878TIP3    H175125   5.249   0.907   5.576  1.9873  0.6279  0.7583
17878TIP3    H275126   5.210   0.762   5.555 -1.5068  1.8971 -1.9990
17879TIP3   OH275127   2.560   0.469  13.775  0.1032 -0.1684 -0.2039
17879TIP3    H175128   2.545   0.522  13.853 -0.8428 -0.2963 -0.3029
17879TIP3    H275129   2.655   0.472  13.763  0.1035  1.2378 -0.0148
17880TIP3   OH275130   6.640   2.428   2.960  0.5162  0.0101 -0.0627
17880TIP3    H175131   6.646   2.518   2.994  1.5569  0.1215 -0.5130
17880TIP3    H275132   6.729   2.393   2.971 -0.4427 -1.8002  2.3980
17881TIP3   OH275133   5.742   2.008   5.422 -0.0607  0.0394 -0.2070
17881TIP3    H175134   5.717   1.980   5.334  0.4884  0.7681 -0.6022
17881TIP3    H275135   5.831   1.976   5.433 -0.2711 -0.3959  0.2384
17882TIP3   OH275136   3.783   6.261   1.022  0.0072 -0.3401 -0.1370
17882TIP3    H175137   3.703   6.284   0.973  1.4592  1.5409 -1.7256
17882TIP3    H275138   3.840   6.220   0.956  2.5103  3.4076 -0.4631
17883TIP3   OH275139   1.804   3.845   4.436 -0.1677  0.4848  0.2861
17883TIP3    H175140   1.771   3.935   4.441  0.0410  0.5244  1.0847
17883TIP3    H275141   1.776   3.813   4.350 -0.6820  1.1441  0.2069
17884TIP3   OH275142   2.744   0.545  14.113 -0.7602 -0.1387  0.2679
17884TIP3    H175143   2.741   0.511  14.202 -0.4264 -0.3825  0.1862
17884TIP3    H275144   2.773   0.471  14.060  1.2346  0.6194  0.2633
17885TIP3   OH275145   1.342   0.557   3.576 -0.3792  0.6673 -0.0795
17885TIP3    H175146   1.300   0.494   3.517  0.7716  0.4334 -0.6516
17885TIP3    H275147   1.270   0.614   3.605 -1.2471 -0.2629 -0.3670
17886TIP3   OH275148   2.539   0.103  16.919  0.0304  0.2425 -0.4423
17886TIP3    H175149   2.626   0.080  16.889 -0.0322  0.2855 -0.6557
17886TIP3    H275150   2.514   0.179  16.867 -0.4683 -0.2754 -0.9634
17887TIP3   OH275151   2.862   5.419   0.346  0.0427  0.0468  0.3750
17887TIP3    H175152   2.883   5.499   0.297  2.8075  0.4273  2.0664
17887TIP3    H275153   2.948   5.384   0.371 -1.1498 -3.2813 -0.0489
17888TIP3   OH275154   4.812   1.184  16.774  0.2524  0.2462  0.5711
17888TIP3    H175155   4.793   1.146  16.860 -0.0555  0.1775  0.4696
17888TIP3    H275156   4.727   1.189  16.730  0.3048  0.9545  0.5472
17889TIP3   OH275157   2.916   6.249   4.878 -0.5789  0.1868  0.4523
17889TIP3    H175158   2.942   6.338   4.900  0.9338 -0.4274  1.2474
17889TIP3    H275159   2.823   6.244   4.900 -0.5255  1.3833  0.9593
17890TIP3   OH275160   2.011   1.250   3.063 -0.2369 -0.0539  0.1322
17890TIP3    H175161   1.998   1.324   3.003  0.5860 -2.0117 -2.5531
17890TIP3    H275162   1.925   1.208   3.066 -0.0070 -0.5736 -0.5301
17891TIP3   OH275163   6.616   2.231  16.172 -0.3293  0.4489 -0.4628
17891TIP3    H175164   6.604   2.153  16.227 -0.3085  1.5073  1.0813
17891TIP3    H275165   6.591   2.202  16.085  0.9332 -1.6574 -0.1770
17892TIP3   OH275166   4.846   1.021  10.554  0.6348  0.0254  0.5219
17892TIP3    H175167   4.918   1.057  10.605  2.2215  0.1690 -1.7198
17892TIP3    H275168   4.885   0.945  10.509 -0.9104 -0.5748  0.1779
17893TIP3   OH275169   6.751   1.608   6.208  0.2560 -0.1739 -0.5117
17893TIP3    H175170   6.714   1.614   6.120  0.1512  0.8329 -0.3996
17893TIP3    H275171   6.717   1.685   6.254 -0.7866 -1.4061  0.8192
17894TIP3   OH275172   2.210   6.527   0.792  0.2648 -0.5228 -0.2051
17894TIP3    H175173   2.291   6.523   0.741 -0.6417 -2.1633 -1.6186
17894TIP3    H275174   2.149   6.471   0.743 -0.9364 -1.4011  2.2056
17895TIP3   OH275175   2.330   4.813  10.982 -0.3767  0.3080  0.2085
17895TIP3    H175176   2.346   4.752  10.909  0.0597 -0.3634  0.8548
17895TIP3    H275177   2.362   4.897  10.951 -0.2797  0.0461 -0.4104
17896TIP3   OH275178   3.740   0.492  12.438  0.0219 -0.1346  0.4321
17896TIP3    H175179   3.690   0.412  12.454 -0.0857 -0.2621 -0.4985
17896TIP3    H275180   3.759   0.526  12.525 -0.8357 -0.6113  0.8134
17897TIP3   OH275181   1.211   6.602   1.300  0.1368 -0.4141  0.3521
17897TIP3    H175182   1.286   6.651   1.267 -0.8807  1.1327  0.2550
17897TIP3    H275183   1.234   6.510   1.287  1.9508  0.0426  0.2236
17898TIP3   OH275184   3.236   1.025   3.896  0.2741  0.1828 -0.2102
17898TIP3    H175185   3.215   0.934   3.873  0.2035  0.4855 -1.3764
17898TIP3    H275186   3.307   1.048   3.837  1.3803  0.3705  1.1876
17899TIP3   OH275187   3.112   4.196  11.725 -0.7648 -0.5054  0.1047
17899TIP3    H175188   3.142   4.205  11.815  1.9863 -1.1218 -0.7058
17899TIP3    H275189   3.087   4.284  11.698  0.9082  0.1298  0.6312
17900TIP3   OH275190   0.041   2.193   2.272  0.3106  0.7301 -0.2065
17900TIP3    H175191  -0.022   2.229   2.335  0.8027  2.4411 -0.6637
17900TIP3    H275192   0.104   2.264   2.258  2.2433 -0.8658  0.0931
17901TIP3   OH275193   0.621   5.241  14.430  0.0854  0.2308 -0.1711
17901TIP3    H175194   0.707   5.255  14.391 -0.7871  1.9976 -1.5514
17901TIP3    H275195   0.615   5.308  14.498  0.4270 -0.9384  1.0291
17902TIP3   OH275196   0.216   3.130  12.367  0.0965  0.6430  0.5139
17902TIP3    H175197   0.237   3.212  12.411 -2.0032  1.3386  0.2848
17902TIP3    H275198   0.263   3.134  12.284  0.7301  1.1968  0.8936
17903TIP3   OH275199   3.152   5.278  11.035  0.7762 -0.2877 -0.8106
17903TIP3    H175200   3.200   5.361  11.035  1.0790 -0.4559 -1.1727
17903TIP3    H275201   3.135   5.261  10.942  2.4547 -1.6152 -0.9082
17904TIP3   OH275202   3.687   5.155   5.561  0.4258  0.7143  0.5350
17904TIP3    H175203   3.693   5.086   5.627 -0.1638  0.5662  0.4348
17904TIP3    H275204   3.637   5.115   5.489 -1.6486  1.8748  1.2865
17905TIP3   OH275205   6.305   3.404   5.119  0.2977 -1.4362  0.3046
17905TIP3    H175206   6.215   3.433   5.109 -0.2558 -3.4311 -0.6254
17905TIP3    H275207   6.357   3.468   5.070 -0.5891 -0.3730  0.7173
17906TIP3   OH275208   5.935   2.694  13.728  0.1587 -0.2201 -0.1241
17906TIP3    H175209   5.950   2.749  13.805 -1.5620 -1.0830  0.8856
17906TIP3    H275210   5.888   2.751  13.667  1.9153  0.6010 -0.7509
17907TIP3   OH275211   1.818   0.872   1.760  0.0117  0.6651 -0.5556
17907TIP3    H175212   1.728   0.887   1.731 -0.0314 -1.3771 -1.6091
17907TIP3    H275213   1.839   0.785   1.725  2.1848  0.8804  0.1920
17908TIP3   OH275214   0.333   5.816  16.137  0.3125 -0.1610  0.2566
17908TIP3    H175215   0.293   5.903  16.135  0.1857 -0.2250  0.0304
17908TIP3    H275216   0.313   5.783  16.225 -1.4220 -0.7939 -0.3538
17909TIP3   OH275217   5.644   3.220  15.935 -0.1128 -0.0222  0.6627
17909TIP3    H175218   5.649   3.187  16.025 -2.6719 -0.6918  0.5942
17909TIP3    H275219   5.665   3.143  15.880 -0.9185 -0.2173  0.6294
17910TIP3   OH275220   6.644   1.211   1.646  0.7255 -0.0646  0.0176
17910TIP3    H175221   6.628   1.196   1.553 -2.7265 -0.0021  0.5281
17910TIP3    H275222   6.703   1.286   1.649 -0.3157  0.8651 -2.0981
17911TIP3   OH275223   6.167   1.072  11.336  0.0709 -0.4154  0.3063
17911TIP3    H175224   6.198   1.160  11.358  1.2956 -0.6220 -0.5070
17911TIP3    H275225   6.086   1.062  11.385  0.1837  0.9774  0.8079
17912TIP3   OH275226   5.636   1.513   3.891 -0.9410 -0.2742  0.5300
17912TIP3    H175227   5.699   1.491   3.822 -1.7454 -1.1828  0.0677
17912TIP3    H275228   5.588   1.588   3.857 -1.2929 -0.6811  0.1237
17913TIP3   OH275229   5.803   0.011   3.208 -0.7403 -0.2617  0.0692
17913TIP3    H175230   5.875   0.066   3.177  1.0316 -2.5542 -0.0055
17913TIP3    H275231   5.730   0.072   3.218  1.2691  2.1998  0.4958
17914TIP3   OH275232   0.195   3.600  14.232 -0.3343 -0.5448  0.0229
17914TIP3    H175233   0.194   3.659  14.157 -0.5437 -0.9531 -0.2958
17914TIP3    H275234   0.223   3.516  14.197 -1.6397 -1.0483  0.1730
17915TIP3   OH275235   1.639   4.878   6.013  0.3769 -0.7150 -0.1137
17915TIP3    H175236   1.638   4.867   5.917 -2.0679  0.0849 -0.2177
17915TIP3    H275237   1.583   4.808   6.045 -1.0517  0.6741  0.5022
17916TIP3   OH275238   0.754   2.854   2.776 -0.4786  0.3951 -0.0839
17916TIP3    H175239   0.783   2.914   2.844 -0.7501  0.5300 -0.0875
17916TIP3    H275240   0.682   2.899   2.732  0.4058  0.7720 -1.1767
17917TIP3   OH275241   0.265   6.773   5.181  0.8060 -0.4177  0.1916
17917TIP3    H175242   0.346   6.790   5.133  0.6869 -1.5778 -0.4378
17917TIP3    H275243   0.196   6.806   5.123  0.7825  0.0007  0.4540
17918TIP3   OH275244   5.375   3.789   3.980  0.0956 -0.1964  0.0978
17918TIP3    H175245   5.413   3.740   4.053 -1.9601  0.3477  1.5800
17918TIP3    H275246   5.425   3.870   3.976  0.2981 -0.2888  0.7929
17919TIP3   OH275247   4.977   4.567   0.074 -0.4348  0.2063  0.3915
17919TIP3    H175248   5.057   4.552   0.124  0.8456 -3.0536 -2.3934
17919TIP3    H275249   5.008   4.595  -0.012 -2.2710 -0.8224 -0.6481
17920TIP3   OH275250   2.002   5.566   3.525  0.1774 -0.4313 -0.2845
17920TIP3    H175251   2.045   5.520   3.597  0.5761 -0.5874 -0.6197
17920TIP3    H275252   2.024   5.515   3.447  0.8182  0.4566 -0.6982
17921TIP3   OH275253   2.682   3.281   4.885  0.5237  0.4020 -0.4692
17921TIP3    H175254   2.631   3.307   4.808 -1.2804 -2.6206 -0.3848
17921TIP3    H275255   2.620   3.288   4.958  0.6869 -1.5515 -0.0963
17922TIP3   OH275256   4.421   6.235   1.655  0.2182 -0.4427  0.9947
17922TIP3    H175257   4.433   6.147   1.620 -0.4910  0.3851 -1.4852
17922TIP3    H275258   4.337   6.264   1.618  1.8092  2.3251 -0.6562
17923TIP3   OH275259   1.167   4.214  15.721  0.5735 -0.2106  0.0902
17923TIP3    H175260   1.180   4.120  15.706  0.1160 -0.2597 -0.0027
17923TIP3    H275261   1.072   4.225  15.723  0.6188  0.3363 -0.4700
17924TIP3   OH275262   2.508   1.652  12.478 -0.2668  0.1388  0.3076
17924TIP3    H175263   2.547   1.720  12.533  0.0644 -0.7020  1.1249
17924TIP3    H275264   2.561   1.574  12.495  0.5415  0.1373 -2.0384
17925TIP3   OH275265   1.318   3.038   4.684  0.0212  0.1708  0.0705
17925TIP3    H175266   1.302   2.980   4.610  0.8317 -1.0624  0.8451
17925TIP3    H275267   1.329   2.979   4.759 -0.5437  1.3822  1.1354
17926TIP3   OH275268   0.822   1.706   1.087 -0.1465 -0.2955  0.3351
17926TIP3    H175269   0.790   1.622   1.118  0.4511 -0.7801 -0.3461
17926TIP3    H275270   0.865   1.745   1.163 -0.7888 -0.4138  0.7649
17927TIP3   OH275271   4.444   4.798  11.336 -0.0461  0.4420 -0.6669
17927TIP3    H175272   4.401   4.877  11.303 -1.1376  0.1138 -0.0428
17927TIP3    H275273   4.481   4.757  11.258 -0.5056  0.9462 -1.1591
17928TIP3   OH275274   3.228   5.291   0.316 -0.1753  0.0179  0.0134
17928TIP3    H175275   3.254   5.381   0.300 -0.3087  0.2869  1.2398
17928TIP3    H275276   3.202   5.289   0.408 -2.6494 -0.6667 -0.6370
17929TIP3   OH275277   3.010   3.872  10.954  0.5482  0.6587  0.0422
17929TIP3    H175278   3.002   3.879  11.049  1.4501 -1.8129  0.3379
17929TIP3    H275279   3.104   3.857  10.939  0.2023 -0.4762 -1.1025
17930TIP3   OH275280   0.643   4.203  13.154  0.0233  0.2660 -0.8511
17930TIP3    H175281   0.619   4.270  13.091 -0.0277  0.3896 -0.7008
17930TIP3    H275282   0.664   4.126  13.101  0.3206  0.4765 -1.0334
17931TIP3   OH275283   1.803   0.651   5.935 -0.1101  0.0510  0.6848
17931TIP3    H175284   1.876   0.590   5.943 -0.7618 -0.6687  1.3234
17931TIP3    H275285   1.809   0.708   6.011 -0.2196 -0.0143  0.7425
17932TIP3   OH275286   1.783   0.995   0.512 -0.3757  0.0579  0.6848
17932TIP3    H175287   1.808   0.918   0.461  1.9571  1.2279 -0.0322
17932TIP3    H275288   1.703   0.969   0.558  0.9854 -3.1916  1.3705
17933TIP3   OH275289   0.364   4.802   6.023 -0.0055  0.3932 -0.1096
17933TIP3    H175290   0.341   4.765   5.938 -2.4833 -0.4776  0.8760
17933TIP3    H275291   0.372   4.896   6.007 -2.4070  0.5024 -0.9725
17934TIP3   OH275292   2.129   4.375   0.349  0.0399  0.4854  0.0168
17934TIP3    H175293   2.055   4.343   0.400  0.4244 -0.5588 -0.0617
17934TIP3    H275294   2.132   4.317   0.272  1.1289  0.3069  0.1784
17935TIP3   OH275295   0.717   2.990   6.178 -0.5364  0.3459  0.1628
17935TIP3    H175296   0.726   3.084   6.196 -1.1873  0.2894  0.8524
17935TIP3    H275297   0.806   2.957   6.176 -0.3159  0.9349  0.2058
17936TIP3   OH275298   2.375   0.931  14.704 -0.2115  0.7795 -0.4868
17936TIP3    H175299   2.391   0.863  14.638  0.7277  0.8219 -0.3101
17936TIP3    H275300   2.365   0.883  14.786  0.0715  0.8266 -0.4238
17937TIP3   OH275301   3.621   6.579  12.644 -0.4454 -0.1833 -0.1742
17937TIP3    H175302   3.609   6.547  12.555  1.2429  2.4382 -1.3751
17937TIP3    H275303   3.541   6.627  12.664 -1.9058 -2.8904  0.7034
17938TIP3   OH275304   6.452   3.941   3.132 -0.6518 -0.5040 -0.4706
17938TIP3    H175305   6.415   3.962   3.047 -1.6366 -1.1900 -0.2187
17938TIP3    H275306   6.378   3.948   3.193 -0.3087 -1.5793  0.0832
17939TIP3   OH275307   3.741   6.535  15.115  0.1283 -0.4451  0.1901
17939TIP3    H175308   3.797   6.587  15.057  0.4242 -0.1390  0.7517
17939TIP3    H275309   3.759   6.444  15.091  0.2328 -0.3204 -0.2117
17940TIP3   OH275310   5.842   1.856   1.828  0.5172  0.6816  0.0130
17940TIP3    H175311   5.931   1.870   1.797  0.7027 -0.6882 -0.1157
17940TIP3    H275312   5.809   1.943   1.847  0.8290  1.4463 -2.8556
17941TIP3   OH275313   3.082   4.000   5.723 -0.1891 -0.2839  0.0155
17941TIP3    H175314   3.145   4.052   5.672  0.7309 -1.6272 -0.2302
17941TIP3    H275315   3.020   4.065   5.756  1.4012  1.1059  0.3929
17942TIP3   OH275316   5.992   0.705   3.291 -0.0068 -0.2620  1.2165
17942TIP3    H175317   5.966   0.638   3.227 -1.5912  0.1466  1.4149
17942TIP3    H275318   6.050   0.763   3.242 -2.7203  1.1669 -0.4821
17943TIP3   OH275319   5.232   2.127  13.671  0.1282 -0.5600  0.3108
17943TIP3    H175320   5.225   2.150  13.764 -0.0941 -1.1628  0.4445
17943TIP3    H275321   5.299   2.059  13.668  2.8349  2.0490 -0.4237
17944TIP3   OH275322   2.959   1.826   0.797  0.3783 -0.0655  0.7033
17944TIP3    H175323   2.989   1.868   0.878  0.8123  1.1613 -0.0794
17944TIP3    H275324   2.978   1.890   0.729  0.5958 -1.3535 -0.4608
17945TIP3   OH275325   3.580   2.442  10.526 -0.4448  0.1306  0.5027
17945TIP3    H175326   3.494   2.417  10.560 -1.2160  1.1659 -0.5916
17945TIP3    H275327   3.566   2.449  10.431  1.0292 -0.3582  0.2435
17946TIP3   OH275328   5.419   4.489   5.315 -0.5224 -0.1133  0.0781
17946TIP3    H175329   5.497   4.456   5.359 -1.0489 -0.1563  1.0028
17946TIP3    H275330   5.452   4.551   5.250  0.3507 -1.0157 -0.3656
17947TIP3   OH275331   3.759   5.750  14.854 -0.2198 -0.0552 -0.1342
17947TIP3    H175332   3.678   5.776  14.899 -0.4043  0.0565 -0.5281
17947TIP3    H275333   3.800   5.832  14.830 -0.3249 -0.1196 -0.5325
17948TIP3   OH275334   3.219   0.304   5.781 -1.1958 -0.2735 -0.7498
17948TIP3    H175335   3.186   0.288   5.869 -1.3790  0.7418 -0.6303
17948TIP3    H275336   3.140   0.327   5.730 -1.1545 -1.2774 -1.2792
17949TIP3   OH275337   6.408   4.853   1.547  0.4937 -0.2454 -0.9924
17949TIP3    H175338   6.341   4.864   1.614  1.3641  1.6827 -0.4271
17949TIP3    H275339   6.379   4.908   1.474  0.5088 -0.8766 -1.4822
17950TIP3   OH275340   4.350   6.133   2.845 -0.6573 -0.1213 -0.0514
17950TIP3    H175341   4.288   6.060   2.846 -0.8268 -0.0252 -1.8369
17950TIP3    H275342   4.302   6.204   2.804  0.5729  0.0226 -1.2571
17951TIP3   OH275343   5.792   0.463  16.062  0.0297 -0.9975  0.3361
17951TIP3    H175344   5.848   0.458  15.985  0.4470  0.3130  0.5473
17951TIP3    H275345   5.850   0.438  16.135 -0.0844 -1.1888  0.3610
17952TIP3   OH275346   0.959   2.293  16.554 -0.0374  0.2065 -0.2045
17952TIP3    H175347   0.907   2.334  16.485  0.1519 -0.8163 -0.9715
17952TIP3    H275348   1.046   2.330  16.545  0.3552 -0.9757 -1.4517
17953TIP3   OH275349   4.436   3.438   2.255  0.1712 -0.2745  0.4660
17953TIP3    H175350   4.437   3.343   2.243 -0.9977 -0.2575  0.2371
17953TIP3    H275351   4.393   3.472   2.177  0.7952  0.4657  0.4375
17954TIP3   OH275352   5.144   1.054  13.665 -0.1401  0.1381 -0.0170
17954TIP3    H175353   5.162   1.124  13.729  0.4894 -0.8308  0.8818
17954TIP3    H275354   5.151   1.097  13.580  2.8950  0.6214  0.4321
17955TIP3   OH275355   0.612   0.157  12.626 -0.2725  0.6440  0.0653
17955TIP3    H175356   0.693   0.168  12.675 -0.4388 -1.0159  0.7373
17955TIP3    H275357   0.637   0.105  12.550 -0.7700 -0.2329  0.4908
17956TIP3   OH275358   5.632   3.565  15.335 -0.2096  0.2922 -0.8979
17956TIP3    H175359   5.676   3.481  15.327  2.1785  1.6371 -2.5860
17956TIP3    H275360   5.634   3.584  15.429 -1.6555 -1.9459 -0.3831
17957TIP3   OH275361   5.919   5.102   0.372  0.1878  0.4834 -0.1152
17957TIP3    H175362   5.869   5.094   0.290  0.9542  0.5421 -0.5929
17957TIP3    H275363   5.864   5.060   0.438 -0.9952  1.5072 -0.4270
17958TIP3   OH275364   2.111   5.830   5.002  0.3374 -0.6719  0.2502
17958TIP3    H175365   2.145   5.850   5.089  2.0494  0.1008 -0.5632
17958TIP3    H275366   2.115   5.734   4.996  0.2449 -0.7255  1.0115
17959TIP3   OH275367   5.368   3.017   5.066 -0.0359 -0.3743 -0.3502
17959TIP3    H175368   5.448   2.974   5.097 -1.5527 -1.5328  2.1162
17959TIP3    H275369   5.360   2.990   4.974  2.8318  0.4437 -0.8686
17960TIP3   OH275370   5.872   5.199   3.867  0.2366 -0.4070 -0.2299
17960TIP3    H175371   5.829   5.113   3.870 -0.1995 -0.1827  0.0253
17960TIP3    H275372   5.912   5.209   3.953  0.1105 -0.2655 -0.1873
17961TIP3   OH275373   3.332   4.030   6.161 -0.3797  1.0704 -0.0248
17961TIP3    H175374   3.370   3.983   6.236 -1.5885  1.2370  0.7069
17961TIP3    H275375   3.249   4.064   6.194 -0.3674  2.1614 -1.1006
17962TIP3   OH275376   1.361   6.570   2.413 -0.3161  0.0638 -0.6609
17962TIP3    H175377   1.390   6.659   2.431  1.4482 -0.6203 -0.0445
17962TIP3    H275378   1.283   6.581   2.358 -0.8074  1.9965  0.3779
17963TIP3   OH275379   3.925   0.451  15.450  0.4785  0.6252 -0.5030
17963TIP3    H175380   3.980   0.376  15.426  0.8867  0.8511 -0.2725
17963TIP3    H275381   3.843   0.413  15.480  1.6377  0.1626  2.1784
17964TIP3   OH275382   4.675   5.811  11.438  0.0257  0.4112 -0.4194
17964TIP3    H175383   4.650   5.861  11.360 -0.0263  0.5366 -0.3232
17964TIP3    H275384   4.762   5.842  11.461  0.1178  0.2408 -0.5371
17965TIP3   OH275385   3.794   1.394  11.225 -0.4313 -0.0174  0.1641
17965TIP3    H175386   3.793   1.442  11.142  2.2022 -1.1768 -0.6178
17965TIP3    H275387   3.716   1.338  11.222  0.0952 -0.6883 -1.9665
17966TIP3   OH275388   2.846   2.252   4.694  0.4474  0.1511 -0.3997
17966TIP3    H175389   2.909   2.310   4.652 -1.5323  2.2068 -0.5922
17966TIP3    H275390   2.790   2.221   4.623  0.2620 -0.4282 -0.0054
17967TIP3   OH275391   6.280   0.384  15.539  0.8354 -0.5593  0.7006
17967TIP3    H175392   6.357   0.329  15.524  0.8468 -0.6598  1.1493
17967TIP3    H275393   6.309   0.449  15.603  0.5848 -0.5099  0.7620
17968TIP3   OH275394   1.145   0.595  10.904 -0.5952  0.2274 -0.3602
17968TIP3    H175395   1.061   0.552  10.890 -0.2782 -0.9308  1.1363
17968TIP3    H275396   1.209   0.525  10.896  0.1462  0.9184 -0.5065
17969TIP3   OH275397   3.651   5.539  15.516 -0.3407 -0.4272  0.1094
17969TIP3    H175398   3.730   5.497  15.551  0.8935  0.9870 -0.9664
17969TIP3    H275399   3.635   5.495  15.433  0.4582  0.6399 -0.6115
17970TIP3   OH275400   2.512   4.463  12.366  0.7883 -0.4069 -0.5400
17970TIP3    H175401   2.421   4.454  12.395  0.0323 -2.1161 -3.2842
17970TIP3    H275402   2.541   4.544  12.406 -2.1169  0.4544 -0.0203
17971TIP3   OH275403   0.976   6.663   1.138  0.7236  0.6802  0.0242
17971TIP3    H175404   0.984   6.749   1.097 -1.0574  1.3440  0.9836
17971TIP3    H275405   1.048   6.659   1.200 -0.0120  2.0946  1.0005
17972TIP3   OH275406   3.576   4.999   5.340  0.0453 -0.0176 -0.0035
17972TIP3    H175407   3.531   4.914   5.345 -0.7078  0.4391  1.5410
17972TIP3    H275408   3.526   5.049   5.276  0.2772 -0.6197 -0.6583
17973TIP3   OH275409   3.946   0.523   5.144  0.1713  0.1166  0.0402
17973TIP3    H175410   4.015   0.555   5.201 -2.2195  0.5775  2.7726
17973TIP3    H275411   3.920   0.600   5.092  1.4908 -0.0017 -0.8169
17974TIP3   OH275412   2.682   5.058   4.341 -0.6143  0.2666 -0.2836
17974TIP3    H175413   2.702   5.152   4.339  0.4754  0.0699  0.6842
17974TIP3    H275414   2.611   5.051   4.405 -2.4366  0.7118 -2.1935
17975TIP3   OH275415   0.783   1.584  17.219 -0.5344 -0.4008 -0.1531
17975TIP3    H175416   0.842   1.584  17.144 -1.9958  1.0953 -1.3362
17975TIP3    H275417   0.738   1.668  17.215 -0.0866  0.0441  2.8553
17976TIP3   OH275418   0.821   4.141  14.146 -0.0171  0.3010  0.0990
17976TIP3    H175419   0.746   4.085  14.126  0.9776 -0.9492 -0.1861
17976TIP3    H275420   0.836   4.129  14.240  0.7500 -0.6210 -0.1332
17977TIP3   OH275421   4.542   2.121  16.936  0.7415 -0.2426  0.0742
17977TIP3    H175422   4.523   2.177  17.011 -1.3330  0.5494 -1.0357
17977TIP3    H275423   4.476   2.052  16.940  0.2090  0.1845 -1.4287
17978TIP3   OH275424   5.499   6.047   4.107 -0.0103  0.7572  0.5697
17978TIP3    H175425   5.452   6.049   4.191 -0.3653 -0.6083  0.4246
17978TIP3    H275426   5.434   6.074   4.043 -0.7951 -1.6516  0.3013
17979TIP3   OH275427   6.071   5.516   4.929 -0.0148 -0.0067 -0.0224
17979TIP3    H175428   6.024   5.593   4.961 -0.1932 -0.4288  0.7550
17979TIP3    H275429   6.086   5.533   4.836  0.8265  1.3975  0.3599
17980TIP3   OH275430   6.351   0.108  14.051 -0.2585 -0.3790 -0.3055
17980TIP3    H175431   6.404   0.160  14.112  1.1726 -2.5989  0.3974
17980TIP3    H275432   6.320   0.034  14.103 -4.0531  0.7932 -0.7285
17981TIP3   OH275433   5.343   4.747   2.641 -0.2433  0.4299  0.0654
17981TIP3    H175434   5.252   4.766   2.621  0.3255  1.1959 -1.9602
17981TIP3    H275435   5.389   4.830   2.624  0.9834 -0.2587 -0.0725
17982TIP3   OH275436   1.968   2.971   3.358 -0.0001 -0.1951 -0.0133
17982TIP3    H175437   1.932   2.898   3.307 -0.5549 -0.2624  0.4827
17982TIP3    H275438   2.063   2.958   3.354 -0.0836 -0.7280 -0.2445
17983TIP3   OH275439   0.137   0.639  14.855 -0.3414  0.2241 -0.4804
17983TIP3    H175440   0.191   0.695  14.910 -1.6338  0.4316  0.5812
17983TIP3    H275441   0.188   0.628  14.774  0.6505  1.5585 -0.0385
17984TIP3   OH275442   4.113   0.543  12.132 -0.0326  0.2191 -0.0946
17984TIP3    H175443   4.063   0.506  12.205 -0.3172  0.0300 -0.3833
17984TIP3    H275444   4.194   0.492  12.129 -0.2876 -0.1765 -0.2923
17985TIP3   OH275445   5.526   2.610   0.391 -0.1226  0.2942  0.6190
17985TIP3    H175446   5.513   2.664   0.468 -0.7595  1.9983 -0.6399
17985TIP3    H275447   5.579   2.664   0.332 -3.4153  0.8800 -1.9675
17986TIP3   OH275448   3.517   3.323   0.404 -0.5304 -0.4122 -0.0771
17986TIP3    H175449   3.494   3.294   0.493 -1.4274  0.2320 -0.0913
17986TIP3    H275450   3.433   3.328   0.358 -0.0620 -0.8472 -1.0019
17987TIP3   OH275451   2.599   0.043   0.311  0.2925 -0.3468 -0.3863
17987TIP3    H175452   2.573  -0.033   0.260  0.0362 -0.2934 -0.3353
17987TIP3    H275453   2.528   0.056   0.374 -0.2371  0.6380 -1.1667
17988TIP3   OH275454   4.887   3.842  15.129 -0.3278  0.2180 -0.4083
17988TIP3    H175455   4.978   3.846  15.157  0.0358  3.2968 -1.9033
17988TIP3    H275456   4.877   3.754  15.092  1.7727 -0.4591  0.5759
17989TIP3   OH275457   3.726   4.899  11.542  0.1710 -0.1626  0.6813
17989TIP3    H175458   3.711   4.830  11.478  0.0313  1.5208 -1.1589
17989TIP3    H275459   3.819   4.918  11.537  0.0989  0.2177  0.7041
17990TIP3   OH275460   4.514   1.871   1.160 -0.2856 -0.2076  0.1058
17990TIP3    H175461   4.599   1.847   1.196 -0.3393 -0.3366  0.1480
17990TIP3    H275462   4.451   1.841   1.226 -0.3201  0.5430  0.4245
17991TIP3   OH275463   3.173   4.209  12.404  0.3205  0.2042  0.1628
17991TIP3    H175464   3.260   4.243  12.380  0.0226  2.0858  1.6127
17991TIP3    H275465   3.120   4.288  12.417 -1.0098 -0.9007  1.4853
17992TIP3   OH275466   0.041   0.329  12.752 -0.2394 -0.2145  0.1036
17992TIP3    H175467   0.086   0.260  12.703  0.2454  0.9045 -1.0547
17992TIP3    H275468  -0.041   0.288  12.781  1.2630 -2.1126  1.7889
17993TIP3   OH275469   1.339   0.946  17.184  0.1731 -0.4833  0.4921
17993TIP3    H175470   1.287   1.024  17.202  1.1716  0.5814 -1.0302
17993TIP3    H275471   1.276   0.874  17.181 -0.8787  0.4115  0.9894
17994TIP3   OH275472   3.970   1.075  11.623  0.2496 -0.3458  0.4137
17994TIP3    H175473   3.887   1.098  11.583  1.1299  2.2755 -0.0059
17994TIP3    H275474   3.954   1.079  11.717 -0.1793 -0.1055  0.3292
17995TIP3   OH275475   5.254   4.123   1.762  0.0842 -0.7521 -0.4117
17995TIP3    H175476   5.254   4.094   1.853 -0.6031 -0.2638 -0.2534
17995TIP3    H275477   5.210   4.208   1.763  0.5982 -0.4692 -1.1152
17996TIP3   OH275478   2.495   6.000  12.407  0.4811 -0.2623  0.2920
17996TIP3    H175479   2.482   6.067  12.474  1.7652 -0.7519  1.0416
17996TIP3    H275480   2.530   5.925  12.455  1.8725 -0.4533 -0.9973
17997TIP3   OH275481   4.765   0.333  11.633 -0.3140  0.4948 -0.0913
17997TIP3    H175482   4.776   0.355  11.726  1.2183  2.0018 -0.6112
17997TIP3    H275483   4.798   0.409  11.586  0.8627 -1.0830 -1.9058
17998TIP3   OH275484   2.867   3.849  13.421  0.0605  0.2371  0.1198
17998TIP3    H175485   2.929   3.922  13.419 -0.6904  1.0065  3.1573
17998TIP3    H275486   2.923   3.771  13.410  0.9574  1.1515 -2.2432
17999TIP3   OH275487   4.472   1.322   1.763  0.0291  0.6879  0.4355
17999TIP3    H175488   4.430   1.270   1.695  0.1326 -1.0640  1.6685
17999TIP3    H275489   4.521   1.389   1.715 -2.7140  1.7108 -1.0888
18000TIP3   OH275490   4.871   1.979   0.852 -0.3100  0.2404 -1.1021
18000TIP3    H175491   4.878   1.948   0.762  1.1043  1.5588 -1.4636
18000TIP3    H275492   4.890   1.902   0.906  0.0847 -0.2584 -1.9445
18001TIP3   OH275493   5.602   2.178  15.476 -0.2926  0.4350  0.2468
18001TIP3    H175494   5.622   2.095  15.520 -2.4260  0.3881  1.1717
18001TIP3    H275495   5.557   2.152  15.396 -0.5057  0.6864  0.2848
18002TIP3   OH275496   4.842   3.200   3.368 -0.1040 -0.2703  0.0697
18002TIP3    H175497   4.913   3.151   3.410 -1.6376 -2.0732  0.6203
18002TIP3    H275498   4.853   3.289   3.400  1.0819 -0.8212  1.2457
18003TIP3   OH275499   4.133   6.535  11.248 -0.0727 -0.0839 -0.1055
18003TIP3    H175500   4.145   6.440  11.250 -1.7631 -0.2798  2.0900
18003TIP3    H275501   4.161   6.565  11.335 -0.4131  1.3171 -0.4682
18004TIP3   OH275502   5.541   3.011  14.443  0.9830 -0.3935 -0.3409
18004TIP3    H175503   5.473   2.961  14.488  1.5817 -1.3661 -0.5178
18004TIP3    H275504   5.576   3.070  14.510  1.6624 -1.6232  0.3965
18005TIP3   OH275505   2.662   3.075   5.263  0.5010  0.3474 -0.1429
18005TIP3    H175506   2.571   3.071   5.293 -0.1662 -0.5910 -2.2236
18005TIP3    H275507   2.679   3.168   5.250  0.3652  0.6574  1.7794
18006TIP3   OH275508   1.556   6.360   4.276 -0.2206 -0.3878  0.0523
18006TIP3    H175509   1.503   6.281   4.282 -4.6874  2.5401  1.0878
18006TIP3    H275510   1.574   6.369   4.182 -0.6810 -1.9633 -0.2046
18007TIP3   OH275511   0.409   1.497  11.338 -0.9130 -0.1963 -0.0066
18007TIP3    H175512   0.329   1.522  11.383 -0.0807  0.2232  1.2506
18007TIP3    H275513   0.415   1.558  11.264 -0.6612  1.1366  1.0971
18008TIP3   OH275514   2.076   0.238  15.219  0.1639 -0.4289 -0.2060
18008TIP3    H175515   2.147   0.282  15.173 -0.5934  1.8715  0.7868
18008TIP3    H275516   2.051   0.166  15.161  2.0976 -0.2024 -1.3614
18009TIP3   OH275517   2.349   6.280   3.893 -0.1251  0.1514 -0.8310
18009TIP3    H175518   2.264   6.308   3.928 -0.3703 -1.1146 -0.3857
18009TIP3    H275519   2.380   6.355   3.842 -1.8385  0.3820 -1.5680
18010TIP3   OH275520   4.185   2.298  11.108  0.4168  0.0161  0.2872
18010TIP3    H175521   4.209   2.248  11.031 -0.8738 -1.7161  0.9770
18010TIP3    H275522   4.210   2.243  11.182 -2.9904 -0.6753  1.0428
18011TIP3   OH275523   5.571   4.529   5.991  0.1271  0.2814  0.4203
18011TIP3    H175524   5.557   4.463   6.059 -1.8257  1.4484  1.1896
18011TIP3    H275525   5.585   4.611   6.040 -1.9783  1.2586 -0.5621
18012TIP3   OH275526   4.160   4.453   2.826 -0.2832 -0.5088  0.5871
18012TIP3    H175527   4.236   4.400   2.850  0.2581 -0.1741 -0.3538
18012TIP3    H275528   4.166   4.531   2.881  0.1134 -0.4407  0.4474
18013TIP3   OH275529   3.594   0.356  15.424 -0.3121  0.3139  0.2736
18013TIP3    H175530   3.610   0.450  15.430 -2.7416  0.8006 -0.4988
18013TIP3    H275531   3.499   0.347  15.423 -0.1233 -2.2078  1.0092
18014TIP3   OH275532   6.727   4.691  13.293  0.4211 -0.1162  0.1560
18014TIP3    H175533   6.806   4.680  13.345  0.7062  1.6937  0.1541
18014TIP3    H275534   6.674   4.753  13.344  0.2477  0.8560 -1.1794
18015TIP3   OH275535   2.072   3.295  13.316 -0.3157 -0.1455 -0.4701
18015TIP3    H175536   2.100   3.348  13.391  0.4042 -0.5607 -0.4447
18015TIP3    H275537   2.107   3.208  13.334  0.0630 -0.1906 -1.3989
18016TIP3   OH275538   2.841   4.807  16.341  0.1092 -0.1510 -0.1005
18016TIP3    H175539   2.746   4.822  16.341 -0.1401 -1.5286  2.3930
18016TIP3    H275540   2.856   4.749  16.267 -0.6140  2.0813 -2.0701
18017TIP3   OH275541   1.452   5.660  11.980 -0.0237 -0.0369 -0.2040
18017TIP3    H175542   1.465   5.755  11.974 -0.5255 -0.0121 -0.9449
18017TIP3    H275543   1.539   5.624  11.961  0.4802  0.2948  1.3549
18018TIP3   OH275544   4.047   3.586   3.555  0.2701 -0.2462 -0.8852
18018TIP3    H175545   4.096   3.615   3.478  0.0090 -0.4661 -1.1360
18018TIP3    H275546   4.113   3.548   3.613  0.5406  0.3938 -0.7718
18019TIP3   OH275547   0.385   6.086   0.356 -0.3836  0.5573 -0.1598
18019TIP3    H175548   0.308   6.031   0.347  1.3099 -1.6604 -1.6705
18019TIP3    H275549   0.355   6.174   0.334 -2.5845 -0.1806 -0.1784
18020TIP3   OH275550   0.816   5.703   2.300  0.4859 -0.5078 -0.3521
18020TIP3    H175551   0.776   5.640   2.240 -0.2316  0.1756 -0.6104
18020TIP3    H275552   0.850   5.772   2.243 -1.5509  0.9016  0.0784
18021TIP3   OH275553   4.575   1.857  13.517  0.5159  0.7669 -0.0013
18021TIP3    H175554   4.518   1.787  13.485 -0.1206  0.4643  1.7146
18021TIP3    H275555   4.536   1.937  13.483 -0.0720  0.4537 -0.0705
18022TIP3   OH275556   0.386   3.004   5.497  0.6651  0.3917  0.2389
18022TIP3    H175557   0.380   3.097   5.519  0.6035  0.1849  1.0964
18022TIP3    H275558   0.403   3.004   5.403 -0.6331  1.2435 -0.0128
18023TIP3   OH275559   3.422   2.207   1.669  0.2221 -0.6348  0.1015
18023TIP3    H175560   3.504   2.183   1.625  0.4766 -0.0294  0.2383
18023TIP3    H275561   3.449   2.245   1.752 -0.1942 -0.3335  0.1015
18024TIP3   OH275562   1.094   3.531  14.722  0.0776  0.3811  0.1718
18024TIP3    H175563   1.174   3.487  14.694 -0.8309 -0.7550 -0.6956
18024TIP3    H275564   1.118   3.623  14.729  0.9000  0.3998 -2.2947
18025TIP3   OH275565   5.425   1.018  11.803  0.2479  0.2335 -0.3807
18025TIP3    H175566   5.478   1.045  11.877 -1.4890 -0.1122  1.0186
18025TIP3    H275567   5.376   1.097  11.778 -1.6017 -0.4806  0.9434
18026TIP3   OH275568   4.370   5.501   5.182 -0.0597 -0.6136 -0.7718
18026TIP3    H175569   4.455   5.542   5.163 -0.7685 -0.0213 -2.7600
18026TIP3    H275570   4.390   5.408   5.191  0.7776 -0.4975 -1.3763
18027TIP3   OH275571   4.064   3.812   0.656  0.0332 -0.0705 -0.2629
18027TIP3    H175572   4.153   3.824   0.624 -0.1017 -0.6021 -0.8437
18027TIP3    H275573   4.011   3.807   0.577 -0.4224 -0.4478  0.0676
18028TIP3   OH275574   4.806   1.574   0.329  0.5211  0.0976  0.6343
18028TIP3    H175575   4.863   1.528   0.390  0.5846 -1.2153 -0.3851
18028TIP3    H275576   4.865   1.625   0.274  0.6253 -0.3745  0.3087
18029TIP3   OH275577   2.925   6.810   1.803  0.2124  0.4969 -0.0095
18029TIP3    H175578   2.973   6.882   1.762  0.2062  1.2397  1.2593
18029TIP3    H275579   2.894   6.846   1.886  0.1533 -0.9544  0.6110
18030TIP3   OH275580   0.334   0.390  11.579 -0.3334 -0.1336 -0.1680
18030TIP3    H175581   0.281   0.325  11.627 -1.5274  0.4133 -0.7091
18030TIP3    H275582   0.408   0.340  11.544 -2.3240 -1.6956 -2.3511
18031TIP3   OH275583   5.254   3.274   3.069 -0.0595 -0.2101 -0.3929
18031TIP3    H175584   5.164   3.305   3.078  0.1177 -0.0388  0.8793
18031TIP3    H275585   5.288   3.321   2.993  0.0795  2.4820  1.2619
18032TIP3   OH275586   4.824   6.119  13.092 -0.0725 -0.0428 -0.2496
18032TIP3    H175587   4.871   6.198  13.120 -0.0902 -1.1272  3.0791
18032TIP3    H275588   4.777   6.146  13.013  2.2712  2.4194 -0.8714
18033TIP3   OH275589   1.810   6.382  17.196  0.4696 -0.5857  0.3011
18033TIP3    H175590   1.780   6.323  17.266 -0.1345  1.6695  2.0261
18033TIP3    H275591   1.858   6.451  17.242  1.0175  0.3513 -1.6310
18034TIP3   OH275592   5.151   0.697  15.306  0.3279 -0.2470 -0.4636
18034TIP3    H175593   5.113   0.757  15.241  0.4099  0.2487 -0.0530
18034TIP3    H275594   5.203   0.754  15.363  0.1314 -0.6684  0.1286
18035TIP3   OH275595   6.753   0.474  12.422  0.7284  0.3609 -0.3287
18035TIP3    H175596   6.680   0.426  12.384  0.2386  1.6503 -1.0415
18035TIP3    H275597   6.824   0.410  12.425 -0.8830 -1.3857  1.9270
18036TIP3   OH275598   4.700   6.034  11.674 -0.4280  0.3507  0.3837
18036TIP3    H175599   4.651   5.953  11.688 -0.5813  0.5575  1.0737
18036TIP3    H275600   4.779   6.007  11.627 -0.8683 -0.0816 -0.1039
18037TIP3   OH275601   6.117   5.140   0.714  0.3893  0.3981  0.2536
18037TIP3    H175602   6.110   5.161   0.807 -2.3969 -0.8663  0.3481
18037TIP3    H275603   6.052   5.196   0.671  0.5274 -0.2006 -0.7675
18038TIP3   OH275604   0.109   0.826   5.626 -0.0937  0.4540  0.5062
18038TIP3    H175605   0.062   0.779   5.696  0.4332  1.3591  1.4815
18038TIP3    H275606   0.176   0.877   5.672  0.4343  0.8607 -0.6908
18039TIP3   OH275607   0.065   1.538   6.439  0.4612 -0.0674 -0.4162
18039TIP3    H175608   0.072   1.627   6.475  2.3164  0.4311 -1.9051
18039TIP3    H275609   0.026   1.550   6.352  0.4573 -0.7324 -0.5094
18040TIP3   OH275610   0.103   6.529   2.616  0.1096  0.2731 -0.4199
18040TIP3    H175611   0.010   6.545   2.597 -0.1535  0.7455  1.2581
18040TIP3    H275612   0.125   6.453   2.561 -1.9806 -1.5495  1.1804
18041TIP3   OH275613   5.536   3.500  10.595 -0.3759  0.6440  0.0054
18041TIP3    H175614   5.503   3.567  10.655 -2.6131  0.6089 -1.1133
18041TIP3    H275615   5.468   3.433  10.595 -0.1275  0.3630 -2.0806
18042TIP3   OH275616   1.927   5.145  15.810 -0.2252 -0.8246 -0.4157
18042TIP3    H175617   1.854   5.110  15.861  0.1446  0.5730  1.1586
18042TIP3    H275618   1.996   5.159  15.875  0.7694 -0.3460 -1.5624
18043TIP3   OH275619   4.972   2.430   0.090  0.0051  0.9847 -0.2805
18043TIP3    H175620   5.028   2.408   0.164 -0.9268  1.8526  0.6953
18043TIP3    H275621   5.025   2.489   0.036  0.6980  0.3187 -0.3413
18044TIP3   OH275622   4.911   4.767  11.338 -0.1826  0.1845  0.2436
18044TIP3    H175623   4.837   4.828  11.341 -0.1141  0.2568  0.4799
18044TIP3    H275624   4.988   4.822  11.334 -0.0491  0.1464  1.8238
18045TIP3   OH275625   4.243   6.702   5.189 -0.3307 -0.1222  0.2920
18045TIP3    H175626   4.210   6.667   5.106  0.6609  0.2301 -0.2619
18045TIP3    H275627   4.171   6.690   5.251 -0.1640 -2.7158  0.0272
18046TIP3   OH275628   5.656   0.073   4.051  0.0728  0.7624 -0.4776
18046TIP3    H175629   5.600   0.046   3.979 -0.0207 -0.6273  0.0921
18046TIP3    H275630   5.697   0.154   4.022  1.6055 -0.8174 -2.9152
18047TIP3   OH275631   6.311   3.655  14.080  0.0617 -0.4138 -0.2458
18047TIP3    H175632   6.330   3.562  14.068  1.3763 -0.0358 -1.1487
18047TIP3    H275633   6.392   3.692  14.115 -0.6531  0.2807  0.6927
18048TIP3   OH275634   3.229   2.113  12.763  0.0147 -0.0801  0.3092
18048TIP3    H175635   3.222   2.198  12.720  0.5781 -0.1450  0.0769
18048TIP3    H275636   3.141   2.093  12.793  0.0468  1.0274  1.1877
18049TIP3   OH275637   4.599   3.346   2.997  0.5860 -0.3144 -0.1465
18049TIP3    H175638   4.573   3.355   2.905  0.6338  1.5420 -0.0067
18049TIP3    H275639   4.693   3.364   2.997  0.5601 -0.1700  0.2751
18050TIP3   OH275640   1.464   2.076   1.159  0.4464 -0.2921  0.5245
18050TIP3    H175641   1.433   2.119   1.079  0.0628 -1.2335  0.1554
18050TIP3    H275642   1.559   2.078   1.152  0.4154 -0.3227  0.0740
18051TIP3   OH275643   1.848   3.815   3.294  0.3327  0.0970  0.2932
18051TIP3    H175644   1.785   3.883   3.316 -0.3502 -0.1166 -0.9244
18051TIP3    H275645   1.796   3.735   3.288  0.6272 -0.0032 -1.1696
18052TIP3   OH275646   1.104   0.953  15.011 -0.1566  0.3966 -0.2600
18052TIP3    H175647   1.173   0.968  15.076 -0.1704  1.0212 -0.3807
18052TIP3    H275648   1.110   0.860  14.991  1.5567  0.7001 -1.2617
18053TIP3   OH275649   1.601   5.594  13.492  0.4381 -0.5072 -0.0506
18053TIP3    H175650   1.649   5.553  13.563 -0.6236 -0.4033  0.7541
18053TIP3    H275651   1.638   5.682  13.486 -0.6772  0.1047  1.6124
18054TIP3   OH275652   3.533   3.296   2.342 -0.2341 -0.3439 -0.4768
18054TIP3    H175653   3.609   3.351   2.365  2.1366 -3.2892 -0.9487
18054TIP3    H275654   3.508   3.325   2.255  0.7802  0.2251 -0.5898
18055TIP3   OH275655   0.818   2.296   3.413  0.0952 -0.1253 -0.3782
18055TIP3    H175656   0.848   2.233   3.478  0.1992  0.4432  0.1284
18055TIP3    H275657   0.835   2.253   3.329  1.6743 -0.1118 -0.0776
18056TIP3   OH275658   5.841   4.493  12.867  0.1330  1.0381 -0.1230
18056TIP3    H175659   5.835   4.421  12.930 -2.2065  0.5149 -0.8722
18056TIP3    H275660   5.931   4.490  12.835  0.7055 -0.1098  1.5400
18057TIP3   OH275661   6.357   1.257   2.029 -0.2500 -0.2427 -0.0282
18057TIP3    H175662   6.400   1.275   1.946  0.9326 -0.6208  0.4986
18057TIP3    H275663   6.414   1.194   2.073  0.1334  1.3591  1.8782
18058TIP3   OH275664   5.390   3.356   5.944 -0.0237  0.3121  0.3383
18058TIP3    H175665   5.357   3.426   5.888 -1.8367  0.2713  1.3545
18058TIP3    H275666   5.390   3.279   5.887 -0.2307  0.6286 -0.0944
18059TIP3   OH275667   6.435   2.852  16.604 -0.2250  0.3641 -0.2281
18059TIP3    H175668   6.510   2.836  16.661  0.2008  1.7154 -0.3811
18059TIP3    H275669   6.361   2.860  16.665  0.3492  2.5552  0.2406
18060TIP3   OH275670   2.141   0.647   6.627 -0.0079  0.5722  0.2036
18060TIP3    H175671   2.151   0.629   6.534 -2.8849 -1.1521  0.1750
18060TIP3    H275672   2.127   0.742   6.631 -0.1597  0.6155 -1.1479
18061TIP3   OH275673   6.033   6.192  12.888  0.5557  0.2967  0.5275
18061TIP3    H175674   6.092   6.192  12.812  1.0389  0.9670  0.8995
18061TIP3    H275675   5.966   6.257  12.866  0.3962  0.1048  0.4447
18062TIP3   OH275676   3.631   3.670  17.027 -0.7289  0.6574  0.0633
18062TIP3    H175677   3.715   3.632  17.052 -0.2950  2.5864  1.6549
18062TIP3    H275678   3.654   3.748  16.977 -1.5448  2.1706  1.9992
18063TIP3   OH275679   4.428   5.871  12.636 -0.6682  0.0411  0.6574
18063TIP3    H175680   4.454   5.963  12.639 -0.9165  0.1066  0.8824
18063TIP3    H275681   4.420   5.851  12.543 -1.1221  0.3981  0.6206
18064TIP3   OH275682   0.604   0.297   1.175 -0.1339 -0.3429 -0.0014
18064TIP3    H175683   0.589   0.391   1.172  1.1932 -0.1185  0.3404
18064TIP3    H275684   0.520   0.261   1.203 -0.2485  0.8433  1.2364
18065TIP3   OH275685   4.118   0.829  14.563 -0.3115  0.0831 -0.3394
18065TIP3    H175686   4.184   0.895  14.584 -1.7334  1.4714 -0.1540
18065TIP3    H275687   4.143   0.753  14.616  1.4825  0.3541 -0.7438
18066TIP3   OH275688   2.385   1.578   0.192 -0.1011  0.3657 -0.2252
18066TIP3    H175689   2.340   1.631   0.258 -0.1641 -0.2362  0.2164
18066TIP3    H275690   2.371   1.488   0.220 -0.2500  0.1009 -1.1441
18067TIP3   OH275691   5.400   1.453  14.786 -0.7169 -0.0391 -0.0362
18067TIP3    H175692   5.329   1.448  14.849 -1.1046 -0.7932 -0.5217
18067TIP3    H275693   5.361   1.496  14.710 -0.4062  0.3625  0.0329
18068TIP3   OH275694   0.932   2.807   3.179  0.2568  0.3281  0.3438
18068TIP3    H175695   0.892   2.721   3.189 -0.2511  0.6071  0.7254
18068TIP3    H275696   0.897   2.840   3.096  0.1816  0.3142  0.3703
18069TIP3   OH275697   3.576   3.531  10.262  0.2740  0.1856 -0.2261
18069TIP3    H175698   3.665   3.543  10.230  0.1650  0.8778 -0.2799
18069TIP3    H275699   3.573   3.440  10.291  1.0860  0.2480  0.0660
18070TIP3   OH275700   1.149   1.941  13.420  0.4393  0.2163 -0.1175
18070TIP3    H175701   1.244   1.935  13.415  0.4677 -0.5765  1.2650
18070TIP3    H275702   1.131   2.035  13.417  1.3257  0.4175  0.5224
18071TIP3   OH275703   6.705   6.062  14.134  0.1090 -0.1229  0.0251
18071TIP3    H175704   6.647   6.014  14.192  1.8778 -2.1173  0.2086
18071TIP3    H275705   6.781   6.084  14.188  1.0723 -0.6117 -1.0849
18072TIP3   OH275706   4.060   5.057  16.863 -0.2023 -0.7253 -0.3344
18072TIP3    H175707   4.102   4.995  16.803  0.9667  0.4846 -0.7881
18072TIP3    H275708   3.991   5.006  16.905  0.7865 -2.3695 -0.6356
18073TIP3   OH275709   2.599   2.871  13.021  0.2591  0.2742 -0.1618
18073TIP3    H175710   2.556   2.952  13.049  1.3504  0.3810  1.2824
18073TIP3    H275711   2.566   2.804  13.081 -0.0006 -0.2011 -0.8214
18074TIP3   OH275712   4.914   5.361  16.363 -0.2454  0.2249  0.1426
18074TIP3    H175713   4.887   5.269  16.366  1.0778 -0.2036 -0.7333
18074TIP3    H275714   4.837   5.409  16.394 -0.6007 -1.2365  1.5978
18075TIP3   OH275715   4.156   4.609   0.228  0.1406 -0.5865  0.0664
18075TIP3    H175716   4.093   4.636   0.160 -0.6784  0.2133  1.1271
18075TIP3    H275717   4.102   4.566   0.294  0.8588 -0.7922  0.5198
18076TIP3   OH275718   2.346   1.564  15.539  0.3970 -0.3744  0.1163
18076TIP3    H175719   2.416   1.608  15.588  1.0608 -0.8966 -0.3391
18076TIP3    H275720   2.375   1.472  15.536  0.6006 -0.2736 -1.6461
18077TIP3   OH275721   5.913   6.775  13.353  0.1046  0.6257 -0.3952
18077TIP3    H175722   5.982   6.754  13.416 -1.4291  1.0446  1.4928
18077TIP3    H275723   5.913   6.871  13.349  0.0440  0.6062 -0.8741
18078TIP3   OH275724   6.539   0.099  13.048 -0.4048 -0.2937  1.0046
18078TIP3    H175725   6.550   0.185  13.008  0.6604 -2.0656 -2.6975
18078TIP3    H275726   6.445   0.094  13.067 -0.6683  1.2109  0.2000
18079TIP3   OH275727   1.606   2.856   2.212  0.2012 -0.2003  0.7407
18079TIP3    H175728   1.611   2.762   2.230  0.3927 -0.1303  1.0688
18079TIP3    H275729   1.693   2.889   2.235  0.2545 -0.0057  0.2527
18080TIP3   OH275730   5.497   6.219  16.276  0.9968  0.6729 -0.3999
18080TIP3    H175731   5.465   6.217  16.366  2.0564  0.4372 -0.0219
18080TIP3    H275732   5.539   6.134  16.264  0.3103  0.4600 -1.3279
18081TIP3   OH275733   4.024   0.016   4.373  0.3377  0.0001  0.7097
18081TIP3    H175734   3.993  -0.031   4.295  1.1329  1.1073 -0.3038
18081TIP3    H275735   4.094  -0.040   4.408  0.1280 -0.3963  0.5034
18082TIP3   OH275736   4.077   5.634   6.716 -0.5759  0.3853  0.5278
18082TIP3    H175737   4.009   5.664   6.656 -0.3199  0.3030  0.1945
18082TIP3    H275738   4.037   5.559   6.762  0.2456 -1.4571 -1.6665
18083TIP3   OH275739   0.167   3.684  12.233  0.6466 -0.0752  0.0369
18083TIP3    H175740   0.144   3.666  12.324 -0.6840 -1.1860 -0.4985
18083TIP3    H275741   0.095   3.739  12.200  1.3912  0.7746 -0.2056
18084TIP3   OH275742   5.735   0.995  15.228  0.2508 -0.7301 -0.2763
18084TIP3    H175743   5.659   0.937  15.229 -0.8743  0.7109 -0.7008
18084TIP3    H275744   5.726   1.048  15.307  0.7207 -0.4288 -0.4236
18085TIP3   OH275745   0.827   3.324  13.445 -0.4501  0.0626  0.3657
18085TIP3    H175746   0.897   3.339  13.509  0.3272 -0.3667 -0.3803
18085TIP3    H275747   0.844   3.236  13.411 -2.1514 -0.5973  1.1776
18086TIP3   OH275748   2.017   3.487  11.978 -0.4337  0.1591  0.2469
18086TIP3    H175749   2.035   3.468  12.070  0.4859  0.0881  0.0588
18086TIP3    H275750   2.021   3.583  11.972  0.7485  0.1060  0.0419
18087TIP3   OH275751   0.188   1.985  13.895  0.1462 -0.1764 -0.0654
18087TIP3    H175752   0.269   2.036  13.894  0.2957 -0.4174 -0.3595
18087TIP3    H275753   0.183   1.946  13.808  0.5191 -1.4220  0.4565
18088TIP3   OH275754   1.401   6.651   4.139 -0.3923 -0.1934  0.0175
18088TIP3    H175755   1.439   6.565   4.157  1.6598  0.9182  1.1168
18088TIP3    H275756   1.366   6.643   4.050 -2.0724 -2.7679  0.8220
18089TIP3   OH275757   0.398   0.472  11.945  0.1902  0.2965  0.8891
18089TIP3    H175758   0.395   0.552  11.893  0.9667 -0.0152  0.3672
18089TIP3    H275759   0.420   0.403  11.883 -2.3518 -0.6570  0.9687
18090TIP3   OH275760   2.362   0.657  10.790  0.1631  0.0214  0.2280
18090TIP3    H175761   2.407   0.583  10.830  1.2999 -0.1677 -1.3395
18090TIP3    H275762   2.277   0.622  10.764  1.2045 -1.1201 -1.7094
18091TIP3   OH275763   2.221   1.192   3.639  0.4035 -0.4469 -0.7910
18091TIP3    H175764   2.252   1.106   3.667  0.4426  0.0295  0.6478
18091TIP3    H275765   2.128   1.180   3.624  0.7359 -1.1878 -2.4084
18092TIP3   OH275766   0.702   3.796   2.880 -0.0626 -0.1410  0.0071
18092TIP3    H175767   0.639   3.868   2.885  1.2888  0.9553  1.7115
18092TIP3    H275768   0.764   3.824   2.813  1.0507  0.7785  1.4043
18093TIP3   OH275769   6.738   5.643   2.720  0.2642  0.5894 -0.1863
18093TIP3    H175770   6.674   5.681   2.781  0.1784  0.3016 -0.0922
18093TIP3    H275771   6.752   5.710   2.654  0.9641  1.2309  0.5902
18094TIP3   OH275772   3.329   5.964  15.790 -0.1391 -0.4178 -0.2093
18094TIP3    H175773   3.280   6.044  15.809  0.2183 -0.7616  2.2941
18094TIP3    H275774   3.282   5.895  15.836  1.2148 -1.1734  0.0781
18095TIP3   OH275775   4.404   5.880  11.685  0.0365 -0.0296 -0.4985
18095TIP3    H175776   4.312   5.904  11.699  0.7080  2.3443  0.1274
18095TIP3    H275777   4.402   5.787  11.664 -2.5293  0.0306 -0.6538
18096TIP3   OH275778   0.075   4.954  11.314 -0.1621  0.5104 -0.5184
18096TIP3    H175779   0.087   5.045  11.339  0.2616  0.4603 -0.5360
18096TIP3    H275780   0.073   4.955  11.218 -0.4425  0.5363 -0.5129
18097TIP3   OH275781   4.558   3.280   5.317  0.0235  0.4506 -0.3061
18097TIP3    H175782   4.579   3.187   5.329 -0.6258  0.1789 -1.2469
18097TIP3    H275783   4.619   3.326   5.375  0.0920 -0.5830  0.4548
18098TIP3   OH275784   6.245   3.717  11.481 -0.1939 -0.4061  0.1962
18098TIP3    H175785   6.299   3.702  11.403  0.4253  2.9415 -0.1015
18098TIP3    H275786   6.158   3.736  11.447 -1.0107 -3.2368  0.5727
18099TIP3   OH275787   5.686   5.806   6.055  0.1698 -0.0119 -0.1795
18099TIP3    H175788   5.708   5.869   6.123 -0.8653 -0.8000  0.9033
18099TIP3    H275789   5.771   5.770   6.027  0.7760  1.9314 -0.9179
18100TIP3   OH275790   3.508   5.633   1.289  0.9787 -0.2419 -0.4373
18100TIP3    H175791   3.543   5.597   1.208 -0.5619 -1.6865 -0.4678
18100TIP3    H275792   3.544   5.577   1.358  0.6820 -0.2382 -0.2796
18101TIP3   OH275793   4.241   4.066  11.874  0.2083 -0.0812 -0.3769
18101TIP3    H175794   4.165   4.122  11.859 -0.3515 -0.5681  0.5746
18101TIP3    H275795   4.315   4.126  11.877 -0.4987  0.7365  1.5928
18102TIP3   OH275796   5.136   3.511  14.122  0.1281 -0.3524  1.2787
18102TIP3    H175797   5.106   3.594  14.085 -1.6676 -0.7949  1.7060
18102TIP3    H275798   5.218   3.494  14.077 -0.6032  0.5351 -0.4569
18103TIP3   OH275799   6.442   1.923  11.382  0.1454 -0.3028  0.1466
18103TIP3    H175800   6.470   1.908  11.292  0.0116 -1.4331  0.2893
18103TIP3    H275801   6.406   2.012  11.381 -0.8341 -0.7032 -1.1552
18104TIP3   OH275802   6.627   6.505   1.653  0.0280 -0.8942 -0.1334
18104TIP3    H175803   6.583   6.586   1.629  0.4148 -0.4915  0.4839
18104TIP3    H275804   6.658   6.520   1.742  0.6561 -1.4848 -0.2455
18105TIP3   OH275805   2.181   0.101  12.982  0.5480 -0.0007  0.2043
18105TIP3    H175806   2.122   0.175  12.967 -2.2707 -1.6479  2.4162
18105TIP3    H275807   2.241   0.132  13.050  0.8382  1.0070 -0.5068
18106TIP3   OH275808   6.738   1.748  16.403  0.5708  0.4954  0.3675
18106TIP3    H175809   6.750   1.653  16.400  0.9654  0.5800 -1.3727
18106TIP3    H275810   6.659   1.761  16.455 -0.3382 -0.8737 -0.6408
18107TIP3   OH275811   1.793   4.106   4.630 -0.2952 -0.3199 -0.6825
18107TIP3    H175812   1.829   4.090   4.717  0.4774 -0.6404 -1.0570
18107TIP3    H275813   1.698   4.095   4.641 -0.2296 -0.0567  0.1793
18108TIP3   OH275814   3.062   6.432   2.200  0.0015  0.3237 -0.3948
18108TIP3    H175815   3.013   6.412   2.279  0.7272 -2.0924 -0.5119
18108TIP3    H275816   2.996   6.434   2.131 -0.2865 -0.1280 -0.1294
18109TIP3   OH275817   3.955   6.609   5.216 -0.5399 -0.0024  0.0852
18109TIP3    H175818   4.004   6.627   5.136  0.3306  0.9275  0.8098
18109TIP3    H275819   3.920   6.521   5.204  0.5130 -0.3042 -0.8465
18110TIP3   OH275820   2.083   5.956   0.291 -0.0339  0.8198  0.2912
18110TIP3    H175821   2.016   5.925   0.230  0.4498 -2.4138  1.3199
18110TIP3    H275822   2.159   5.900   0.275  1.0562  1.7732  1.9376
18111TIP3   OH275823   4.019   4.658   1.048 -0.2649  0.3118  0.4719
18111TIP3    H175824   3.955   4.596   1.084 -1.5441  1.1517 -0.3251
18111TIP3    H275825   4.048   4.618   0.966  0.1871 -0.0326  0.7960
18112TIP3   OH275826   6.002   5.767   5.035 -0.6218 -0.1166  0.1321
18112TIP3    H175827   6.044   5.832   5.091  1.4999 -2.4083  1.3076
18112TIP3    H275828   5.939   5.723   5.092 -0.2188 -0.8090  0.0506
18113TIP3   OH275829   2.659   5.774  13.149  0.3324  0.3056 -0.0758
18113TIP3    H175830   2.631   5.733  13.067 -0.9681  0.4963  0.2678
18113TIP3    H275831   2.630   5.865  13.142 -0.4812  0.1307  0.9171
18114TIP3   OH275832   4.280   0.067   6.131  0.4172 -0.7180 -0.6668
18114TIP3    H175833   4.356   0.057   6.189 -0.7134  0.4179  1.0437
18114TIP3    H275834   4.230  -0.013   6.143 -0.3212 -0.0604  0.6932
18115TIP3   OH275835   4.949   4.280  16.565 -0.3557 -0.1694  0.1577
18115TIP3    H175836   4.944   4.274  16.661  0.2960 -2.3700  0.0967
18115TIP3    H275837   5.042   4.264  16.546 -0.4055  0.7178 -0.8085
18116TIP3   OH275838   5.300   3.083  11.631 -0.5447 -0.4316  0.3750
18116TIP3    H175839   5.317   3.071  11.725  0.5175 -2.5045 -0.0538
18116TIP3    H275840   5.215   3.043  11.617 -0.8334  0.1359  0.5099
18117TIP3   OH275841   4.349   6.335   5.823  0.1212 -0.2676 -0.0576
18117TIP3    H175842   4.378   6.410   5.770 -0.2380  0.3748  0.6434
18117TIP3    H275843   4.254   6.334   5.813  0.0679 -0.2519  0.4373
18118TIP3   OH275844   5.962   0.132  12.011 -0.0226  0.3862  0.0773
18118TIP3    H175845   5.886   0.145  12.067 -0.9405  0.4702 -1.1769
18118TIP3    H275846   6.027   0.092  12.069 -1.1129  0.0384  1.0875
18119TIP3   OH275847   4.363   5.708  12.349  0.1546  0.4502  0.0326
18119TIP3    H175848   4.424   5.635  12.348  0.4331  0.7012 -1.9571
18119TIP3    H275849   4.286   5.674  12.396  0.9617 -0.5331  0.6635
18120TIP3   OH275850   4.955   6.619   2.424  0.1129 -0.2958  0.3105
18120TIP3    H175851   4.955   6.593   2.333 -1.9093 -0.3867  0.3077
18120TIP3    H275852   4.926   6.710   2.423 -0.0327 -0.3319  0.8705
18121TIP3   OH275853   3.805   5.786   3.928  0.0389  0.0991 -0.1804
18121TIP3    H175854   3.797   5.707   3.875 -0.3432  1.3322 -2.0115
18121TIP3    H275855   3.738   5.775   3.996  1.2639 -1.9909  0.7444
18122TIP3   OH275856   1.754   2.713   0.431 -0.2586 -0.3421 -0.0298
18122TIP3    H175857   1.698   2.635   0.430 -1.4363  0.4766  1.2447
18122TIP3    H275858   1.702   2.780   0.475  1.2823  0.7750  0.1326
18123TIP3   OH275859   5.373   1.308  13.853 -0.3523 -0.0787 -0.4478
18123TIP3    H175860   5.423   1.264  13.922 -0.3778 -0.4033 -0.6337
18123TIP3    H275861   5.375   1.246  13.779  0.2638  0.5615 -0.9720
18124TIP3   OH275862   6.714   6.744  17.073  0.1634  0.3154  0.1326
18124TIP3    H175863   6.796   6.712  17.034 -0.0893  0.0798 -0.2025
18124TIP3    H275864   6.646   6.692  17.031 -0.0277 -0.7283  1.6784
18125TIP3   OH275865   5.614   6.742   3.002  0.1465 -0.5296  0.3150
18125TIP3    H175866   5.633   6.771   3.091  2.1477  1.3175 -0.6400
18125TIP3    H275867   5.653   6.655   2.996  0.7507 -0.3140  1.0166
18126TIP3   OH275868   0.982   5.193   0.343 -0.6624  0.2655 -0.5815
18126TIP3    H175869   1.058   5.250   0.354 -0.2356 -0.4009 -0.0141
18126TIP3    H275870   0.920   5.222   0.410  0.0578 -0.7404  0.5357
18127TIP3   OH275871   0.536   4.319   1.782 -0.0079 -0.3158 -0.3048
18127TIP3    H175872   0.482   4.347   1.708  0.9176  0.8890 -0.5401
18127TIP3    H275873   0.506   4.372   1.856  0.0551 -0.4884 -0.1538
18128TIP3   OH275874   1.700   1.020  12.918  0.6104 -0.0981 -0.2321
18128TIP3    H175875   1.716   1.072  12.839 -0.8752  2.1217  0.8808
18128TIP3    H275876   1.636   0.954  12.890 -0.3386  1.0287 -0.7790
18129TIP3   OH275877   6.543   6.641  14.105  0.2398  0.3172 -0.0118
18129TIP3    H175878   6.631   6.609  14.082  2.0194  3.3731  2.1274
18129TIP3    H275879   6.523   6.706  14.038 -1.1293 -1.4476 -1.3762
18130TIP3   OH275880   6.571   4.212  16.422 -0.6551  0.3969  0.1413
18130TIP3    H175881   6.484   4.173  16.422 -1.9093  3.1155 -0.2601
18130TIP3    H275882   6.608   4.186  16.337 -0.3928 -2.1019  0.9575
18131TIP3   OH275883   2.985   0.789  15.570 -0.6301  0.5237 -0.0886
18131TIP3    H175884   3.032   0.762  15.648  2.6408 -1.6263 -2.6513
18131TIP3    H275885   3.036   0.863  15.536 -0.5986 -0.1278 -1.4890
18132TIP3   OH275886   5.484   2.475   0.057  0.4831  0.3754 -0.1193
18132TIP3    H175887   5.491   2.399   0.114  0.6683  2.1531  2.2724
18132TIP3    H275888   5.558   2.465  -0.004  1.8820 -0.1627  1.6241
18133TIP3   OH275889   4.625   5.386  13.700 -0.3345 -0.2696  0.0636
18133TIP3    H175890   4.581   5.433  13.771 -0.4002  0.8357 -0.6976
18133TIP3    H275891   4.645   5.453  13.635  1.4610 -0.9446 -0.1153
18134TIP3   OH275892   3.114   6.790   0.910 -0.4202  0.2334 -0.3185
18134TIP3    H175893   3.177   6.721   0.890 -0.7180  0.4035 -1.8948
18134TIP3    H275894   3.085   6.771   0.999  0.7629 -0.6896 -0.1252
18135TIP3   OH275895   5.371   4.125  11.182 -0.2388  0.1140  0.5537
18135TIP3    H175896   5.426   4.126  11.104 -1.9049 -0.1040 -0.6407
18135TIP3    H275897   5.375   4.034  11.213 -2.4255 -0.6603 -1.3509
18136TIP3   OH275898   1.148   0.812   3.417 -0.5943  0.0354  0.7108
18136TIP3    H175899   1.229   0.863   3.415  1.3443 -2.9081  0.8705
18136TIP3    H275900   1.130   0.798   3.510 -0.4044 -0.6417  0.6478
18137TIP3   OH275901   5.763   5.411   0.219  0.4915 -0.1288 -0.0414
18137TIP3    H175902   5.763   5.390   0.125 -0.2512 -0.4842  0.0311
18137TIP3    H275903   5.711   5.491   0.226  0.0548 -0.4283  0.1354
18138TIP3   OH275904   1.942   6.348   2.897 -0.6883 -0.6000  0.3827
18138TIP3    H175905   1.926   6.433   2.856  2.6175  0.8489  1.9346
18138TIP3    H275906   1.941   6.286   2.824  2.3523  1.5382 -1.6043
18139TIP3   OH275907   4.628   3.542   2.432 -0.3383  0.0773  0.1268
18139TIP3    H175908   4.578   3.612   2.473  0.2461  0.2374  0.5770
18139TIP3    H275909   4.563   3.489   2.386 -0.9208  0.2522  0.7481
18140TIP3   OH275910   3.525   1.929  14.226 -0.0549 -0.0344  0.0775
18140TIP3    H175911   3.473   1.997  14.184  0.8375 -0.2256 -1.3698
18140TIP3    H275912   3.612   1.968  14.234 -0.0419 -0.2572  1.1428
18141TIP3   OH275913   1.288   4.397  14.684  0.2534 -0.2530 -0.7958
18141TIP3    H175914   1.315   4.392  14.775  1.4851  0.8705 -1.0773
18141TIP3    H275915   1.343   4.334  14.639 -0.2031 -0.6509 -0.7998
18142TIP3   OH275916   6.200   3.299   4.333  0.7212  0.2439  0.2182
18142TIP3    H175917   6.270   3.354   4.297  1.0269  0.1336  0.6488
18142TIP3    H275918   6.246   3.222   4.367  0.4631  0.4944  1.1421
18143TIP3   OH275919   2.528   0.256   1.432 -0.0627  0.0099 -0.7709
18143TIP3    H175920   2.553   0.225   1.519 -1.0672  2.4462  0.4444
18143TIP3    H275921   2.608   0.250   1.380  0.4791 -1.7466  0.2160
18144TIP3   OH275922   1.237   1.447  16.057 -0.5166  0.3934 -0.0519
18144TIP3    H175923   1.173   1.516  16.046 -1.7563 -0.6334  0.5500
18144TIP3    H275924   1.186   1.371  16.085  1.0484 -0.2365  1.1808
18145TIP3   OH275925   4.083   1.221  13.532  0.0115  0.6105  0.0719
18145TIP3    H175926   4.121   1.133  13.536  4.5145  2.3098 -1.8806
18145TIP3    H275927   4.055   1.231  13.441 -1.4456  0.8496  0.5356
18146TIP3   OH275928   0.917   5.039   3.758 -0.2921  0.0439  0.5621
18146TIP3    H175929   0.875   5.070   3.839 -0.9925 -0.6740  0.4816
18146TIP3    H275930   1.011   5.048   3.775 -0.4528  1.7999  0.6986
18147TIP3   OH275931   4.784   5.739  14.287  0.1514 -0.4064  0.1652
18147TIP3    H175932   4.766   5.692  14.206 -0.5466 -0.1882  0.1899
18147TIP3    H275933   4.698   5.759  14.323  0.3461  2.8263 -0.9613
18148TIP3   OH275934   6.140   4.607  15.856 -0.3004  0.3150 -0.2372
18148TIP3    H175935   6.144   4.566  15.770 -3.2004  0.8756 -0.7174
18148TIP3    H275936   6.141   4.534  15.918  0.5693 -0.1520 -0.7977
18149TIP3   OH275937   4.711   4.353   2.162  0.4843  0.2962 -0.1923
18149TIP3    H175938   4.729   4.291   2.232 -1.6103  1.9142  1.8871
18149TIP3    H275939   4.698   4.299   2.084 -1.3435 -1.8641  1.5534
18150TIP3   OH275940   4.474   0.278  14.056  0.1479  0.0339  0.1385
18150TIP3    H175941   4.412   0.350  14.057 -0.2451 -0.3009 -0.3240
18150TIP3    H275942   4.554   0.315  14.094 -0.3133  0.4740  0.6917
18151TIP3   OH275943   0.583   3.312  10.926  0.2692 -0.3079  0.3373
18151TIP3    H175944   0.607   3.305  10.834 -1.3948 -0.6771 -0.0684
18151TIP3    H275945   0.623   3.236  10.968  0.3999 -0.5321 -0.2001
18152TIP3   OH275946   4.559   2.387  16.690  0.3270 -0.7558  0.2991
18152TIP3    H175947   4.530   2.440  16.616  0.8316  2.0524  2.0419
18152TIP3    H275948   4.480   2.344  16.722  0.1302 -2.1016 -1.9053
18153TIP3   OH275949   3.840   3.739  12.176 -0.1896  0.3360 -0.0081
18153TIP3    H175950   3.924   3.706  12.206  0.2868  1.2044 -0.3831
18153TIP3    H275951   3.785   3.739  12.255 -0.0285 -0.8141  0.1078
18154TIP3   OH275952   3.262   0.485  12.599 -0.0765 -0.1151  0.1776
18154TIP3    H175953   3.281   0.562  12.545 -0.0376 -1.0873 -1.2109
18154TIP3    H275954   3.172   0.498  12.628  0.8486  1.8406  2.2970
18155TIP3   OH275955   3.415   2.373  12.199  0.0449  0.0780 -0.4487
18155TIP3    H175956   3.347   2.429  12.162 -1.1384 -1.5337 -0.7747
18155TIP3    H275957   3.390   2.362  12.291  0.4439  0.3424 -0.3087
18156TIP3   OH275958   1.187   6.294  14.887  1.1183 -0.1204  0.6017
18156TIP3    H175959   1.254   6.334  14.943  1.9628 -1.6403  0.7173
18156TIP3    H275960   1.221   6.306  14.798  1.9662 -1.5979  0.7078
18157TIP3   OH275961   2.697   1.187  16.228 -0.0712  0.2847 -0.5494
18157TIP3    H175962   2.610   1.208  16.261  0.1914  0.1407  0.2425
18157TIP3    H275963   2.736   1.130  16.295 -0.1029 -1.2845 -1.8154
18158TIP3   OH275964   6.117   0.228  13.645  0.1647 -0.0269 -0.7268
18158TIP3    H175965   6.077   0.314  13.657 -0.1471 -0.1819 -0.6508
18158TIP3    H275966   6.099   0.204  13.554  0.2653 -0.0040 -0.7522
18159TIP3   OH275967   0.832   1.901  15.270 -0.1353  0.2464  0.2510
18159TIP3    H175968   0.772   1.920  15.198  0.8803 -0.1101 -0.7205
18159TIP3    H275969   0.825   1.806  15.283  0.7409  0.0875 -0.3658
18160TIP3   OH275970   5.053   5.366  15.938  0.3700  0.2474 -0.1018
18160TIP3    H175971   5.107   5.445  15.944  2.2958 -0.9559 -0.8880
18160TIP3    H275972   5.105   5.305  15.885 -1.9210 -0.8674 -1.1497
18161TIP3   OH275973   3.222   5.600  17.001 -0.1230  0.5613 -0.2402
18161TIP3    H175974   3.164   5.671  17.028 -0.7171 -0.2156  0.5784
18161TIP3    H275975   3.306   5.620  17.043 -0.0186  1.2704 -0.7806
18162TIP3   OH275976   2.871   2.596  11.493 -0.0836 -0.3164  0.6384
18162TIP3    H175977   2.895   2.527  11.431  0.1094  0.8318 -0.5780
18162TIP3    H275978   2.937   2.664  11.480 -1.1903  0.7773  0.7235
18163TIP3   OH275979   4.965   2.236   5.678  0.1075 -0.2712  0.4515
18163TIP3    H175980   5.000   2.156   5.638  0.7175  0.6170 -0.8355
18163TIP3    H275981   4.966   2.219   5.772  0.1092 -1.8260  0.1809
18164TIP3   OH275982   0.047   5.115  15.196  0.1016 -0.3271  0.4692
18164TIP3    H175983   0.014   5.205  15.202 -1.1838 -0.6101 -1.6685
18164TIP3    H275984   0.120   5.121  15.135 -0.3059 -0.7971 -0.0726
18165TIP3   OH275985   5.483   5.693  16.351  0.0243 -0.0116 -0.3655
18165TIP3    H175986   5.399   5.672  16.310  0.0810  0.8141 -0.9219
18165TIP3    H275987   5.526   5.609  16.362 -2.3413 -0.9033  3.1858
18166TIP3   OH275988   4.850   5.636   1.346 -0.5125 -0.1027 -0.4718
18166TIP3    H175989   4.758   5.651   1.366 -0.7286 -1.5243 -0.3722
18166TIP3    H275990   4.897   5.671   1.421 -0.9338  0.9380 -0.6724
18167TIP3   OH275991   2.666   1.620   0.202  0.0004 -0.4512 -0.2176
18167TIP3    H175992   2.675   1.698   0.257  0.8773 -0.7691  0.0988
18167TIP3    H275993   2.573   1.616   0.181 -0.8568 -1.8149  3.5034
18168TIP3   OH275994   1.136   5.911   1.933 -0.2511 -0.2592  0.0662
18168TIP3    H175995   1.060   5.969   1.928  1.0422  1.5605  0.9885
18168TIP3    H275996   1.188   5.933   1.856  1.3643  1.4697  1.6045
18169TIP3   OH275997   6.776   6.649   1.876 -0.0004 -0.1919  0.1564
18169TIP3    H175998   6.682   6.666   1.867 -0.1924 -1.7706 -1.1007
18169TIP3    H275999   6.782   6.588   1.949 -0.0291 -0.6604 -0.2294
18170TIP3   OH276000   3.054   2.229   6.651 -0.0129 -0.2579  0.5557
18170TIP3    H176001   3.080   2.143   6.619  0.0326  0.1719 -0.5699
18170TIP3    H276002   2.966   2.242   6.617  1.3634  1.7034 -2.4845
18171TIP3   OH276003   0.210   2.043  11.798 -0.4633 -0.2934 -0.0297
18171TIP3    H176004   0.195   2.050  11.703  1.1093 -0.4393 -0.2960
18171TIP3    H276005   0.160   1.965  11.824  0.3486 -1.1662 -1.0311
18172TIP3   OH276006   6.424   4.795  17.068  0.0746  0.0466  0.0026
18172TIP3    H176007   6.388   4.743  16.996  0.8599 -1.5385  0.7289
18172TIP3    H276008   6.409   4.741  17.146 -0.9411  1.8134  1.0846
18173TIP3   OH276009   4.864   1.153   3.146  0.4317  0.2408  0.1014
18173TIP3    H176010   4.786   1.138   3.200 -0.0455 -1.0835 -0.9440
18173TIP3    H276011   4.843   1.231   3.096  1.0981  1.8204  2.2193
18174TIP3   OH276012   2.844   5.198  12.991  0.1140  0.0601  0.5452
18174TIP3    H176013   2.772   5.211  13.052 -0.0044 -2.0325  0.8900
18174TIP3    H276014   2.923   5.208  13.043  0.0312 -0.0903  0.6997
18175TIP3   OH276015   4.550   5.591   2.395  0.2553 -0.1260  0.3976
18175TIP3    H176016   4.500   5.570   2.316  0.0020  1.2915  0.1737
18175TIP3    H276017   4.510   5.537   2.463 -1.0789  0.4012  0.0511
18176TIP3   OH276018   3.574   2.972  14.585  0.0861  0.1708 -0.8680
18176TIP3    H176019   3.662   2.942  14.561  0.2028  0.5704 -0.9558
18176TIP3    H276020   3.585   3.013  14.671 -0.1904 -0.5958 -0.4682
18177TIP3   OH276021   6.517   1.898   4.878  1.2111  0.2739  0.4176
18177TIP3    H176022   6.594   1.880   4.825 -0.1571  0.3375 -1.6374
18177TIP3    H276023   6.453   1.832   4.851  0.0207  1.1616  0.9949
18178TIP3   OH276024   0.692   1.453  11.623  0.0221  0.6669 -0.3570
18178TIP3    H176025   0.670   1.383  11.685  0.8610  1.7125  1.1547
18178TIP3    H276026   0.628   1.521  11.640  1.9099  2.0816  1.2928
18179TIP3   OH276027   6.637   0.913   3.568  0.8025  0.0489  0.5262
18179TIP3    H176028   6.731   0.909   3.553  0.8429 -3.0741  1.1733
18179TIP3    H276029   6.627   0.899   3.663 -0.3413 -1.0544  0.2658
18180TIP3   OH276030   4.762   3.790  15.377  0.3567  0.1413 -0.5772
18180TIP3    H176031   4.696   3.725  15.354 -0.3672  0.3499  0.8617
18180TIP3    H276032   4.811   3.804  15.296 -0.1762 -1.3765 -1.1811
18181TIP3   OH276033   4.080   2.605   1.002 -0.2129  0.1915 -0.7070
18181TIP3    H176034   4.112   2.522   1.038 -0.5549  0.4963  0.3228
18181TIP3    H276035   4.151   2.668   1.020 -1.4006  0.9015  1.7132
18182TIP3   OH276036   4.553   0.340   1.965 -0.0448  0.0677 -0.0483
18182TIP3    H176037   4.545   0.426   2.005  0.3123  0.3069 -0.4885
18182TIP3    H276038   4.470   0.327   1.918 -1.0501 -0.8199  1.9306
18183TIP3   OH276039   0.115   2.255  15.463 -0.0999 -0.1216 -0.1409
18183TIP3    H176040   0.035   2.252  15.411 -1.1572 -1.7824  1.5403
18183TIP3    H276041   0.162   2.175  15.439 -1.5187 -1.9014  2.8592
18184TIP3   OH276042   4.606   1.853   0.491  0.3011 -0.3794  0.7972
18184TIP3    H176043   4.701   1.857   0.502  0.4801 -1.0067 -0.3782
18184TIP3    H276044   4.584   1.934   0.444  0.1052  0.2674  1.9835
18185TIP3   OH276045   6.247   4.336   4.566 -0.6477  0.3190  0.2432
18185TIP3    H176046   6.177   4.271   4.560 -0.1106 -0.1750 -0.8885
18185TIP3    H276047   6.328   4.285   4.571 -0.3087  0.8840  0.6077
18186TIP3   OH276048   1.016   4.648   2.928 -0.6268 -0.0900 -0.0184
18186TIP3    H176049   1.071   4.726   2.922 -0.8671  0.0902  0.1208
18186TIP3    H276050   1.048   4.591   2.858 -0.6160  0.2390 -0.2865
18187TIP3   OH276051   6.162   3.224   2.502  0.2144 -0.4159  0.2589
18187TIP3    H176052   6.215   3.186   2.572 -0.7885  0.9426  1.8136
18187TIP3    H276053   6.103   3.154   2.475  0.3965 -0.8648  1.0211
18188TIP3   OH276054   2.685   0.697   6.677 -0.3463  0.3897  0.3432
18188TIP3    H176055   2.717   0.694   6.767 -2.4537 -2.0021  1.0348
18188TIP3    H276056   2.757   0.661   6.625  0.1947  0.1373  1.2585
18189TIP3   OH276057   1.518   4.396   3.932  0.3973  0.1013 -0.1566
18189TIP3    H176058   1.592   4.349   3.970  0.2090 -0.1045 -0.0415
18189TIP3    H276059   1.544   4.488   3.934  0.2160  0.1361  0.8484
18190TIP3   OH276060   0.408   3.948  16.808 -0.0656  0.5096 -0.2371
18190TIP3    H176061   0.376   3.987  16.889  0.8027  2.8024 -0.9841
18190TIP3    H276062   0.341   3.882  16.786 -0.8634  0.6255  1.7331
18191TIP3   OH276063   1.373   5.104  10.815  0.1260  0.8720  0.1509
18191TIP3    H176064   1.453   5.063  10.781 -0.4188  1.7603 -2.2774
18191TIP3    H276065   1.363   5.184  10.764 -2.4646  0.6431  0.2151
18192TIP3   OH276066   5.990   4.428  15.004 -0.3453 -0.3747  0.4402
18192TIP3    H176067   6.036   4.345  15.020 -1.8381 -1.5740 -1.3714
18192TIP3    H276068   6.047   4.494  15.043  2.2687 -1.9641 -0.5370
18193TIP3   OH276069   3.941   0.120   3.223 -0.4574 -0.5452  0.9295
18193TIP3    H176070   3.876   0.176   3.263  1.3041  1.5457  0.9695
18193TIP3    H276071   3.962   0.055   3.290 -2.2612 -1.0727  1.0047
18194TIP3   OH276072   6.177   2.401  11.420 -0.0177 -0.2524 -0.0434
18194TIP3    H176073   6.152   2.485  11.458  0.6698 -1.3648  3.0510
18194TIP3    H276074   6.224   2.423  11.340 -0.8710  2.2372  0.0966
18195TIP3   OH276075   5.805   4.314   4.171  0.9444  0.2356 -0.1136
18195TIP3    H176076   5.764   4.280   4.251 -0.2030  0.4384 -0.6058
18195TIP3    H276077   5.880   4.365   4.203  2.3867 -2.2731  0.6553
18196TIP3   OH276078   4.237   2.555   2.220  0.5023  0.1557  0.5821
18196TIP3    H176079   4.301   2.604   2.271  0.4919  1.1426 -0.3549
18196TIP3    H276080   4.155   2.562   2.270  0.3099  1.7512  0.0819
18197TIP3   OH276081   4.608   1.533   0.681 -0.5267 -0.4380 -0.5477
18197TIP3    H176082   4.633   1.481   0.759  0.3430 -1.3202 -1.3964
18197TIP3    H276083   4.673   1.603   0.678  0.1659 -1.1009 -1.1560
18198TIP3   OH276084   0.276   5.811   3.263  0.7082 -0.0321 -0.3228
18198TIP3    H176085   0.316   5.879   3.317  0.1983 -0.7274  0.9658
18198TIP3    H276086   0.204   5.856   3.218  0.3270  0.2656  0.5794
18199TIP3   OH276087   6.314   4.013  11.517  0.1510  0.1066  0.1697
18199TIP3    H176088   6.254   3.941  11.498 -0.7245  0.6264  0.8862
18199TIP3    H276089   6.363   4.026  11.436 -1.2210  0.1520 -0.6813
18200TIP3   OH276090   2.632   2.667   6.131  0.1318  0.0575  0.2676
18200TIP3    H176091   2.658   2.579   6.102 -0.2119  0.6291 -1.8379
18200TIP3    H276092   2.575   2.652   6.207  0.4494 -1.5057  0.2134
18201TIP3   OH276093   4.566   1.123  11.470 -1.1572 -0.2049 -0.3191
18201TIP3    H176094   4.575   1.091  11.560 -0.8444  0.9820  0.0789
18201TIP3    H276095   4.526   1.210  11.479  0.3296  0.5873 -1.2163
18202TIP3   OH276096   3.420   0.684   3.284 -0.7781 -0.2528 -0.4461
18202TIP3    H176097   3.488   0.750   3.299  0.1992 -0.9126 -1.8180
18202TIP3    H276098   3.437   0.653   3.195 -1.5409 -1.9868 -0.0015
18203TIP3   OH276099   6.587   3.769  11.566 -0.4363 -0.1028 -0.6152
18203TIP3    H176100   6.676   3.737  11.583  0.0424  0.6361 -1.6976
18203TIP3    H276101   6.541   3.695  11.528 -0.3596 -0.5642  0.1786
18204TIP3   OH276102   1.610   0.092   4.089  0.4867 -0.2898  0.0375
18204TIP3    H176103   1.627   0.028   4.020  2.5738  0.8547 -0.5550
18204TIP3    H276104   1.648   0.053   4.168  1.5539  0.1060 -0.2754
18205TIP3   OH276105   6.740   1.194  15.014  0.0131  0.0680  0.1680
18205TIP3    H176106   6.725   1.113  14.966 -0.8300 -0.0001  0.5422
18205TIP3    H276107   6.736   1.263  14.948  3.0415 -0.3761 -0.5392
18206TIP3   OH276108   5.539   4.778   1.084  0.5454  0.6408  0.4822
18206TIP3    H176109   5.556   4.684   1.079 -0.3779  0.5345 -0.8005
18206TIP3    H276110   5.469   4.793   1.020  1.4310  2.3806 -0.0982
18207TIP3   OH276111   0.984   4.881  12.595  0.1790 -0.3722 -0.5767
18207TIP3    H176112   0.992   4.833  12.678  0.1753  0.3118 -0.1745
18207TIP3    H276113   0.891   4.900  12.587  0.5155  1.9342  0.6342
18208TIP3   OH276114   1.907   0.697  14.730 -0.2484  0.0241  0.1570
18208TIP3    H176115   1.850   0.696  14.654  0.0893  0.5042 -0.1132
18208TIP3    H276116   1.992   0.667  14.697  0.5276  2.4454 -0.2135
18209TIP3   OH276117   4.307   6.425  11.861 -0.5139  0.7559 -0.1790
18209TIP3    H176118   4.246   6.370  11.812 -1.3672  0.9820  0.5974
18209TIP3    H276119   4.274   6.514  11.847 -0.6443  0.8357  0.6246
18210TIP3   OH276120   0.384   6.330  14.121 -0.0395 -0.9878  0.3528
18210TIP3    H176121   0.476   6.350  14.102  0.1623 -2.9158 -0.7918
18210TIP3    H276122   0.387   6.257  14.183 -0.8058 -0.8657  0.5428
18211TIP3   OH276123   1.615   2.479   0.346 -0.6762 -0.5848  0.2531
18211TIP3    H176124   1.638   2.402   0.397 -2.9697 -0.4852  1.5063
18211TIP3    H276125   1.543   2.451   0.290  0.0118  0.0368 -0.9636
18212TIP3   OH276126   6.179   5.590  12.081 -0.3333  0.2550 -0.2109
18212TIP3    H176127   6.216   5.555  12.162 -1.1073 -0.3507 -0.1146
18212TIP3    H276128   6.253   5.634  12.038  0.3349 -0.3494  0.3045
18213TIP3   OH276129   3.649   5.305   0.903 -0.0773  0.5686  1.0721
18213TIP3    H176130   3.682   5.229   0.951 -0.4955  0.5654  1.3540
18213TIP3    H276131   3.709   5.313   0.829 -0.8814 -0.9373  0.2261
18214TIP3   OH276132   4.608   2.558   0.184 -0.1658 -0.5471  0.8696
18214TIP3    H176133   4.655   2.590   0.107 -1.6620  3.2979  1.4944
18214TIP3    H276134   4.527   2.520   0.149  1.3732 -3.3335  0.1801
18215TIP3   OH276135   1.666   2.892   5.705  0.2402 -0.0232  0.2749
18215TIP3    H176136   1.624   2.819   5.659 -0.1790 -0.7407  1.7777
18215TIP3    H276137   1.758   2.865   5.713  0.4915  0.4572 -0.8176
18216TIP3   OH276138   5.994   4.089  16.419 -0.4671  0.7562  0.2557
18216TIP3    H176139   6.089   4.073  16.413 -0.5566 -1.0163  2.5530
18216TIP3    H276140   5.956   4.031  16.353 -0.0683 -0.1904  0.8456
18217TIP3   OH276141   2.320   1.470  11.394 -0.0069 -0.0672  0.1074
18217TIP3    H176142   2.392   1.530  11.376 -0.4453  0.4305 -0.0147
18217TIP3    H276143   2.333   1.442  11.484 -0.0999  0.6348  0.3436
18218TIP3   OH276144   6.084   6.379   2.674  0.3253  0.1287  0.4042
18218TIP3    H176145   5.990   6.381   2.688  0.2477  1.6262 -0.2226
18218TIP3    H276146   6.101   6.450   2.612  2.2558  2.0396  2.9974
18219TIP3   OH276147   6.051   4.005   0.209  0.1968 -0.6274  0.6962
18219TIP3    H176148   5.975   4.052   0.176 -0.3585 -0.9542  1.5101
18219TIP3    H276149   6.079   3.951   0.136  1.2173  1.4045 -0.4712
18220TIP3   OH276150   2.653   4.102   1.966  0.4443 -0.1579 -0.4883
18220TIP3    H176151   2.747   4.087   1.970  0.8373  1.6233 -2.3703
18220TIP3    H276152   2.623   4.044   1.896  0.2103 -0.3380 -0.2407
18221TIP3   OH276153   6.052   5.120  12.723  0.0538  0.0446  0.3435
18221TIP3    H176154   5.979   5.061  12.739  0.1286  0.3560  1.9436
18221TIP3    H276155   6.130   5.067  12.742  0.1658  0.2704  0.5204
18222TIP3   OH276156   3.176   2.326   2.117 -0.4334 -0.2822  0.3285
18222TIP3    H176157   3.129   2.255   2.073 -1.4204  0.5047  0.1182
18222TIP3    H276158   3.179   2.299   2.209 -1.3048 -0.3294  0.3461
18223TIP3   OH276159   6.522   3.368  12.298  0.2450 -0.3335 -0.1757
18223TIP3    H176160   6.559   3.318  12.371  1.8053  1.7858  0.5332
18223TIP3    H276161   6.597   3.394  12.246 -0.7872 -1.0499 -2.0721
18224TIP3   OH276162   1.177   3.570   4.584  0.0119  0.3923  0.1342
18224TIP3    H176163   1.227   3.489   4.573  1.6278  1.5221 -0.9623
18224TIP3    H276164   1.086   3.541   4.585  0.4942 -1.3182 -1.5791
18225TIP3   OH276165   5.076   6.432   1.846 -0.2242 -0.0094  0.1971
18225TIP3    H176166   5.028   6.457   1.767  1.6190  0.9105 -0.6671
18225TIP3    H276167   5.107   6.514   1.883  1.2214 -0.6124  0.3730
18226TIP3   OH276168   3.979   5.508   4.643 -0.5916 -0.6446  0.2126
18226TIP3    H176169   3.980   5.545   4.732 -0.6726 -1.5907  0.6089
18226TIP3    H276170   4.065   5.528   4.608 -1.1582  1.2864 -0.1450
18227TIP3   OH276171   1.377   6.498  11.793 -0.2995 -0.3201 -0.3104
18227TIP3    H176172   1.439   6.514  11.722 -0.5386  2.1065  0.0037
18227TIP3    H276173   1.430   6.506  11.873 -0.3834 -1.4161 -0.1285
18228TIP3   OH276174   0.388   5.352   0.477 -0.0217  0.4441  0.6132
18228TIP3    H176175   0.339   5.432   0.456  0.5887  0.9048  0.9129
18228TIP3    H276176   0.476   5.368   0.441 -0.1474 -0.4638 -0.1168
18229TIP3   OH276177   2.361   6.346   5.369 -0.3148  0.4593 -0.2208
18229TIP3    H176178   2.288   6.349   5.431  0.6942 -2.9468  1.2375
18229TIP3    H276179   2.431   6.395   5.413  0.1528 -1.3155  1.0872
18230TIP3   OH276180   1.784   4.389  16.641 -0.0868 -0.0054 -0.2037
18230TIP3    H176181   1.800   4.478  16.673  1.3635  0.0409 -1.0062
18230TIP3    H276182   1.850   4.335  16.685  1.3147 -0.0936 -2.3200
18231TIP3   OH276183   0.705   4.595  11.963 -0.1142  0.0804  0.2017
18231TIP3    H176184   0.748   4.673  11.928  0.2522 -0.8909 -1.5619
18231TIP3    H276185   0.771   4.555  12.020 -0.0868  0.7219  0.6242
18232TIP3   OH276186   0.641   3.153   2.485  0.0419 -0.1103 -0.4050
18232TIP3    H176187   0.686   3.236   2.471  1.0076 -0.3834  0.9970
18232TIP3    H276188   0.707   3.086   2.471 -0.2824 -0.5674  0.1908
18233TIP3   OH276189   5.718   3.196  10.571  0.9150  0.0677  0.3421
18233TIP3    H176190   5.733   3.261  10.503 -2.0750 -0.8678 -1.3183
18233TIP3    H276191   5.759   3.116  10.538 -0.3449 -0.3296 -0.2875
18234TIP3   OH276192   1.508   0.360  13.378  0.0722  0.2589  0.0904
18234TIP3    H176193   1.530   0.280  13.331 -1.8625  0.1373 -0.6299
18234TIP3    H276194   1.514   0.429  13.312  2.0820  0.7864  0.7882
18235TIP3   OH276195   4.969   6.651  12.588  0.3515  0.0377  0.3970
18235TIP3    H176196   4.879   6.634  12.616  0.9712 -0.0704  2.3837
18235TIP3    H276197   4.973   6.746  12.577 -0.2299 -0.0384 -0.5352
18236TIP3   OH276198   2.439   1.214  15.105  0.0908  0.2472 -0.1249
18236TIP3    H176199   2.406   1.286  15.053 -1.9796  0.8277  1.9321
18236TIP3    H276200   2.513   1.251  15.154  2.1343 -0.3398 -2.6757
18237TIP3   OH276201   4.085   3.239   5.125 -0.1278  0.0604  0.0053
18237TIP3    H176202   4.129   3.315   5.088  1.6595 -1.0027 -0.1165
18237TIP3    H276203   4.037   3.201   5.050 -1.1412  1.1245  0.1029
18238TIP3   OH276204   4.863   1.077  13.495  0.1480 -0.0156  0.9068
18238TIP3    H176205   4.812   1.157  13.509 -1.2539 -0.4878 -1.2227
18238TIP3    H276206   4.939   1.106  13.445 -1.4359 -0.2707 -1.7589
18239TIP3   OH276207   0.440   2.206   3.244  0.1434 -0.4389 -0.3437
18239TIP3    H176208   0.379   2.197   3.318  1.6477  2.5163  1.3930
18239TIP3    H276209   0.525   2.178   3.279  0.6854  0.0597 -1.2290
18240TIP3   OH276210   2.203   1.502  11.804 -0.4300  0.1302  0.2568
18240TIP3    H176211   2.154   1.535  11.879 -1.6083  0.8412 -0.8116
18240TIP3    H276212   2.245   1.579  11.766  0.4207 -0.2727  0.3638
18241TIP3   OH276213   5.213   2.550   4.691 -0.6532  0.0525 -0.0046
18241TIP3    H176214   5.222   2.639   4.659 -0.7471  1.1078  2.8162
18241TIP3    H276215   5.263   2.548   4.773 -1.7794 -2.0838  0.6709
18242TIP3   OH276216   3.164   4.005  11.963  0.1817  0.3422 -0.1505
18242TIP3    H176217   3.104   4.023  12.035 -1.2566 -1.3606 -0.8871
18242TIP3    H276218   3.188   3.913  11.973  4.8074  1.6024  1.6604
18243TIP3   OH276219   0.473   3.210  14.835  0.2201 -0.7413 -0.0874
18243TIP3    H176220   0.430   3.148  14.776  1.0952 -0.2395 -1.2863
18243TIP3    H276221   0.455   3.177  14.922 -1.4295 -1.3017 -0.6148
18244TIP3   OH276222   0.177   1.272  15.023 -0.2648  0.1029  0.2894
18244TIP3    H176223   0.249   1.211  15.044 -0.1152 -0.1051 -0.7553
18244TIP3    H276224   0.098   1.225  15.048 -0.0959 -0.1468  0.3581
18245TIP3   OH276225   2.943   2.252   2.528  0.0652  0.0410 -0.0769
18245TIP3    H176226   2.893   2.186   2.576  2.5316  0.3413  3.1074
18245TIP3    H276227   2.914   2.335   2.565  1.8260  0.2885  0.8282
18246TIP3   OH276228   1.147   1.013   0.244  0.1652 -0.0630 -0.4750
18246TIP3    H176229   1.181   1.002   0.332 -0.4169  0.2102 -0.2138
18246TIP3    H276230   1.225   1.026   0.189  0.4960  0.3155  0.0767
18247TIP3   OH276231   4.676   2.085   1.999  0.9571 -0.0000  0.7384
18247TIP3    H176232   4.691   2.178   1.984  0.2863  0.4922  2.9028
18247TIP3    H276233   4.680   2.075   2.094  0.2293 -2.0513  0.5883
18248TIP3   OH276234   0.122   6.272   2.403 -0.1658 -0.0383  0.6608
18248TIP3    H176235   0.163   6.267   2.317  0.2754 -0.3750  0.8875
18248TIP3    H276236   0.032   6.298   2.385  0.0532  0.3604  0.1335
18249TIP3   OH276237   1.117   3.440  10.233 -0.4982  0.5630  0.1587
18249TIP3    H176238   1.158   3.500  10.295 -0.1553 -0.0564  0.5365
18249TIP3    H276239   1.094   3.363  10.285 -1.3724  0.5591 -0.2248
18250TIP3   OH276240   4.339   2.041  12.567  0.0085  0.4430  0.2553
18250TIP3    H176241   4.429   2.060  12.541  0.4542 -1.8921 -0.0200
18250TIP3    H276242   4.347   1.982  12.642 -1.2934 -0.4779 -0.3031
18251TIP3   OH276243   5.880   1.688   0.285 -0.0796  0.6373  1.0222
18251TIP3    H176244   5.843   1.611   0.241 -0.3512  1.2053  0.2393
18251TIP3    H276245   5.945   1.652   0.345  1.1853 -0.1145 -0.7397
18252TIP3   OH276246   3.135   1.160  17.122 -0.2648  0.2181 -0.6195
18252TIP3    H176247   3.081   1.102  17.068 -1.7900  0.2735  0.8361
18252TIP3    H276248   3.158   1.108  17.199  3.9410 -0.7079 -2.3212
18253TIP3   OH276249   4.672   1.517  12.706  0.2073 -0.1910 -0.4015
18253TIP3    H176250   4.579   1.539  12.704  0.3718  0.6823  0.9426
18253TIP3    H276251   4.699   1.533  12.796  1.9982  0.9821 -1.0941
18254TIP3   OH276252   6.028   0.763   1.036 -0.0282  0.1622  0.3701
18254TIP3    H176253   6.004   0.677   1.069 -1.5388  0.0236 -1.0444
18254TIP3    H276254   5.961   0.822   1.071 -0.9235  0.2068 -1.3593
18255TIP3   OH276255   0.231   1.803   6.523 -0.0071 -0.8507 -0.0992
18255TIP3    H176256   0.224   1.891   6.559  1.2503 -0.0721 -1.6938
18255TIP3    H276257   0.188   1.747   6.587  0.6832  0.7108  1.7640
18256TIP3   OH276258   1.962   1.251   6.498 -0.0321  0.0298 -0.2444
18256TIP3    H176259   2.024   1.324   6.504  0.0800 -0.1844  1.5502
18256TIP3    H276260   1.882   1.284   6.538 -1.0635  0.2617 -2.4595
18257TIP3   OH276261   0.772   4.582   0.335 -0.0699 -0.0433 -0.1687
18257TIP3    H176262   0.712   4.558   0.263  0.5394 -1.9079 -0.0934
18257TIP3    H276263   0.813   4.499   0.359 -1.7067  0.1803  3.6570
18258TIP3   OH276264   3.160   4.494  11.855  0.6450  0.0336  1.5413
18258TIP3    H176265   3.166   4.504  11.950 -0.8686  1.5398  1.5162
18258TIP3    H276266   3.079   4.539  11.832  0.7871 -0.6737 -0.4232
18259TIP3   OH276267   4.873   4.985  14.527  0.5707 -0.4410 -0.6469
18259TIP3    H176268   4.934   5.049  14.564  0.8876 -0.3618 -1.3066
18259TIP3    H276269   4.809   4.970  14.597  2.1446 -1.5960  0.5593
18260TIP3   OH276270   3.959   2.820   4.358 -0.0890 -0.2074 -0.3663
18260TIP3    H176271   3.980   2.799   4.267 -3.0145 -1.4517 -0.7916
18260TIP3    H276272   3.950   2.736   4.401 -0.8235  0.3425  0.5734
18261TIP3   OH276273   3.546   5.733  11.115 -0.1901  0.9501  0.2285
18261TIP3    H176274   3.512   5.809  11.161  1.3837  2.0419 -0.3859
18261TIP3    H276275   3.638   5.727  11.141  0.1398  0.2660 -1.0140
18262TIP3   OH276276   1.856   6.041   2.210  0.4332  0.0708  0.2144
18262TIP3    H176277   1.924   5.978   2.236  1.4204  1.2031  0.4072
18262TIP3    H276278   1.855   6.105   2.281 -0.5248  0.3123 -0.0189
18263TIP3   OH276279   3.198   5.936   0.777  0.0641 -0.2764 -0.0492
18263TIP3    H176280   3.232   5.900   0.859 -0.7785  2.6752  1.6522
18263TIP3    H276281   3.104   5.924   0.782  0.1315 -1.6129 -1.3968
18264TIP3   OH276282   3.308   2.354  17.283  0.2116  0.2455 -0.6290
18264TIP3    H176283   3.221   2.324  17.257 -0.3437  0.7096  0.6671
18264TIP3    H276284   3.293   2.442  17.317  1.2859  0.5597 -0.9594
18265TIP3   OH276285   2.072   0.185  14.918  0.0506  0.2281  0.0272
18265TIP3    H176286   2.034   0.273  14.904  0.2370  0.2483 -0.3625
18265TIP3    H276287   2.044   0.135  14.841  2.0253  0.6527 -0.9884
18266TIP3   OH276288   6.404   3.284  13.374 -0.2491 -0.2942  0.0073
18266TIP3    H176289   6.456   3.248  13.446 -1.2522 -0.6670  0.5660
18266TIP3    H276290   6.328   3.226  13.369 -0.5843  0.2133 -0.8267
18267TIP3   OH276291   0.051   3.979  16.459 -0.1351 -0.4058  0.1560
18267TIP3    H176292   0.051   4.063  16.505 -0.3219  0.2595 -1.0164
18267TIP3    H276293  -0.004   3.994  16.382  0.5677 -1.3278 -0.5439
18268TIP3   OH276294   3.797   4.229   3.474  0.1481  0.2881 -0.3229
18268TIP3    H176295   3.752   4.313   3.464  0.0741  0.4045  0.9222
18268TIP3    H276296   3.888   4.253   3.494 -0.4335  0.1316  2.7574
18269TIP3   OH276297   1.613   4.510  16.147 -0.2002  0.1132 -0.0217
18269TIP3    H176298   1.570   4.430  16.116 -2.0622  0.6285  1.1228
18269TIP3    H276299   1.621   4.498  16.241  0.9785  0.6148 -0.0533
18270TIP3   OH276300   0.834   2.575  12.108  0.6033  0.7712  0.4326
18270TIP3    H176301   0.745   2.557  12.077  0.2424  0.9764  1.3571
18270TIP3    H276302   0.826   2.584  12.202  1.9985 -1.5909  0.8156
18271TIP3   OH276303   1.270   4.253  14.070 -0.7630 -0.3522  0.2398
18271TIP3    H176304   1.366   4.248  14.070 -0.8155 -1.8788 -1.7760
18271TIP3    H276305   1.242   4.168  14.105 -1.3902  0.7453  2.4829
18272TIP3   OH276306   1.735   1.036  15.100 -0.3907  0.3186  0.0824
18272TIP3    H176307   1.776   1.122  15.103 -0.1323  0.1650  1.0718
18272TIP3    H276308   1.641   1.054  15.097 -0.4116  0.6169  2.0830
18273TIP3   OH276309   3.518   3.117  14.948  0.1807 -0.2422  0.3508
18273TIP3    H176310   3.439   3.095  14.997 -0.0786  1.2348  0.6358
18273TIP3    H276311   3.487   3.177  14.880  1.1488  0.9697  0.9482
18274TIP3   OH276312   6.349   6.297   3.654 -0.4398 -0.0720 -0.3315
18274TIP3    H176313   6.317   6.314   3.565 -0.1715  2.4563  0.0168
18274TIP3    H276314   6.441   6.274   3.643  0.1879  2.4098 -0.5761
18275TIP3   OH276315   4.069   1.243  17.069 -0.2618 -0.8260  0.0454
18275TIP3    H176316   4.087   1.258  16.977  1.0002 -1.8065  0.1208
18275TIP3    H276317   4.141   1.287  17.115 -1.0333 -0.1020  0.5844
18276TIP3   OH276318   5.789   4.312   3.820  0.3564  0.3676  0.0018
18276TIP3    H176319   5.790   4.256   3.743  0.4790  0.3280  0.0325
18276TIP3    H276320   5.879   4.343   3.829  0.5654 -0.4374  0.7214
18277TIP3   OH276321   4.692   3.021   0.185  0.0524  0.4652 -0.7477
18277TIP3    H176322   4.641   3.010   0.265 -2.6231  0.0603 -2.4533
18277TIP3    H276323   4.764   2.958   0.194 -1.4563 -1.1437  0.3502
18278TIP3   OH276324   4.348   2.230  14.467  0.4288  0.1240 -0.1434
18278TIP3    H176325   4.338   2.233  14.562  2.5843 -0.5601  0.1417
18278TIP3    H276326   4.398   2.310  14.446  0.7430 -0.1802 -0.5762
18279TIP3   OH276327   6.335   5.175   3.248 -0.1832  0.4619  0.2526
18279TIP3    H176328   6.336   5.271   3.239  0.8343  0.5192  0.8252
18279TIP3    H276329   6.285   5.144   3.172  0.3686  1.4022 -0.5113
18280TIP3   OH276330   1.862   4.688   2.746 -0.1765  0.4138  0.3486
18280TIP3    H176331   1.938   4.630   2.741 -2.0240 -1.9520 -1.6568
18280TIP3    H276332   1.874   4.750   2.675 -0.8827 -0.9938 -1.0379
18281TIP3   OH276333   5.986   6.358   2.061 -0.5301  0.2980 -0.2070
18281TIP3    H176334   6.002   6.296   2.132  2.7481  0.7183 -0.5158
18281TIP3    H276335   5.958   6.438   2.105 -0.4413 -0.0304  0.4582
18282TIP3   OH276336   0.908   5.482   3.281 -0.8294 -0.0621  0.4934
18282TIP3    H176337   0.962   5.558   3.260 -1.0352 -0.0429  0.0339
18282TIP3    H276338   0.930   5.461   3.372 -1.6538  1.2907  1.0288
18283TIP3   OH276339   6.719   2.179  15.868 -0.3812 -0.0188 -0.1452
18283TIP3    H176340   6.663   2.103  15.850 -0.2521 -0.2281  0.3183
18283TIP3    H276341   6.658   2.253  15.872 -0.4942 -0.0788 -0.7093
18284TIP3   OH276342   5.530   3.998   2.539  0.1915 -0.7942  0.2421
18284TIP3    H176343   5.522   4.075   2.594  3.4018 -1.6302  1.9871
18284TIP3    H276344   5.547   4.033   2.451  0.3610  0.4966  0.7774
18285TIP3   OH276345   3.974   1.361   1.874 -0.2410 -0.2033 -0.1769
18285TIP3    H176346   3.882   1.357   1.848  0.3249  2.2068 -2.7016
18285TIP3    H276347   4.002   1.269   1.874 -2.5483 -0.9526  0.4334
18286TIP3   OH276348   2.111   0.777  16.574 -0.4292  0.8108  0.3483
18286TIP3    H176349   2.094   0.821  16.491  1.0270  0.6415 -0.0536
18286TIP3    H276350   2.025   0.767  16.614 -1.0305  1.8261 -0.6683
18287TIP3   OH276351   0.612   2.092  12.836 -0.3811 -0.0823 -0.4400
18287TIP3    H176352   0.652   2.017  12.879 -0.0894  1.5836  2.3609
18287TIP3    H276353   0.683   2.133  12.788  0.1471  0.0852  0.4820
18288TIP3   OH276354   4.335   1.489   1.214 -0.3052 -0.7574 -0.2457
18288TIP3    H176355   4.323   1.543   1.136 -1.9909 -0.5972  0.0923
18288TIP3    H276356   4.297   1.404   1.189 -0.1734 -0.9289  0.1422
18289TIP3   OH276357   4.902   1.177   0.414  0.3410  0.4431  0.3320
18289TIP3    H176358   4.954   1.098   0.400  1.2857  0.8791  1.3669
18289TIP3    H276359   4.813   1.152   0.389  0.8290 -0.6427 -0.3286
18290TIP3   OH276360   1.556   0.842   0.019 -0.1247 -0.6137 -0.3140
18290TIP3    H176361   1.547   0.840   0.114 -0.2207 -0.6678 -0.3245
18290TIP3    H276362   1.492   0.908  -0.009  2.5256  2.1672 -0.0536
18291TIP3   OH276363   4.817   3.949  11.972 -0.3248  0.0709  0.0015
18291TIP3    H176364   4.812   4.002  11.893 -1.3635  1.3292  0.8891
18291TIP3    H276365   4.771   4.000  12.039  0.8290 -0.8011  1.5122
18292TIP3   OH276366   0.695   3.551   0.185  0.7626  0.1341  0.3851
18292TIP3    H176367   0.732   3.596   0.261  0.9712  0.1521  0.2745
18292TIP3    H276368   0.694   3.617   0.116  0.4772  0.1460  0.4004
18293TIP3   OH276369   4.013   1.754   3.415  0.2230  0.8563  0.1482
18293TIP3    H176370   4.093   1.727   3.370  0.4847  0.3861  0.9020
18293TIP3    H276371   3.944   1.742   3.350  0.6069  0.1904 -0.1341
18294TIP3   OH276372   1.626   2.004  16.768 -0.4443  0.4174  0.1637
18294TIP3    H176373   1.549   1.977  16.818 -0.1132 -0.2097  0.3337
18294TIP3    H276374   1.674   2.062  16.827 -0.4590  0.3098  0.2781
18295TIP3   OH276375   1.785   2.667  11.737  0.8641  0.0708 -0.4919
18295TIP3    H176376   1.797   2.755  11.702 -0.2997  0.5879  0.3838
18295TIP3    H276377   1.807   2.609  11.665  1.4716  1.0829 -1.1247
18296TIP3   OH276378   5.369   0.283  14.231  0.1294  0.0292 -0.1263
18296TIP3    H176379   5.288   0.297  14.182  0.9283  1.0768 -1.1623
18296TIP3    H276380   5.340   0.276  14.322 -1.0693  1.0923 -0.4091
18297TIP3   OH276381   6.731   1.339   2.256  0.2642  0.2304  0.8243
18297TIP3    H176382   6.740   1.427   2.218  1.3871  0.6076  1.9312
18297TIP3    H276383   6.789   1.340   2.332 -1.9954 -0.4736  2.5948
18298TIP3   OH276384   2.429   4.180   5.185  0.1919 -0.1167  0.0025
18298TIP3    H176385   2.446   4.182   5.090  0.5661 -0.2353  0.0665
18298TIP3    H276386   2.366   4.251   5.199  0.1944 -0.0453 -0.3242
18299TIP3   OH276387   2.212   2.714   3.221  0.3797 -0.3959  0.4516
18299TIP3    H176388   2.134   2.679   3.263  1.1275 -3.9633 -0.8877
18299TIP3    H276389   2.285   2.680   3.273  1.1496 -0.9301 -0.9191
18300TIP3   OH276390   1.875   5.015   5.017 -0.8461  0.8589  0.1056
18300TIP3    H176391   1.818   4.963   4.960  2.5242 -1.3666 -1.4240
18300TIP3    H276392   1.882   4.963   5.097 -1.2185  1.2918  0.4191
18301TIP3   OH276393   5.062   5.395   5.465  0.6495 -0.2517  0.1744
18301TIP3    H176394   5.072   5.463   5.531  1.1049 -0.1495  0.0053
18301TIP3    H276395   5.146   5.348   5.466 -0.5876 -2.4956  2.1290
18302TIP3   OH276396   2.489   3.689   4.528  0.3498 -0.0312  0.4566
18302TIP3    H176397   2.459   3.778   4.513  2.4580  0.6401  0.0324
18302TIP3    H276398   2.437   3.657   4.602 -0.6791  1.4094  0.3552
18303TIP3   OH276399   0.865   3.171  12.146 -0.0152  0.6392 -0.8376
18303TIP3    H176400   0.796   3.104  12.150  0.1059  0.6157  1.4962
18303TIP3    H276401   0.942   3.124  12.114 -0.3157 -0.0196 -0.6016
18304TIP3   OH276402   3.466   3.914  11.403  0.2642 -0.4448  0.4448
18304TIP3    H176403   3.427   3.976  11.465 -1.8453 -0.8152 -0.4588
18304TIP3    H276404   3.392   3.884  11.350  1.6484 -1.9427 -0.6817
18305TIP3   OH276405   6.649   4.087   1.848  0.4658  0.0010 -0.1135
18305TIP3    H176406   6.594   4.144   1.901 -0.2392  0.0223 -0.8631
18305TIP3    H276407   6.611   4.000   1.859  1.5544 -0.3439  1.0517
18306TIP3   OH276408   4.299   3.719  10.964  0.0412 -0.1834 -0.0541
18306TIP3    H176409   4.378   3.725  10.910  1.2587  1.3765  1.8277
18306TIP3    H276410   4.322   3.658  11.034 -0.2419  0.6139  0.7497
18307TIP3   OH276411   2.493   4.466  11.408  0.4256 -0.0961 -0.0026
18307TIP3    H176412   2.442   4.425  11.337  1.1056 -0.6872 -0.1604
18307TIP3    H276413   2.561   4.515  11.362 -1.9858  3.5071  0.0731
18308TIP3   OH276414   3.123   6.310  14.596 -0.7519 -0.1916 -0.0695
18308TIP3    H176415   3.085   6.290  14.681  0.7224 -1.3794  0.3130
18308TIP3    H276416   3.047   6.313  14.536 -1.6583 -0.4712  1.0549
18309TIP3   OH276417   3.347   6.501  12.771 -0.2657 -0.2964  0.7570
18309TIP3    H176418   3.382   6.521  12.857 -0.7893 -0.1020  0.9257
18309TIP3    H276419   3.407   6.435  12.735 -0.4522 -0.9103  1.5560
18310TIP3   OH276420   0.438   4.900   3.600 -0.7891 -0.5940  0.3257
18310TIP3    H176421   0.432   4.935   3.511  1.3921  1.9021  1.0864
18310TIP3    H276422   0.514   4.841   3.597 -0.5573 -0.3115  0.5785
18311TIP3   OH276423   2.038   4.937  12.301 -0.0701 -0.4610  0.3615
18311TIP3    H176424   2.131   4.948  12.282 -0.3608  1.1819 -0.1729
18311TIP3    H276425   2.036   4.885  12.381  1.3095 -0.6835  0.2548
18312TIP3   OH276426   0.512   6.552  13.103  0.9871  0.6232 -0.3435
18312TIP3    H176427   0.517   6.459  13.125  0.0418  0.4722 -0.7484
18312TIP3    H276428   0.568   6.595  13.167 -0.0186 -0.0294  0.9927
18313TIP3   OH276429   6.476   5.408  12.892  0.3757  0.2786  0.5605
18313TIP3    H176430   6.505   5.417  12.801  0.7009 -0.1533  0.6219
18313TIP3    H276431   6.380   5.408  12.887  0.3982 -0.2985  0.1649
18314TIP3   OH276432   3.727   0.190   0.090 -0.0702 -0.2558 -0.4693
18314TIP3    H176433   3.775   0.261   0.134  1.5439 -1.4075 -0.3252
18314TIP3    H276434   3.635   0.214   0.099  0.3797  1.0462  0.9264
18315TIP3   OH276435   1.463   2.872  11.636  0.2043 -0.1539  0.3156
18315TIP3    H176436   1.467   2.784  11.674 -2.4554  0.3799  2.0019
18315TIP3    H276437   1.369   2.892  11.632  0.6658  1.8570 -1.8755
18316TIP3   OH276438   2.212   0.030   2.781 -0.2822 -0.2045  0.5935
18316TIP3    H176439   2.255   0.114   2.798 -0.1606 -0.6032  2.3067
18316TIP3    H276440   2.151   0.019   2.854  0.1375 -1.8863  0.7140
18317TIP3   OH276441   2.787   5.403   2.663 -0.1124 -0.2580 -0.0400
18317TIP3    H176442   2.832   5.362   2.588 -0.5476  2.0867 -1.6650
18317TIP3    H276443   2.790   5.497   2.643 -0.3432  0.3970  2.8700
18318TIP3   OH276444   2.271   6.700   2.130 -0.0141 -0.0179 -0.5883
18318TIP3    H176445   2.282   6.678   2.222 -1.4173 -2.6211 -1.0030
18318TIP3    H276446   2.295   6.793   2.125 -0.2111  0.2518  2.4177
18319TIP3   OH276447   6.661   6.581  13.426 -0.0939  0.3331 -0.2968
18319TIP3    H176448   6.578   6.616  13.395 -0.4357  1.2356  1.6072
18319TIP3    H276449   6.641   6.539  13.509  1.1958 -0.1882 -0.2306
18320TIP3   OH276450   1.765   0.051  15.938 -0.5738  0.3115  0.4448
18320TIP3    H176451   1.756  -0.029  15.990  1.2453 -0.9240 -1.0819
18320TIP3    H276452   1.761   0.022  15.847 -0.6422  2.0637 -0.1370
18321TIP3   OH276453   3.690   2.446   3.077 -0.3093 -0.3911  0.7205
18321TIP3    H176454   3.603   2.443   3.118 -0.2618 -1.2102  0.7605
18321TIP3    H276455   3.674   2.419   2.986 -0.5573  2.2352 -0.0658
18322TIP3   OH276456   1.300   6.666  14.747  0.4765 -0.0844 -0.0791
18322TIP3    H176457   1.293   6.714  14.830 -2.2597 -0.8801  0.1951
18322TIP3    H276458   1.361   6.594  14.766  1.4606  0.9226  0.6445
18323TIP3   OH276459   5.134   1.393  12.842 -0.0942  0.4439 -0.2555
18323TIP3    H176460   5.195   1.323  12.819  0.3451  1.3056 -1.7949
18323TIP3    H276461   5.060   1.381  12.784 -0.2999  0.8702 -0.0854
18324TIP3   OH276462   6.549   4.687  14.540  0.4806  0.3510 -0.0623
18324TIP3    H176463   6.618   4.704  14.475 -0.6518 -0.2819 -1.4538
18324TIP3    H276464   6.572   4.603  14.579  1.8771  1.3507  1.3036
18325TIP3   OH276465   5.813   1.283  12.892  0.3717 -0.1453  0.2762
18325TIP3    H176466   5.752   1.257  12.961 -0.0040  0.9971  0.3885
18325TIP3    H276467   5.824   1.378  12.905 -0.6218  0.2872 -1.9783
18326TIP3   OH276468   6.265   1.224   2.375 -0.2142  0.5031 -0.7393
18326TIP3    H176469   6.304   1.286   2.312  1.3028  0.9682  0.6281
18326TIP3    H276470   6.205   1.278   2.427 -0.7756  0.3063 -1.1803
18327TIP3   OH276471   2.272   5.565  15.152 -0.2808 -0.3188 -0.1212
18327TIP3    H176472   2.341   5.531  15.095  0.3816  2.0213 -0.7992
18327TIP3    H276473   2.312   5.568  15.239 -1.0409 -3.1674  0.3764
18328TIP3   OH276474   1.386   4.384  14.949  0.0633 -0.1515 -0.1463
18328TIP3    H176475   1.394   4.456  15.012  0.5957  0.3911 -0.8220
18328TIP3    H276476   1.475   4.351  14.939 -0.1027 -0.5836 -0.2229
18329TIP3   OH276477   1.949   3.131   0.786 -0.6773 -0.2088  0.2968
18329TIP3    H176478   1.910   3.045   0.805  1.5000 -1.8381 -2.2485
18329TIP3    H276479   1.895   3.166   0.715  1.1681 -1.5503 -1.8122
18330TIP3   OH276480   1.186   5.237  14.678  0.0839 -0.1265 -0.3587
18330TIP3    H176481   1.159   5.226  14.769  3.0671 -1.3545  0.4188
18330TIP3    H276482   1.134   5.172  14.630 -1.2212  0.2651  0.4939
18331TIP3   OH276483   4.487   0.156  16.119  0.9240  0.0544 -0.2062
18331TIP3    H176484   4.476   0.178  16.027  0.6683 -0.7589 -0.3668
18331TIP3    H276485   4.581   0.167  16.135  0.8773  0.7734 -0.4100
18332TIP3   OH276486   4.171   6.339   1.579 -0.1095  0.0592  0.6042
18332TIP3    H176487   4.105   6.303   1.519  1.5280  1.0021 -1.8179
18332TIP3    H276488   4.133   6.421   1.610 -1.2027 -0.7024  1.3257
18333TIP3   OH276489   0.130   3.656   0.052 -0.1278 -0.0385 -0.7501
18333TIP3    H176490   0.208   3.655   0.107 -1.0183  1.2851  0.5918
18333TIP3    H276491   0.106   3.748   0.045 -2.8625 -0.5734  0.7914
18334TIP3   OH276492   5.521   1.666   6.397  0.1969 -0.3355 -0.2214
18334TIP3    H176493   5.514   1.645   6.490 -2.2877 -1.3122 -0.5734
18334TIP3    H276494   5.611   1.644   6.374  0.4646 -1.3342  1.6695
18335TIP3   OH276495   3.591   2.513   4.818  0.2634 -0.1362  0.2628
18335TIP3    H176496   3.537   2.508   4.897 -0.2809 -1.5052 -0.1828
18335TIP3    H276497   3.546   2.458   4.755  1.0263  0.4682 -0.8150
18336TIP3   OH276498   0.640   1.398  15.549 -0.6178 -0.0558 -0.5551
18336TIP3    H176499   0.609   1.402  15.640  1.0264  1.5888 -0.0333
18336TIP3    H276500   0.659   1.306  15.535  1.1249 -0.0422  1.5022
18337TIP3   OH276501   6.407   5.922  11.150 -0.6004 -0.1380  0.4732
18337TIP3    H176502   6.437   5.911  11.239 -1.7849 -0.6557  0.8260
18337TIP3    H276503   6.482   5.958  11.102  0.9122 -2.5183  1.0381
18338TIP3   OH276504   2.200   1.993   3.818 -0.4711 -0.3643  0.7097
18338TIP3    H176505   2.289   2.002   3.853  0.4339 -0.9009 -1.3669
18338TIP3    H276506   2.201   2.043   3.736 -1.5305 -1.8686 -0.2590
18339TIP3   OH276507   3.802   0.289  13.739 -0.3703  0.5504 -0.7359
18339TIP3    H176508   3.752   0.309  13.818 -1.2809  0.7186 -1.3429
18339TIP3    H276509   3.748   0.324  13.667  1.0569  1.5715 -1.3390
18340TIP3   OH276510   3.690   4.676  12.521  0.2565  0.3530 -0.1577
18340TIP3    H176511   3.734   4.614  12.463 -0.6820 -1.0854  0.6527
18340TIP3    H276512   3.757   4.741  12.542  1.3084 -0.5111 -0.8209
18341TIP3   OH276513   1.445   2.042  15.137 -0.0349  0.1052 -0.2528
18341TIP3    H176514   1.424   2.118  15.083 -0.0685  0.2310 -0.0625
18341TIP3    H276515   1.527   2.010  15.102  0.3565  0.6696  0.1397
18342TIP3   OH276516   1.871   5.571  14.121  0.0049  0.3678 -0.0738
18342TIP3    H176517   1.822   5.640  14.075  0.1784  0.3116 -0.3458
18342TIP3    H276518   1.803   5.511  14.153 -0.0710 -0.2614 -1.3418
18343TIP3   OH276519   5.510   1.448  17.071  0.1342  0.0981  0.5509
18343TIP3    H176520   5.443   1.460  17.138  0.8566  1.3947  1.0556
18343TIP3    H276521   5.592   1.441  17.120  0.7395  1.6447 -0.2115
18344TIP3   OH276522   3.457   0.765   4.955  0.1166 -0.0044  0.3656
18344TIP3    H176523   3.380   0.821   4.963 -0.1379 -0.6663  2.7825
18344TIP3    H276524   3.531   0.826   4.946 -0.4808  0.6468 -0.1833
18345TIP3   OH276525   1.001   3.522   5.094 -0.0004 -0.1083 -0.6298
18345TIP3    H176526   1.054   3.446   5.068  0.8488 -0.1859  1.2069
18345TIP3    H276527   0.913   3.487   5.105 -0.0444 -0.3931 -1.8141
18346TIP3   OH276528   3.930   1.548  16.138  0.6031 -0.7320  0.5065
18346TIP3    H176529   3.925   1.597  16.220 -0.2125  0.8706 -0.4578
18346TIP3    H276530   3.851   1.495  16.136 -1.1647  1.8479 -0.8078
18347TIP3   OH276531   4.743   3.417   5.459 -0.1031 -0.5705 -0.5728
18347TIP3    H176532   4.813   3.454   5.406  0.3024  0.9183  0.9369
18347TIP3    H276533   4.775   3.424   5.549 -2.3182  0.5326  0.1842
18348TIP3   OH276534   4.874   2.984  15.012  0.4602  0.0699 -0.1618
18348TIP3    H176535   4.811   3.047  14.977  0.4305  0.9540  1.4464
18348TIP3    H276536   4.838   2.958  15.097  0.5521 -2.0108 -0.7364
18349TIP3   OH276537   1.548   3.840   4.924  0.0885  0.0364  0.5051
18349TIP3    H176538   1.625   3.854   4.979 -0.4362  0.7193  1.0805
18349TIP3    H276539   1.523   3.749   4.939  1.8045 -0.7078 -1.0079
18350TIP3   OH276540   3.710   6.755  17.253  0.3770 -0.1701 -0.1729
18350TIP3    H176541   3.782   6.703  17.288 -1.1561 -1.3506  1.3045
18350TIP3    H276542   3.711   6.835  17.306  0.6058 -0.1958 -0.1394
18351TIP3   OH276543   5.000   6.389  16.528  0.0263  0.2770  0.8360
18351TIP3    H176544   4.996   6.341  16.446  0.9400  0.6677  0.5541
18351TIP3    H276545   5.051   6.467  16.507 -1.7016  1.5453  1.1966
18352TIP3   OH276546   5.186   4.050   3.310 -0.5130 -0.0901 -0.5661
18352TIP3    H176547   5.267   3.999   3.314 -0.9967 -0.8561 -0.3644
18352TIP3    H276548   5.158   4.044   3.219 -2.0400 -2.5449  0.0206
18353TIP3   OH276549   5.345   5.037   5.286  0.2010 -1.2133 -0.2815
18353TIP3    H176550   5.313   5.001   5.369  1.2483  0.7073  0.9819
18353TIP3    H276551   5.417   4.979   5.261  0.7149 -1.0555  0.8091
18354TIP3   OH276552   0.746   2.378  12.445 -0.1337  0.7077  0.0187
18354TIP3    H176553   0.754   2.315  12.373 -3.3249 -0.2783  0.4363
18354TIP3    H276554   0.775   2.461  12.407  1.2351 -0.3876 -1.4405
18355TIP3   OH276555   2.318   4.909  15.663 -0.3113  0.3690 -0.1836
18355TIP3    H176556   2.278   4.865  15.587 -0.9120 -0.9010  0.8575
18355TIP3    H276557   2.267   4.878  15.738  1.0525  0.6760  0.8794
18356TIP3   OH276558   6.208   1.865  12.864 -0.1589 -0.3981 -0.6987
18356TIP3    H176559   6.198   1.773  12.888 -1.2277 -0.2862 -0.7201
18356TIP3    H276560   6.301   1.873  12.842 -0.0165 -1.4276 -0.5207
18357TIP3   OH276561   1.501   6.083   3.374  1.2561 -0.0806  0.2339
18357TIP3    H176562   1.528   5.994   3.352  1.8138 -0.1413  1.1047
18357TIP3    H276563   1.534   6.096   3.463 -0.0820  0.4919  0.6566
18358TIP3   OH276564   1.472   2.913  12.376  0.2482 -0.2355  0.2137
18358TIP3    H176565   1.422   2.908  12.458  0.6702 -2.0714  0.3839
18358TIP3    H276566   1.500   3.004  12.371 -1.0830  0.2568  1.3319
18359TIP3   OH276567   5.415   3.862   0.004  0.9274  0.5080 -0.1674
18359TIP3    H176568   5.409   3.779  -0.042 -0.9957  1.0306 -0.9174
18359TIP3    H276569   5.470   3.917  -0.052  1.3313  0.0751 -0.1919
18360TIP3   OH276570   5.072   6.295   4.745  0.3138 -0.0968  1.0308
18360TIP3    H176571   5.005   6.350   4.786  0.5062  0.3750  0.7175
18360TIP3    H276572   5.149   6.304   4.801  0.7974  1.1022  0.2042
18361TIP3   OH276573   3.349   4.302   4.138 -0.2893  0.9351  0.3134
18361TIP3    H176574   3.404   4.223   4.140 -0.9029  0.4966  0.1463
18361TIP3    H276575   3.391   4.362   4.199  1.0640  1.0649 -0.7086
18362TIP3   OH276576   5.120   0.841  14.221  0.3339 -0.3491 -0.0246
18362TIP3    H176577   5.026   0.853  14.232  0.2671 -0.5124 -0.3983
18362TIP3    H276578   5.159   0.914  14.268  0.0410 -0.7138  0.7830
18363TIP3   OH276579   1.113   0.265  12.649 -0.1378  0.3732 -0.5149
18363TIP3    H176580   1.138   0.234  12.736  1.6679  0.7260 -0.8730
18363TIP3    H276581   1.019   0.280  12.654 -0.5062 -2.2228  0.5469
18364TIP3   OH276582   4.802   1.639  15.085  0.1828 -0.2883  0.2608
18364TIP3    H176583   4.824   1.546  15.083 -0.8122 -0.5196 -2.5909
18364TIP3    H276584   4.709   1.642  15.109  0.2005 -0.0252  0.3023
18365TIP3   OH276585   5.110   6.744  11.879  0.1587 -0.3936  0.4147
18365TIP3    H176586   5.084   6.657  11.849 -0.3388 -1.0362  2.5880
18365TIP3    H276587   5.201   6.733  11.909 -0.4067 -0.5439  2.1081
18366TIP3   OH276588   0.655   4.445   4.595  0.0663  0.0392  0.2023
18366TIP3    H176589   0.644   4.519   4.535 -0.5547  0.8170  1.2741
18366TIP3    H276590   0.735   4.465   4.644  0.5162 -0.5508 -0.2692
18367TIP3   OH276591   6.327   4.277   1.673 -0.7215 -0.3865 -0.8562
18367TIP3    H176592   6.292   4.318   1.753  0.0729 -0.0818 -0.6557
18367TIP3    H276593   6.337   4.185   1.696 -0.3724 -0.2754 -0.5585
18368TIP3   OH276594   4.719   5.389  15.930 -0.1096 -1.4305 -0.1190
18368TIP3    H176595   4.805   5.351  15.911  1.4477  1.3419  1.1676
18368TIP3    H276596   4.703   5.449  15.858  0.1208 -0.1870  0.8561
18369TIP3   OH276597   1.541   2.424  16.184 -0.0523 -0.6431  0.0393
18369TIP3    H176598   1.445   2.434  16.184  0.0686  0.5817 -0.4433
18369TIP3    H276599   1.573   2.499  16.235  0.6263 -1.3828  0.7145
18370TIP3   OH276600   0.118   4.880  15.338 -0.0697  0.4028 -0.2357
18370TIP3    H176601   0.039   4.867  15.391  0.4320  0.0908  0.4413
18370TIP3    H276602   0.113   4.971  15.311  0.0862  0.8050  1.0450
18371TIP3   OH276603   4.043   0.059  13.459  0.3714 -0.2684  0.2255
18371TIP3    H176604   4.012  -0.002  13.392  0.1800  1.0897 -0.9414
18371TIP3    H276605   4.035   0.009  13.541 -0.1075 -1.6863 -0.6501
18372TIP3   OH276606   3.007   0.519  12.654  0.2393 -0.0073  0.2714
18372TIP3    H176607   3.025   0.495  12.745  1.4770 -0.0721  0.0179
18372TIP3    H276608   2.930   0.467  12.631  2.0148 -2.7423  0.1908
18373TIP3   OH276609   2.071   5.906   1.992  0.3924 -0.2329 -0.2541
18373TIP3    H176610   2.095   5.844   1.923  0.8932 -0.2790 -0.0399
18373TIP3    H276611   2.018   5.972   1.947  0.7722 -0.2254 -0.6977
18374TIP3   OH276612   6.786   3.703  13.639  0.7589 -0.4329  0.0151
18374TIP3    H176613   6.765   3.672  13.551 -0.7273 -0.0218  0.2047
18374TIP3    H276614   6.807   3.795  13.628  1.6405 -0.6398 -0.0531
18375TIP3   OH276615   0.462   4.502  11.173 -0.2993  0.6602 -0.4010
18375TIP3    H176616   0.527   4.553  11.123 -0.1626 -0.5001 -1.4219
18375TIP3    H276617   0.475   4.530  11.263  2.1667 -0.1056 -0.4775
18376TIP3   OH276618   5.763   1.283   4.017  0.5251 -0.4773 -0.0166
18376TIP3    H176619   5.830   1.259   3.952  0.6872  1.8350 -0.7639
18376TIP3    H276620   5.715   1.355   3.975 -0.3554  0.0131  1.8099
18377TIP3   OH276621   5.642   5.896   2.626  0.1507 -0.7858  0.0626
18377TIP3    H176622   5.639   5.883   2.721  1.4077  0.6090  0.3116
18377TIP3    H276623   5.714   5.841   2.596  0.1211 -0.7881 -0.0038
18378TIP3   OH276624   1.326   5.555  16.003  0.2654 -0.1886  0.2525
18378TIP3    H176625   1.311   5.577  15.911  0.1228  2.2327  0.8220
18378TIP3    H276626   1.368   5.469  16.000 -2.7196 -1.6720 -1.8980
18379TIP3   OH276627   0.917   3.513  15.462  0.2596 -0.3193 -0.5786
18379TIP3    H176628   0.988   3.449  15.454 -1.2444 -2.3892  1.8781
18379TIP3    H276629   0.928   3.550  15.550 -0.3958  0.9194 -1.0151
18380TIP3   OH276630   1.883   4.610   4.339 -0.3120 -0.2810 -0.0957
18380TIP3    H176631   1.955   4.548   4.355 -0.5035 -0.4950 -0.0611
18380TIP3    H276632   1.921   4.696   4.356  0.1225 -0.3432 -0.7415
18381TIP3   OH276633   6.570   2.089   6.153  0.0100 -0.0584  0.0301
18381TIP3    H176634   6.586   2.027   6.225 -0.3922 -0.0080  0.1666
18381TIP3    H276635   6.651   2.140   6.146  0.5463 -0.9674 -0.4500
18382TIP3   OH276636   5.445   4.927   1.300  0.0586 -0.1618  0.0030
18382TIP3    H176637   5.362   4.892   1.333  0.6332 -1.2700  0.3056
18382TIP3    H276638   5.481   4.857   1.245  1.2216 -0.0388  0.5864
18383TIP3   OH276639   0.740   4.688   2.831 -0.3310 -0.3819  0.6416
18383TIP3    H176640   0.703   4.606   2.797  0.7633 -0.1813 -1.1282
18383TIP3    H276641   0.812   4.660   2.887 -0.9534 -0.6733  1.2991
18384TIP3   OH276642   5.065   0.435  12.210 -0.1038 -0.4192 -0.1577
18384TIP3    H176643   5.063   0.523  12.248  2.2466 -0.8937  1.1494
18384TIP3    H276644   5.152   0.427  12.172  0.0909 -2.5322  0.6479
18385TIP3   OH276645   4.515   2.131  14.249 -0.0409  0.3130  0.6914
18385TIP3    H176646   4.478   2.057  14.201  0.5400  0.9367 -0.7268
18385TIP3    H276647   4.447   2.156  14.311 -1.0524 -0.0604 -0.2735
18386TIP3   OH276648   3.486   4.216   1.336  0.0547  0.0066  0.0452
18386TIP3    H176649   3.407   4.163   1.346  0.0405  0.2095  1.1040
18386TIP3    H276650   3.557   4.158   1.364  0.0226  0.5916  1.3664
18387TIP3   OH276651   0.336   0.594   3.310 -0.4217  0.0403 -0.0703
18387TIP3    H176652   0.321   0.500   3.316 -1.0569  0.1814  0.5838
18387TIP3    H276653   0.312   0.628   3.396  1.3263  0.5979  0.2187
18388TIP3   OH276654   1.656   5.007   1.914 -0.4393 -0.0536 -0.7024
18388TIP3    H176655   1.722   5.041   1.853 -1.2239 -0.1156 -1.6034
18388TIP3    H276656   1.573   5.022   1.869 -0.7834 -3.7688 -1.4778
18389TIP3   OH276657   2.270   6.400   4.605 -0.1028  0.8841 -0.0978
18389TIP3    H176658   2.185   6.420   4.564 -0.8072  1.4579  1.6260
18389TIP3    H276659   2.314   6.484   4.611  0.9900  0.4567 -1.8298
18390TIP3   OH276660   4.498   1.087  12.576  0.3017  0.3735  0.1012
18390TIP3    H176661   4.509   1.063  12.484  2.6421 -0.7561  0.6147
18390TIP3    H276662   4.460   1.174  12.574  0.2473  0.3240 -1.9411
18391TIP3   OH276663   5.736   6.650   4.322  0.0560 -0.3258  0.2775
18391TIP3    H176664   5.693   6.607   4.396 -0.4447 -1.0790 -0.4422
18391TIP3    H276665   5.666   6.663   4.258  0.6516 -0.4398 -0.4018
18392TIP3   OH276666   4.560   1.351   0.452  0.4995 -0.1861 -0.1972
18392TIP3    H176667   4.644   1.374   0.412  0.6465 -0.0743  0.1767
18392TIP3    H276668   4.543   1.421   0.515 -0.2481  0.2048 -0.8195
18393TIP3   OH276669   6.212   3.987  14.347 -0.2836 -1.0859  0.2096
18393TIP3    H176670   6.207   3.915  14.284 -0.0894 -2.5090  1.7882
18393TIP3    H276671   6.132   3.978  14.399 -0.1828 -0.2454  0.5174
18394TIP3   OH276672   3.772   5.283   6.354  0.5315  0.1412  0.4558
18394TIP3    H176673   3.823   5.312   6.430  0.4698 -0.1227  0.5992
18394TIP3    H276674   3.681   5.291   6.382  0.4526  1.5273 -0.1263
18395TIP3   OH276675   3.477   2.811  13.731 -0.4353  0.1337  0.1578
18395TIP3    H176676   3.550   2.849  13.779 -0.5739 -0.1262  0.5725
18395TIP3    H276677   3.440   2.885  13.681 -1.6889  0.9157  2.1959
18396TIP3   OH276678   1.411   2.568   3.586  0.3715 -0.4319 -0.2773
18396TIP3    H176679   1.344   2.539   3.648  0.0356 -0.4202 -0.6352
18396TIP3    H276680   1.365   2.625   3.525  1.2160  1.7549  1.0426
18397TIP3   OH276681   2.634   2.417   6.002  0.3731  0.5253  0.1536
18397TIP3    H176682   2.719   2.389   5.968 -0.5661  0.2399 -2.0857
18397TIP3    H276683   2.581   2.337   6.003 -0.7966  1.2415 -1.4750
18398TIP3   OH276684   0.827   0.883   4.369  0.1038 -0.2537  0.5219
18398TIP3    H176685   0.768   0.812   4.392 -0.4531 -0.8862 -2.5689
18398TIP3    H276686   0.893   0.842   4.313  1.1226  1.2150  0.6077
18399TIP3   OH276687   6.486   0.974  11.964  0.1940 -0.3521  0.5697
18399TIP3    H176688   6.442   0.930  12.037 -0.5412  1.4761  1.2439
18399TIP3    H276689   6.424   1.040  11.934  2.0972  1.7006  0.9640
18400TIP3   OH276690   6.257   6.303  13.143 -0.3030  0.4135 -0.2936
18400TIP3    H176691   6.243   6.389  13.182  0.4205  0.5284 -0.2711
18400TIP3    H276692   6.349   6.303  13.118 -0.7320  0.2943 -1.9022
18401TIP3   OH276693   4.438   1.566  12.370  0.0234  0.0556 -0.0450
18401TIP3    H176694   4.415   1.537  12.282 -0.5994  1.7516 -0.4604
18401TIP3    H276695   4.358   1.556  12.422  0.0457  0.2057  0.0213
18402TIP3   OH276696   0.464   5.503   4.632  0.0727  0.3401 -0.1352
18402TIP3    H176697   0.519   5.434   4.669 -0.3377  0.0635 -0.0463
18402TIP3    H276698   0.494   5.583   4.676 -1.4058 -0.1813  1.8833
18403TIP3   OH276699   4.795   0.258   5.800  0.0696 -0.1215 -0.4088
18403TIP3    H176700   4.857   0.201   5.754  0.8011 -0.6863  1.2447
18403TIP3    H276701   4.756   0.202   5.867  0.7071  1.2589  1.1658
18404TIP3   OH276702   6.802   1.155  15.981 -0.0129 -0.2409 -0.0851
18404TIP3    H176703   6.813   1.085  16.045 -0.5040 -0.6009 -0.3940
18404TIP3    H276704   6.708   1.169  15.977  0.1889  2.0794  1.7578
18405TIP3   OH276705   3.876   5.239  10.548  0.1919  0.4210 -0.5399
18405TIP3    H176706   3.830   5.160  10.578  0.3177  0.8589  0.8144
18405TIP3    H276707   3.964   5.231  10.585  0.1150  1.3460 -0.1460
18406TIP3   OH276708   2.928   1.184   0.121  0.1421  0.0334 -0.3535
18406TIP3    H176709   2.899   1.102   0.082 -1.7518 -0.4163  1.9022
18406TIP3    H276710   2.851   1.241   0.117  1.3282  1.5941 -1.5572
18407TIP3   OH276711   5.512   4.747  15.899  0.2065  0.2293 -0.2428
18407TIP3    H176712   5.478   4.744  15.988  1.0321 -2.0194  0.0177
18407TIP3    H276713   5.557   4.664  15.887  2.0837  1.4341 -1.9781
18408TIP3   OH276714   3.375   5.610   4.161 -0.1283  0.2926  0.4296
18408TIP3    H176715   3.291   5.603   4.117 -0.7116  0.2109  1.5301
18408TIP3    H276716   3.354   5.646   4.247  1.0051  0.6153  0.5772
18409TIP3   OH276717   5.008   1.245   4.486 -0.2563 -0.3121  0.5599
18409TIP3    H176718   5.078   1.257   4.551 -1.3501  0.0874  1.6870
18409TIP3    H276719   4.958   1.327   4.490 -0.4036 -0.3327 -0.7099
18410TIP3   OH276720   5.019   2.738   3.880 -0.2269  0.5091  0.6613
18410TIP3    H176721   4.958   2.746   3.806  1.5927 -0.9273 -1.0585
18410TIP3    H276722   5.089   2.800   3.859 -0.8642  1.8747  2.4345
18411TIP3   OH276723   3.441   6.817   3.795  0.0764 -0.0927 -0.9377
18411TIP3    H176724   3.523   6.784   3.832  0.4500  1.6007 -0.1886
18411TIP3    H276725   3.435   6.906   3.828 -3.0839 -0.8358  0.6324
18412TIP3   OH276726   4.377   2.009   0.962 -0.2582  0.1407  0.8931
18412TIP3    H176727   4.396   1.945   1.031  0.8548  0.8506  1.2523
18412TIP3    H276728   4.444   1.994   0.895 -1.3065 -0.5164 -0.0310
18413TIP3   OH276729   2.440   2.043   3.884 -0.0622 -0.4266  0.2237
18413TIP3    H176730   2.484   2.121   3.918 -0.0874  0.4580 -1.7428
18413TIP3    H276731   2.499   1.971   3.905  0.1538  0.1518  1.6845
18414TIP3   OH276732   6.289   4.822   6.372 -0.2082  0.2150  0.1212
18414TIP3    H176733   6.288   4.906   6.418 -0.8697  1.0915 -1.4408
18414TIP3    H276734   6.380   4.809   6.348  0.0489  0.0211  1.1896
18415TIP3   OH276735   4.141   2.016   4.595 -0.3366 -0.2013 -0.2836
18415TIP3    H176736   4.078   2.057   4.537 -1.8965  1.1535  2.3014
18415TIP3    H276737   4.219   2.072   4.590 -0.4173 -0.1559 -1.1101
18416TIP3   OH276738   6.340   6.301   6.274 -1.1542  0.2064 -0.1840
18416TIP3    H176739   6.335   6.396   6.265  0.7421  0.1254 -2.4288
18416TIP3    H276740   6.286   6.281   6.351 -1.9158  3.0361  0.0488
18417TIP3   OH276741   6.362   3.600   0.627 -0.0555  0.0597 -0.9269
18417TIP3    H176742   6.384   3.515   0.664  0.0216  0.6091  0.3080
18417TIP3    H276743   6.443   3.650   0.632 -0.6208  0.8868  0.2707
18418TIP3   OH276744   0.564   0.951   5.223 -0.0013  0.1274 -0.7517
18418TIP3    H176745   0.595   0.979   5.309 -3.2808 -2.2496  1.3398
18418TIP3    H276746   0.505   1.021   5.195  0.3410  0.4768 -0.5892
18419TIP3   OH276747   4.582   4.456  13.251 -0.2905  0.0167  0.1464
18419TIP3    H176748   4.550   4.374  13.288 -1.1435  0.8220  1.2251
18419TIP3    H276749   4.583   4.440  13.156 -0.4425 -1.2332  0.3470
18420TIP3   OH276750   3.299   6.108   0.539  0.4285 -0.3470  0.2110
18420TIP3    H176751   3.261   6.067   0.617 -1.3558 -0.6809 -0.8063
18420TIP3    H276752   3.308   6.200   0.563 -0.7259 -0.3261  0.6183
18421TIP3   OH276753   4.603   5.105  13.704  0.5801 -0.3408  0.1185
18421TIP3    H176754   4.634   5.072  13.788  0.1541 -0.6013  0.1754
18421TIP3    H276755   4.621   5.199  13.706  0.2502 -0.2914  0.6370
18422TIP3   OH276756   4.795   3.847  13.405  0.1502 -0.4335  0.2757
18422TIP3    H176757   4.861   3.876  13.468  0.2793  1.0547 -0.5284
18422TIP3    H276758   4.712   3.871  13.445  0.1477 -1.0412  0.6481
18423TIP3   OH276759   0.217   4.823  13.988  0.0923 -0.1410 -0.1732
18423TIP3    H176760   0.152   4.765  14.028  0.0505  0.9262  1.3462
18423TIP3    H276761   0.301   4.791  14.021  0.0855  0.5180  0.4868
18424TIP3   OH276762   1.862   4.438   5.266  0.2570 -0.2431 -0.3013
18424TIP3    H176763   1.768   4.439   5.286  0.0552 -2.5199 -1.0440
18424TIP3    H276764   1.902   4.391   5.340  0.1380 -3.9836 -2.5153
18425TIP3   OH276765   3.651   0.457  16.282 -0.0745  0.5881  0.4960
18425TIP3    H176766   3.678   0.380  16.231 -1.1079  0.4078  0.2158
18425TIP3    H276767   3.688   0.531  16.234  0.0382  0.3302  0.1780
18426TIP3   OH276768   6.544   2.612  12.378  0.3817  0.1087  0.1465
18426TIP3    H176769   6.585   2.697  12.364  1.0308  0.1514  2.2215
18426TIP3    H276770   6.451   2.627  12.362  0.6022  1.0071 -0.3242
18427TIP3   OH276771   0.692   3.663  12.968  0.1545  0.3727  0.5975
18427TIP3    H176772   0.735   3.650  13.052  0.9626  0.6093  0.2347
18427TIP3    H276773   0.741   3.608  12.907 -0.0421  0.6639  0.1675
18428TIP3   OH276774   1.701   0.540   0.202 -0.0741  0.6396  0.2626
18428TIP3    H176775   1.793   0.521   0.181  0.5050  1.7752  1.7041
18428TIP3    H276776   1.662   0.454   0.217  0.3055  0.0247 -2.0943
18429TIP3   OH276777   6.106   6.242  12.075  0.1803  0.2513  0.0531
18429TIP3    H176778   6.112   6.337  12.063  0.3329  0.0721 -1.3783
18429TIP3    H276779   6.189   6.217  12.114  0.3329  0.6414 -0.0227
18430TIP3   OH276780   5.529   3.552  11.987  0.1834  0.3679  0.0497
18430TIP3    H176781   5.604   3.496  11.967  0.3287  1.1118 -1.5946
18430TIP3    H276782   5.546   3.633  11.939 -0.7693  1.2450  1.1737
18431TIP3   OH276783   1.524   3.007   3.051  0.1243  0.5920 -0.3419
18431TIP3    H176784   1.545   3.045   3.136  1.1861  1.5149 -1.0043
18431TIP3    H276785   1.499   3.081   2.996  0.4727  0.1342 -1.1352
18432TIP3   OH276786   1.788   3.062  15.097 -0.1540 -0.2196 -0.8661
18432TIP3    H176787   1.850   2.999  15.059  0.3267  0.6831 -1.6027
18432TIP3    H276788   1.843   3.135  15.126 -0.7516  0.0469 -0.4019
18433TIP3   OH276789   5.462   1.115   4.116  0.7830  0.2391 -0.1712
18433TIP3    H176790   5.545   1.127   4.162  0.2693  0.3912  0.7313
18433TIP3    H276791   5.426   1.204   4.108  0.9154  0.2277 -0.9643
18434TIP3   OH276792   5.632   1.328   1.182  0.5563  0.0589 -0.0655
18434TIP3    H176793   5.543   1.360   1.197  0.5268  0.2981 -0.7157
18434TIP3    H276794   5.625   1.275   1.102  1.5115  2.3782 -1.7378
18435TIP3   OH276795   0.867   6.317   1.440 -0.0123 -0.2712  0.4584
18435TIP3    H176796   0.904   6.264   1.368 -0.4186 -1.4571  1.1005
18435TIP3    H276797   0.773   6.299   1.436 -0.3852  1.7715 -0.3881
18436TIP3   OH276798   1.566   3.891  15.965 -0.4269  0.0374 -0.5457
18436TIP3    H176799   1.477   3.927  15.963  0.2230  1.8119  0.8226
18436TIP3    H276800   1.620   3.959  15.925  0.6296  0.0611  0.8576
18437TIP3   OH276801   2.425   0.734  12.472 -0.1621 -0.0001  0.0329
18437TIP3    H176802   2.520   0.731  12.483 -0.0102  1.3561 -0.7562
18437TIP3    H276803   2.398   0.814  12.517 -0.7840  0.2155 -0.7070
18438TIP3   OH276804   4.672   4.696  15.293 -0.0415  1.2503 -0.4310
18438TIP3    H176805   4.618   4.761  15.247  0.3659 -0.1242 -2.8786
18438TIP3    H276806   4.611   4.625  15.312  0.1913  1.0720 -0.3627
18439TIP3   OH276807   4.780   1.620   5.114  0.5936  0.2264 -0.0781
18439TIP3    H176808   4.864   1.587   5.084 -0.4493  0.1557 -3.1389
18439TIP3    H276809   4.794   1.714   5.126  1.2641  0.1173  0.0074
18440TIP3   OH276810   0.959   5.066  10.268  0.1677  0.4554  0.1577
18440TIP3    H176811   1.007   5.117  10.333  0.4429  0.3850  0.0115
18440TIP3    H276812   0.869   5.100  10.272 -0.5961 -1.6692  2.8052
18441TIP3   OH276813   3.772   5.956   1.005  0.3189  0.4950  0.0576
18441TIP3    H176814   3.852   5.987   1.049  1.9106 -3.5239  0.2154
18441TIP3    H276815   3.709   5.946   1.076  0.9732 -0.1340  0.5675
18442TIP3   OH276816   3.714   5.375   3.084  0.6333 -0.2752 -0.3413
18442TIP3    H176817   3.807   5.381   3.108  0.2747 -2.8619  2.0446
18442TIP3    H276818   3.679   5.309   3.144 -3.3085  2.4013  0.4592
18443TIP3   OH276819   4.043   1.657   1.246 -0.1611  0.6434  0.2168
18443TIP3    H176820   4.029   1.564   1.268 -1.8555  1.1568  1.3660
18443TIP3    H276821   4.066   1.698   1.330 -3.3585  1.9864  0.4988
18444TIP3   OH276822   3.096   3.650  14.340 -0.4798 -0.1237  0.1578
18444TIP3    H176823   3.095   3.664  14.246 -0.0673  1.9794  0.4421
18444TIP3    H276824   3.010   3.613  14.360 -1.0385  0.6199 -0.8579
18445TIP3   OH276825   5.739   3.456  16.460  0.4403  0.1789  0.1256
18445TIP3    H176826   5.670   3.510  16.421  1.3467  0.7068 -0.7605
18445TIP3    H276827   5.790   3.518  16.513 -0.5283 -0.4496  1.8300
18446TIP3   OH276828   0.209   2.390   0.150 -0.0600  0.2513 -0.5709
18446TIP3    H176829   0.140   2.373   0.213  1.5262 -0.6676  0.9802
18446TIP3    H276830   0.166   2.433   0.076 -2.2045 -0.0977  0.4699
18447TIP3   OH276831   0.457   0.595  15.798  0.2522 -0.0511  0.0134
18447TIP3    H176832   0.456   0.687  15.824  0.4471  0.7866 -2.8108
18447TIP3    H276833   0.368   0.565  15.812 -0.1166  0.9165 -0.2542
18448TIP3   OH276834   4.250   1.657   0.138  0.5137  0.5053 -0.0038
18448TIP3    H176835   4.340   1.629   0.120  0.7240  0.5627  0.9593
18448TIP3    H276836   4.203   1.642   0.056  0.1496 -4.3487  0.9961
18449TIP3   OH276837   3.527   6.502   5.507 -0.3713 -0.7464 -0.4551
18449TIP3    H176838   3.529   6.413   5.542  0.4577 -1.6692 -2.7172
18449TIP3    H276839   3.435   6.517   5.485 -0.9717 -0.0040  2.3550
18450TIP3   OH276840   1.735   2.067   3.321  0.5286  0.2943 -0.1602
18450TIP3    H176841   1.724   1.976   3.350  1.4707  0.5615  1.0469
18450TIP3    H276842   1.792   2.062   3.245 -1.1149 -0.3118 -1.3910
18451TIP3   OH276843   1.254   0.678   6.035 -0.3470  0.0584 -0.6239
18451TIP3    H176844   1.197   0.740   5.989 -1.4748 -0.5643 -0.0660
18451TIP3    H276845   1.200   0.642   6.105  0.8424 -0.2788  0.1367
18452TIP3   OH276846   4.827   4.408   1.505 -0.0278 -0.0369 -0.0634
18452TIP3    H176847   4.755   4.434   1.446 -0.1361 -1.5515 -0.6171
18452TIP3    H276848   4.893   4.477   1.493 -1.2910  1.2549  0.2886
18453TIP3   OH276849   2.200   4.279   5.665 -0.1626  0.0286 -0.2737
18453TIP3    H176850   2.266   4.294   5.597 -0.0109 -0.1254 -0.1598
18453TIP3    H276851   2.231   4.328   5.740  0.9510 -1.7742  0.4895
18454TIP3   OH276852   3.535   2.572   0.006  0.2861  0.0300 -0.3620
18454TIP3    H176853   3.501   2.625  -0.067 -0.9235  1.1133  0.9525
18454TIP3    H276854   3.471   2.503   0.017  0.9024 -0.6257 -0.8586
18455TIP3   OH276855   2.468   3.911  15.801 -0.0677 -0.7948 -0.8151
18455TIP3    H176856   2.416   3.842  15.842  1.1247 -2.1727 -1.5533
18455TIP3    H276857   2.494   3.968  15.873  1.5114 -2.8443  0.2921
18456TIP3   OH276858   3.692   2.065  16.653 -0.1250  0.3438 -0.4177
18456TIP3    H176859   3.641   2.082  16.732  0.7167  0.6011  0.0759
18456TIP3    H276860   3.630   2.078  16.581  0.0662  4.0635 -0.0275
18457TIP3   OH276861   4.409   2.175   2.049 -0.6622 -0.1864 -0.1110
18457TIP3    H176862   4.450   2.250   2.091 -0.3556 -0.3595 -0.0969
18457TIP3    H276863   4.418   2.192   1.955  0.1500 -0.5989 -0.1157
18458TIP3   OH276864   2.636   3.457  15.487 -0.5596 -0.6711  0.3223
18458TIP3    H176865   2.712   3.447  15.430 -1.0109 -3.2882  0.0966
18458TIP3    H276866   2.669   3.501  15.565  1.5544 -3.2377  0.9203
18459TIP3   OH276867   3.304   2.911  14.219  0.1976 -0.1998  0.7044
18459TIP3    H176868   3.372   2.974  14.244  0.3739 -0.5473  1.1142
18459TIP3    H276869   3.340   2.865  14.143 -0.1900  0.6162  0.0170
18460TIP3   OH276870   3.299   2.253  15.149  0.3445  0.1303 -0.6461
18460TIP3    H176871   3.368   2.284  15.090  0.6694 -0.4495 -0.5744
18460TIP3    H276872   3.227   2.227  15.091  1.2028 -1.8074 -0.8964
18461TIP3   OH276873   3.095   6.527   0.694  0.0166 -0.2397  0.7873
18461TIP3    H176874   3.170   6.506   0.749 -0.8174 -1.8312  1.3449
18461TIP3    H276875   3.123   6.504   0.605 -0.1182 -1.7316  1.1137
18462TIP3   OH276876   2.531   2.399   0.080  0.6239  0.0120  0.1179
18462TIP3    H176877   2.537   2.447   0.163  0.2042  1.1348 -0.4896
18462TIP3    H276878   2.612   2.419   0.034  0.5129  0.0205 -0.0766
18463TIP3   OH276879   0.489   0.632   1.650  0.3851  0.9442 -0.0396
18463TIP3    H176880   0.532   0.676   1.723 -1.2177  0.4127  1.2331
18463TIP3    H276881   0.422   0.695   1.620 -1.3401 -0.2523  1.2385
18464TIP3   OH276882   2.194   3.674   1.589  0.2158  0.2730 -0.2265
18464TIP3    H176883   2.260   3.742   1.578 -1.4923  1.7503 -1.7172
18464TIP3    H276884   2.122   3.717   1.634 -0.5559 -0.7871 -0.4174
18465TIP3   OH276885   3.214   5.716  12.195 -0.1396 -0.0891  0.8213
18465TIP3    H176886   3.298   5.682  12.225  0.5141  0.2299 -0.5881
18465TIP3    H276887   3.223   5.811  12.201  0.3260  0.0140 -1.1732
18466TIP3   OH276888   3.751   2.350   1.823  0.1613  0.2747  0.1420
18466TIP3    H176889   3.676   2.406   1.842  0.9680  2.0348 -1.7399
18466TIP3    H276890   3.730   2.308   1.740  0.4846 -0.5942  0.4949
18467TIP3   OH276891   4.121   3.475  16.405 -0.0433  0.1563 -0.2706
18467TIP3    H176892   4.073   3.466  16.322  1.2669  2.0573 -1.2648
18467TIP3    H276893   4.173   3.395  16.410 -0.7853 -0.3783 -0.8467
18468TIP3   OH276894   0.443   0.193   3.946 -0.5246  0.1486  0.9408
18468TIP3    H176895   0.516   0.210   4.006 -0.6732  1.0392  0.8803
18468TIP3    H276896   0.478   0.211   3.859 -0.8299  0.6619  0.9181
18469TIP3   OH276897   5.921   2.139  16.306 -0.0659 -0.0863  0.1270
18469TIP3    H176898   5.979   2.128  16.230 -1.3871  0.6216 -1.0207
18469TIP3    H276899   5.896   2.050  16.330 -1.0475 -0.2593 -1.4219
18470TIP3   OH276900   3.736   3.635   5.886  0.1042 -0.4210 -0.4215
18470TIP3    H176901   3.700   3.682   5.961 -1.2282  1.2795 -2.0791
18470TIP3    H276902   3.703   3.545   5.897 -2.1364  0.3863 -0.2476
18471TIP3   OH276903   1.206   3.772   2.436 -0.1384 -0.1149  0.2572
18471TIP3    H176904   1.276   3.727   2.484 -0.1361 -0.7894 -0.3775
18471TIP3    H276905   1.250   3.812   2.362 -0.2887  0.1711  0.3233
18472TIP3   OH276906   4.878   3.013   4.058  0.1674  0.6291  0.1061
18472TIP3    H176907   4.876   2.982   4.148  0.8494  0.4061  0.0434
18472TIP3    H276908   4.788   3.041   4.040  0.1718  1.2543  1.0548
18473TIP3   OH276909   3.955   2.648  12.050  0.2631 -0.4241 -0.2314
18473TIP3    H176910   3.952   2.712  11.979 -0.4858 -0.7506 -0.4991
18473TIP3    H276911   4.034   2.597  12.033  1.0484  0.6195  0.1612
18474TIP3   OH276912   6.077   2.734   2.024  0.3105 -0.2625 -0.0414
18474TIP3    H176913   6.100   2.733   1.931  1.1254  0.3881  0.1539
18474TIP3    H276914   6.080   2.826   2.049  0.4660 -0.4757  0.7304
18475TIP3   OH276915   5.953   0.739  11.118 -0.3497  0.2512  0.8922
18475TIP3    H176916   5.949   0.834  11.118 -1.7294  0.2182 -0.0093
18475TIP3    H276917   5.875   0.712  11.167  1.4854 -0.4146  3.5778
18476TIP3   OH276918   4.970   2.020  13.141 -0.1825  0.3564  0.1148
18476TIP3    H176919   4.890   1.994  13.188  1.3251 -2.0053  1.4629
18476TIP3    H276920   4.948   2.009  13.049 -0.6915 -2.6641  0.5453
18477TIP3   OH276921   4.426   4.697   5.887 -0.0276 -0.3803 -0.5832
18477TIP3    H176922   4.459   4.737   5.968 -1.0524  0.5531 -0.6295
18477TIP3    H276923   4.429   4.603   5.905 -0.0478 -0.1913  0.4640
18478TIP3   OH276924   3.818   2.744  12.658 -0.1731  0.3683  0.1396
18478TIP3    H176925   3.872   2.727  12.581  0.2537 -2.2435  0.9783
18478TIP3    H276926   3.732   2.707  12.637  0.2883 -1.4315  1.3708
18479TIP3   OH276927   1.260   5.721  16.453  0.0950  0.5960 -0.8394
18479TIP3    H176928   1.291   5.759  16.371 -2.2746  1.1619 -1.5231
18479TIP3    H276929   1.311   5.640  16.462  1.9011  1.6022 -1.7459
18480TIP3   OH276930   0.354   4.739   2.712  0.3237  0.1796  0.6443
18480TIP3    H176931   0.425   4.739   2.648 -0.1912 -0.5434  0.0638
18480TIP3    H276932   0.362   4.823   2.757  0.9761  0.4956 -0.0523
18481TIP3   OH276933   1.662   3.314  14.010 -0.1725 -0.1410  0.2790
18481TIP3    H176934   1.659   3.409  14.021 -0.8190 -0.1902  0.5605
18481TIP3    H276935   1.701   3.283  14.092 -1.3248 -0.2167  0.8177
18482TIP3   OH276936   0.353   5.782  16.425  0.2010  0.0304 -0.1022
18482TIP3    H176937   0.390   5.710  16.476  2.9003  1.1627 -0.3861
18482TIP3    H276938   0.348   5.855  16.487 -2.8959 -0.4493  0.2909
18483TIP3   OH276939   3.722   0.038  12.903 -0.2854 -0.2130 -0.4669
18483TIP3    H176940   3.772  -0.042  12.917 -0.8353 -0.0277  3.1249
18483TIP3    H276941   3.786   0.108  12.914  0.0704 -0.0961 -3.0102
18484TIP3   OH276942   6.483   6.187   5.012  0.1547 -0.0928 -0.0274
18484TIP3    H176943   6.492   6.239   5.093  2.4894  0.7897 -0.8122
18484TIP3    H276944   6.571   6.155   4.994 -0.2572  0.0487 -2.4510
18485TIP3   OH276945   1.956   2.896  14.523 -0.5791 -0.1606 -0.3940
18485TIP3    H176946   1.972   2.985  14.553  1.2591 -0.4813 -0.3477
18485TIP3    H276947   1.964   2.842  14.601  0.5263 -0.5947 -0.7950
18486TIP3   OH276948   1.263   1.874   5.247  0.2125 -0.2592 -1.0617
18486TIP3    H176949   1.210   1.948   5.216  0.6951 -0.0372 -1.3663
18486TIP3    H276950   1.323   1.913   5.311 -1.0122 -0.7748  0.4386
18487TIP3   OH276951   1.384   0.422   0.343  0.5141  0.3874  0.2542
18487TIP3    H176952   1.463   0.373   0.367 -0.3527 -1.6193 -0.8568
18487TIP3    H276953   1.312   0.364   0.366 -0.5719  1.4225 -0.4824
18488TIP3   OH276954   3.098   5.533   4.071  0.0346 -0.1617  0.2694
18488TIP3    H176955   3.007   5.552   4.047 -0.3679  0.3828  2.1726
18488TIP3    H276956   3.103   5.550   4.165  1.3125 -3.2261  0.8362
18489TIP3   OH276957   4.674   0.833  14.638  0.2299 -0.3111 -0.0853
18489TIP3    H176958   4.692   0.846  14.731  0.5161  0.3399 -0.2306
18489TIP3    H276959   4.745   0.778  14.607  0.6651  0.2859 -0.1375
18490TIP3   OH276960   0.966   1.098  12.574 -0.2758  0.0341  0.4059
18490TIP3    H176961   0.895   1.154  12.604 -0.0325  0.5913 -0.0384
18490TIP3    H276962   0.944   1.011  12.606 -1.0446  0.2447  0.4461
18491TIP3   OH276963   4.898   3.123  13.414 -0.0451  0.3606  0.5607
18491TIP3    H176964   4.908   3.028  13.411  2.9355  0.6110  0.6582
18491TIP3    H276965   4.842   3.144  13.338  0.4544 -1.3391 -0.2982
18492TIP3   OH276966   3.914   1.019  14.338  0.6670  0.0106  0.0586
18492TIP3    H176967   3.828   0.989  14.367  0.7286 -0.4799 -0.2699
18492TIP3    H276968   3.933   0.967  14.260  0.6619  1.0655 -0.6572
18493TIP3   OH276969   5.697   5.124  12.926 -0.2013 -0.3995  0.3648
18493TIP3    H176970   5.613   5.110  12.969 -0.1981 -0.5268  0.3299
18493TIP3    H276971   5.690   5.212  12.889 -0.5049 -0.6001 -0.0562
18494TIP3   OH276972   0.477   4.588  16.915  0.0605 -0.2254 -0.5287
18494TIP3    H176973   0.515   4.501  16.926 -0.1278 -0.4680 -1.6321
18494TIP3    H276974   0.479   4.603  16.820  4.3614  2.9355 -0.0657
18495TIP3   OH276975   5.865   2.483  10.798  0.4295 -0.2765 -0.0431
18495TIP3    H176976   5.848   2.422  10.869 -0.6496  0.5739  0.4531
18495TIP3    H276977   5.818   2.446  10.723  0.5900 -0.5593 -0.0047
18496TIP3   OH276978   4.793   4.583   4.418 -0.1116  0.7904 -0.5337
18496TIP3    H176979   4.761   4.630   4.342  0.0625  2.8437  0.6299
18496TIP3    H276980   4.808   4.651   4.484  0.4600 -0.8564  1.0760
18497TIP3   OH276981   1.224   1.673   3.101  0.2315 -0.4263  0.2896
18497TIP3    H176982   1.244   1.637   3.014 -4.8250 -1.5682 -0.5449
18497TIP3    H276983   1.211   1.595   3.156  1.3048  0.2841  1.5802
18498TIP3   OH276984   4.072   0.345   1.883 -0.2283 -0.2634  0.3332
18498TIP3    H176985   4.026   0.262   1.871 -0.8489  0.1185  0.0213
18498TIP3    H276986   4.078   0.356   1.978 -0.9576 -0.2215  0.3748
18499TIP3   OH276987   4.091   2.636   1.749  0.2147 -0.6927  0.1574
18499TIP3    H176988   4.139   2.605   1.826 -0.3819  0.7234  1.1171
18499TIP3    H276989   4.118   2.727   1.739 -0.1736 -0.6971 -0.9601
18500TIP3   OH276990   6.680   5.929   0.651 -0.6106 -0.4064 -0.1124
18500TIP3    H176991   6.644   5.998   0.706 -2.3383 -1.0787 -0.3585
18500TIP3    H276992   6.767   5.912   0.687 -1.5113 -0.4728  2.1001
18501TIP3   OH276993   5.620   2.803  11.987 -0.2044  0.6389 -0.2771
18501TIP3    H176994   5.532   2.766  11.986  0.0578  0.0129 -0.1576
18501TIP3    H276995   5.661   2.769  11.908  0.9330 -1.5151  1.1895
18502TIP3   OH276996   2.871   1.864   5.201 -0.0984  0.2839 -0.1960
18502TIP3    H176997   2.833   1.849   5.115 -2.8584  0.5153  0.9070
18502TIP3    H276998   2.918   1.783   5.221  1.0595  0.4455 -2.1198
18503TIP3   OH276999   4.423   4.264   0.864  0.3055 -0.0449 -0.5597
18503TIP3    H177000   4.426   4.265   0.959  1.8757  1.6445 -0.6026
18503TIP3    H277001   4.337   4.227   0.843  0.3865 -1.4748  1.4827
18504TIP3   OH277002   2.051   5.233  16.527 -0.2313 -0.0447  0.1178
18504TIP3    H177003   1.982   5.261  16.467  0.5385 -1.9666 -1.7609
18504TIP3    H277004   2.030   5.142  16.547  1.3018 -0.4231  0.1441
18505TIP3   OH277005   2.185   1.798  12.481 -0.1285  0.0043 -0.5990
18505TIP3    H177006   2.210   1.795  12.574 -1.2465  1.4823 -0.2421
18505TIP3    H277007   2.104   1.747  12.477 -0.4676  0.5467 -0.6359
18506TIP3   OH277008   3.636   1.302   1.175 -0.2062  0.0985 -0.1718
18506TIP3    H177009   3.715   1.253   1.155 -1.2329 -1.1670 -1.2404
18506TIP3    H277010   3.667   1.383   1.217  1.4409 -2.5108  3.9561
18507TIP3   OH277011   4.012   3.476  12.481  0.2444  0.0134 -0.1297
18507TIP3    H177012   4.027   3.394  12.528  3.1268  0.9438  0.7038
18507TIP3    H277013   4.058   3.464  12.398 -0.4769  0.2836 -0.5665
18508TIP3   OH277014   0.792   5.333   1.497 -0.2315 -0.2532  0.1570
18508TIP3    H177015   0.730   5.377   1.555 -0.3598  0.8671 -0.8067
18508TIP3    H277016   0.878   5.357   1.530 -0.3019  0.7460 -0.3611
18509TIP3   OH277017   2.550   2.139  13.790 -0.3117  0.0437  0.3653
18509TIP3    H177018   2.509   2.084  13.856 -1.6390 -0.6966 -1.0233
18509TIP3    H277019   2.479   2.158  13.728  0.7802  1.0985 -0.5879
18510TIP3   OH277020   4.452   3.705   2.597  0.4737 -0.3520  0.0311
18510TIP3    H177021   4.360   3.682   2.602  0.6059 -0.8601  0.1396
18510TIP3    H277022   4.489   3.676   2.680  0.5428  0.7084  0.3753
18511TIP3   OH277023   3.458   3.526   1.025 -0.1670  0.2888  0.1874
18511TIP3    H177024   3.540   3.555   0.986 -0.9885  0.1127 -1.6923
18511TIP3    H277025   3.485   3.479   1.104  1.5187  0.5107 -0.2399
18512TIP3   OH277026   0.135   4.199  13.437 -0.5295 -0.3993  0.0317
18512TIP3    H177027   0.122   4.271  13.499  1.4042  0.6274 -0.7095
18512TIP3    H277028   0.127   4.240  13.351  2.1214 -0.7522 -0.4007
18513TIP3   OH277029   0.438   0.894  11.425  0.0403 -0.0241  0.3127
18513TIP3    H177030   0.395   0.896  11.339 -2.7458  0.0829  1.6621
18513TIP3    H277031   0.432   0.802  11.452  0.6246  0.0044  0.5481
18514TIP3   OH277032   5.240   5.116   2.778 -0.0919 -0.7618 -0.1923
18514TIP3    H177033   5.199   5.165   2.850  1.3533 -0.4533  0.4230
18514TIP3    H277034   5.166   5.093   2.721 -1.1462 -0.2763  0.9408
18515TIP3   OH277035   2.047   5.920  11.890 -0.2858 -0.0532  0.1921
18515TIP3    H177036   2.016   6.007  11.864  1.8441  1.1901  1.6946
18515TIP3    H277037   1.994   5.898  11.967 -1.6969 -0.6832 -0.9202
18516TIP3   OH277038   5.684   5.388   0.835 -0.6977 -0.3548 -0.0662
18516TIP3    H177039   5.772   5.385   0.796  0.1483 -0.6327  1.8116
18516TIP3    H277040   5.633   5.440   0.774  0.9598  0.4000 -0.8415
18517TIP3   OH277041   0.305   5.606   5.269  0.1297  0.0107  0.0358
18517TIP3    H177042   0.300   5.700   5.252  0.5120 -0.0379 -0.3614
18517TIP3    H277043   0.331   5.568   5.185 -1.8075 -0.6376 -0.2884
18518TIP3   OH277044   0.615   4.738   2.589 -0.1427 -0.2243 -0.3627
18518TIP3    H177045   0.659   4.738   2.674  1.0912 -1.4802 -0.9767
18518TIP3    H277046   0.664   4.800   2.536  1.0178 -1.7481 -1.0989
18519TIP3   OH277047   4.314   1.722   3.700  0.2740 -0.0489  0.8767
18519TIP3    H177048   4.381   1.653   3.693  0.9213  0.6022  0.5743
18519TIP3    H277049   4.245   1.683   3.753  1.8033 -0.0195  2.9352
18520TIP3   OH277050   4.687   0.744  16.213 -0.0577  0.2731  0.3532
18520TIP3    H177051   4.744   0.815  16.243 -0.1876  1.1699 -1.4667
18520TIP3    H277052   4.644   0.779  16.135 -1.8620 -0.9994  0.7547
18521TIP3   OH277053   6.111   1.349   2.838  0.4466  0.3872 -0.5390
18521TIP3    H177054   6.081   1.266   2.875  0.5117 -0.8537 -3.1642
18521TIP3    H277055   6.115   1.408   2.913 -0.9184 -1.5915  1.1690
18522TIP3   OH277056   3.334   2.316  11.674  0.2576 -0.8800  0.0926
18522TIP3    H177057   3.258   2.257  11.683 -0.6377  0.4539  1.4622
18522TIP3    H277058   3.308   2.396  11.719  1.4910  0.5737 -1.6984
18523TIP3   OH277059   0.276   2.212  14.735 -0.6938 -0.3338 -0.0204
18523TIP3    H177060   0.276   2.268  14.813 -0.0798 -0.0955 -0.1933
18523TIP3    H277061   0.183   2.195  14.719 -0.9096  0.9014 -0.1597
18524TIP3   OH277062   1.009   5.576   5.497  0.1026  0.3662 -0.7328
18524TIP3    H177063   0.966   5.580   5.583 -1.6807  0.0956 -1.6014
18524TIP3    H277064   1.068   5.652   5.497  1.0508 -0.3275  1.2013
18525TIP3   OH277065   5.403   6.817   0.436 -0.5304 -0.2291  0.0496
18525TIP3    H177066   5.409   6.726   0.406 -1.0968 -0.8046  1.5933
18525TIP3    H277067   5.494   6.844   0.447 -0.3707 -1.2793  1.4641
18526TIP3   OH277068   2.038   4.177   0.658  0.5186  0.1338  0.1881
18526TIP3    H177069   2.098   4.127   0.603  2.7123 -0.9754  3.4136
18526TIP3    H277070   2.001   4.112   0.718 -0.8376  1.4837  0.8443
18527TIP3   OH277071   3.147   3.894  11.251 -0.4000 -0.5450  0.0665
18527TIP3    H177072   3.158   3.818  11.307 -0.9651 -0.0543  0.8518
18527TIP3    H277073   3.223   3.893  11.194  0.1902 -1.0428  0.8554
18528TIP3   OH277074   6.388   2.939   5.969 -0.5780 -0.7084  0.6179
18528TIP3    H177075   6.465   2.977   5.926 -0.2841 -2.1289 -0.1480
18528TIP3    H277076   6.320   3.006   5.961  0.4117  0.3296  0.7987
18529TIP3   OH277077   5.049   2.113   2.080 -0.1398  0.3740 -0.2765
18529TIP3    H177078   5.082   2.173   2.146 -0.2249 -0.0353  0.1358
18529TIP3    H277079   5.074   2.026   2.111 -1.3491  0.0782 -0.1018
18530TIP3   OH277080   3.504   2.906   1.425  0.7059 -0.5766 -0.6103
18530TIP3    H177081   3.502   3.002   1.427  1.6814 -0.5410 -0.8900
18530TIP3    H277082   3.449   2.883   1.350 -0.0558 -0.2621 -0.1519
18531TIP3   OH277083   3.551   4.617  13.692 -0.8252 -0.2581  0.0266
18531TIP3    H177084   3.617   4.679  13.723 -1.0999 -0.7199  1.6213
18531TIP3    H277085   3.475   4.672  13.671 -0.7028  0.0580  0.3939
18532TIP3   OH277086   0.598   5.410  14.158  0.4583 -0.4108 -0.0728
18532TIP3    H177087   0.580   5.332  14.107  0.8665  0.5615 -1.7401
18532TIP3    H277088   0.606   5.480  14.093  0.4315  0.9519  1.3632
18533TIP3   OH277089   2.967   2.956   4.043  0.3803 -0.2991  0.0067
18533TIP3    H177090   2.929   2.999   3.967 -1.1246 -0.1271  0.8276
18533TIP3    H277091   2.958   2.863   4.025  0.7571 -0.2678 -0.3642
18534TIP3   OH277092   4.126   2.973  12.439 -0.3547 -0.6927  0.1931
18534TIP3    H177093   4.208   2.940  12.402  0.0401  0.5939 -0.1112
18534TIP3    H277094   4.059   2.940  12.380  0.1907  0.5421 -1.1404
18535TIP3   OH277095   3.882   5.466   2.620  0.3621  0.2773  0.0014
18535TIP3    H177096   3.846   5.380   2.641  2.1122 -0.9694 -1.8403
18535TIP3    H277097   3.809   5.513   2.580 -0.4802 -0.5505  0.5515
18536TIP3   OH277098   3.591   3.786   6.093  0.2846 -0.0151  0.5806
18536TIP3    H177099   3.609   3.737   6.174 -1.2550 -1.0556  0.3227
18536TIP3    H277100   3.524   3.849   6.118  1.8591  1.6188  0.7695
18537TIP3   OH277101   3.306   1.112   3.459  0.3148 -0.1843  0.0131
18537TIP3    H177102   3.257   1.189   3.430  0.0278  0.2366  1.5569
18537TIP3    H277103   3.290   1.046   3.391  0.8233  1.2139 -1.4800
18538TIP3   OH277104   0.515   2.809   6.124 -0.7364  0.1624  0.0979
18538TIP3    H177105   0.525   2.763   6.208 -0.0522 -0.5680 -0.3822
18538TIP3    H277106   0.583   2.876   6.124 -0.8154  0.2429  0.1781
18539TIP3   OH277107   1.444   4.192  15.656 -0.4175  0.3509  0.5859
18539TIP3    H177108   1.358   4.204  15.697 -0.8640  0.6061 -0.4062
18539TIP3    H277109   1.444   4.101  15.626 -0.4058  0.4064  0.4217
18540TIP3   OH277110   3.393   4.747  12.454  0.1662  0.5660  0.6901
18540TIP3    H177111   3.377   4.678  12.518 -0.7176 -0.4079 -0.5395
18540TIP3    H277112   3.482   4.732  12.424  0.3528  0.6204  1.2268
18541TIP3   OH277113   6.774   2.121  13.868  0.3311  0.8044  0.3460
18541TIP3    H177114   6.709   2.056  13.840  1.2042  0.1889 -0.2805
18541TIP3    H277115   6.848   2.068  13.899  0.1506  1.4972  1.9614
18542TIP3   OH277116   2.882   3.026   3.158 -0.4394 -0.3488 -0.2721
18542TIP3    H177117   2.834   2.996   3.081 -0.6315 -0.4979 -0.0910
18542TIP3    H277118   2.815   3.043   3.224 -0.1019 -2.6014  0.7003
18543TIP3   OH277119   5.235   0.777  16.946  0.3104 -0.3674  0.1553
18543TIP3    H177120   5.170   0.816  16.886 -0.2028 -3.9878 -1.7880
18543TIP3    H277121   5.191   0.699  16.980  2.2683 -0.7601  1.8086
18544TIP3   OH277122   6.517   4.540  12.965  0.6928 -0.6958 -0.6143
18544TIP3    H177123   6.480   4.606  13.022  0.3910 -0.4634 -1.0758
18544TIP3    H277124   6.500   4.457  13.009  0.2154 -0.5396 -0.4997
18545TIP3   OH277125   6.720   0.590  12.124  0.2742  0.0674  0.3568
18545TIP3    H177126   6.683   0.590  12.212  0.6610  2.5928  0.5596
18545TIP3    H277127   6.644   0.594  12.066 -0.0621 -3.2527  0.4615
18546TIP3   OH277128   0.316   3.267  16.791  0.0717 -0.1841 -0.4014
18546TIP3    H177129   0.404   3.231  16.797 -0.0706 -0.4832 -0.0652
18546TIP3    H277130   0.324   3.340  16.730  0.4139 -0.6327 -0.8972
18547TIP3   OH277131   6.616   5.106   5.213 -0.5351  0.1275  0.4922
18547TIP3    H177132   6.575   5.096   5.300  0.9339 -0.6164  1.1113
18547TIP3    H277133   6.639   5.198   5.208 -2.2607  0.5582  0.1391
18548TIP3   OH277134   2.546   3.613   1.779 -0.2602 -0.3250 -0.2891
18548TIP3    H177135   2.613   3.621   1.847  0.4714 -0.4910 -0.9914
18548TIP3    H277136   2.467   3.648   1.821  0.9082  2.6083 -0.3858
18549TIP3   OH277137   5.818   0.365  11.580 -0.2255 -0.2355 -0.0949
18549TIP3    H177138   5.787   0.450  11.611  0.9580  1.1895 -2.5823
18549TIP3    H277139   5.864   0.327  11.655 -0.6694  1.3631  1.0111
18550TIP3   OH277140   5.352   6.499   5.312 -0.2447  0.2557 -0.1211
18550TIP3    H177141   5.275   6.486   5.367  0.2303 -1.4576  0.1866
18550TIP3    H277142   5.342   6.435   5.242  0.3739  0.7346 -0.6465
18551TIP3   OH277143   4.729   2.278   4.378 -0.3185  0.3941  0.2492
18551TIP3    H177144   4.758   2.248   4.465 -1.1578  1.0771  0.7726
18551TIP3    H277145   4.810   2.298   4.332  0.1746 -0.7498  0.5867
18552TIP3   OH277146   1.985   2.327  13.495  0.5210  0.6601  0.8494
18552TIP3    H177147   1.918   2.394  13.484 -2.0256 -2.0676 -1.1096
18552TIP3    H277148   1.953   2.272  13.566  0.8071 -0.4893  0.1049
18553TIP3   OH277149   2.268   6.717  16.521 -0.3152 -0.1897  0.5676
18553TIP3    H177150   2.260   6.638  16.468  1.0663  0.1412 -0.1913
18553TIP3    H277151   2.178   6.746  16.537 -0.7715 -0.8421 -0.7830
18554TIP3   OH277152   4.295   2.170  13.267 -0.2297  0.2739  0.9346
18554TIP3    H177153   4.204   2.140  13.274 -0.9123  2.1793  0.4729
18554TIP3    H277154   4.288   2.264  13.251  1.8002  0.2856 -0.0419
18555TIP3   OH277155   2.864   5.552  16.458  0.0613 -0.6835  0.2869
18555TIP3    H177156   2.957   5.546  16.435  0.0843 -1.8683  0.6667
18555TIP3    H277157   2.818   5.537  16.376  0.2082  0.6964 -0.0574
18556TIP3   OH277158   4.337   1.155   3.113 -0.4149  0.5908 -0.6696
18556TIP3    H177159   4.303   1.167   3.025  1.1626  0.5601 -1.2910
18556TIP3    H277160   4.387   1.234   3.132  0.2170  0.1006 -0.2500
18557TIP3   OH277161   4.198   1.514   1.832 -0.2607  0.1501  0.6520
18557TIP3    H177162   4.235   1.480   1.751 -0.7347  0.3795  0.3354
18557TIP3    H277163   4.112   1.472   1.839 -1.1914  1.8650 -0.1517
18558TIP3   OH277164   5.844   0.710   5.738  0.5588 -0.0025  0.4063
18558TIP3    H177165   5.915   0.771   5.719 -0.0663  0.7138  0.3428
18558TIP3    H277166   5.888   0.628   5.759  1.3724  0.1427 -0.6793
18559TIP3   OH277167   6.358   3.045   4.410 -0.2822 -0.3869  0.2507
18559TIP3    H177168   6.440   2.996   4.401  0.2108  0.1901  1.5274
18559TIP3    H277169   6.331   3.029   4.500 -0.2935  1.4310  0.5742
18560TIP3   OH277170   1.627   5.412   6.286  0.8183  0.1720  0.2722
18560TIP3    H177171   1.596   5.324   6.263 -2.2449  1.0726  0.7449
18560TIP3    H277172   1.689   5.397   6.357  0.4409 -1.6255  0.2476
18561TIP3   OH277173   5.421   0.363   4.556 -0.2614 -0.0538 -0.0109
18561TIP3    H177174   5.328   0.357   4.578 -0.0891  0.6348  0.9259
18561TIP3    H277175   5.429   0.444   4.505  0.0823  0.7682  1.3205
18562TIP3   OH277176   5.283   5.838   4.677  0.8032  0.3645 -0.0700
18562TIP3    H177177   5.340   5.870   4.607  0.9754 -1.3692 -0.7580
18562TIP3    H277178   5.337   5.777   4.726 -0.3916 -1.2232 -0.6658
18563TIP3   OH277179   0.052   6.348  15.250  0.5934  0.4277  0.1542
18563TIP3    H177180   0.069   6.412  15.320 -0.3100 -0.3861  1.1334
18563TIP3    H277181   0.060   6.263  15.293  2.2757 -0.1571 -1.2515
18564TIP3   OH277182   6.272   6.191   1.243  0.3436 -0.6673  0.5521
18564TIP3    H177183   6.326   6.179   1.321 -0.7820  2.0030  1.8198
18564TIP3    H277184   6.331   6.235   1.181  0.6652 -1.0181  0.6036
18565TIP3   OH277185   2.063   0.163  12.185  0.0981 -0.4147 -0.0764
18565TIP3    H177186   2.108   0.242  12.214 -0.3668 -0.2687  0.2484
18565TIP3    H277187   1.970   0.182  12.200 -0.0957 -0.6046 -0.9954
18566TIP3   OH277188   1.282   2.483  11.913 -0.5541 -0.0052  0.2631
18566TIP3    H177189   1.341   2.544  11.870 -0.8389  0.9454  1.2048
18566TIP3    H277190   1.318   2.473  12.001 -0.7549 -0.8678  0.2578
18567TIP3   OH277191   4.759   4.892   1.087  0.2829 -0.4997 -0.6481
18567TIP3    H177192   4.674   4.859   1.116  0.3954 -0.3889 -0.1895
18567TIP3    H277193   4.738   4.964   1.028  0.0250 -1.7507 -2.1200
18568TIP3   OH277194   4.809   1.396   3.019  0.0774 -0.3301 -0.3451
18568TIP3    H177195   4.806   1.453   2.942 -0.1952  0.9399  0.6025
18568TIP3    H277196   4.885   1.426   3.068 -1.2139  0.5504  1.1691
18569TIP3   OH277197   4.915   2.161   4.904 -0.1289  0.2463 -0.2136
18569TIP3    H177198   4.944   2.096   4.841  0.0257 -0.3221  0.4314
18569TIP3    H277199   4.973   2.235   4.890  1.2369 -0.6400  0.6218
18570TIP3   OH277200   1.261   6.207   3.422 -0.0549  0.3556 -1.0863
18570TIP3    H177201   1.325   6.178   3.356 -0.1127  0.7533 -1.3159
18570TIP3    H277202   1.177   6.178   3.388  0.0451 -0.5866 -0.5558
18571TIP3   OH277203   0.686   3.073  14.288  0.3689 -0.5588 -0.2237
18571TIP3    H177204   0.735   3.019  14.350  1.5163 -1.0913 -1.5847
18571TIP3    H277205   0.747   3.089  14.216 -0.3831  1.4835 -0.4434
18572TIP3   OH277206   5.016   3.485   3.687 -0.0708  0.2646 -0.4963
18572TIP3    H177207   5.068   3.489   3.767  0.3385  1.4290 -0.7988
18572TIP3    H277208   4.964   3.405   3.695 -1.5521  1.4144  1.8544
18573TIP3   OH277209   0.501   3.646  10.942 -0.3893  0.2504  0.0989
18573TIP3    H177210   0.571   3.691  10.894 -0.0034  1.2293  1.5707
18573TIP3    H277211   0.435   3.627  10.876  1.4012 -1.0065 -1.4112
18574TIP3   OH277212   6.740   3.550  15.195 -0.0792  0.1286  0.0998
18574TIP3    H177213   6.800   3.492  15.240  1.2277  1.2416 -0.1777
18574TIP3    H277214   6.653   3.514  15.214  0.5833 -0.7682  1.5354
18575TIP3   OH277215   2.162   5.783  16.440  0.3499 -0.1068  0.1322
18575TIP3    H177216   2.151   5.699  16.484  2.4445  0.2799  1.4363
18575TIP3    H277217   2.107   5.844  16.490  1.6126  0.0326  1.3726
18576TIP3   OH277218   5.841   5.992   3.544  0.2579  0.3096  0.2485
18576TIP3    H177219   5.887   5.909   3.558  2.2221  1.5575  1.4387
18576TIP3    H277220   5.900   6.058   3.581 -1.1850  2.2545 -0.8792
18577TIP3   OH277221   1.821   5.003   3.621  0.5113  0.3704  0.3558
18577TIP3    H177222   1.727   4.991   3.634  0.5228 -0.7983 -0.6035
18577TIP3    H277223   1.829   5.091   3.584 -0.1698  0.6227  0.8117
18578TIP3   OH277224   2.353   4.989  11.650  0.4778 -0.0739  0.1105
18578TIP3    H177225   2.407   4.931  11.704  1.1236  0.8893  0.5193
18578TIP3    H277226   2.385   5.077  11.670  0.1984  0.3543 -1.2645
18579TIP3   OH277227   2.928   3.070   5.931  0.0275 -0.2607 -0.1644
18579TIP3    H177228   2.901   2.980   5.952  0.5084 -0.3117  0.2282
18579TIP3    H277229   2.992   3.093   5.998 -0.8074  0.7333  0.3032
18580TIP3   OH277230   6.155   5.738   0.504 -0.0813  0.4405 -0.1671
18580TIP3    H177231   6.084   5.733   0.439  0.2565  1.0753 -0.5860
18580TIP3    H277232   6.229   5.695   0.462 -0.4100 -0.8966  0.5590
18581TIP3   OH277233   4.598   0.193  15.058  0.0812  0.2637 -0.0847
18581TIP3    H177234   4.519   0.243  15.078  0.1385 -0.1936  1.3649
18581TIP3    H277235   4.628   0.227  14.974 -1.3489  0.8215 -0.3796
18582TIP3   OH277236   2.299   1.765  10.144  0.0896  0.1213 -0.1671
18582TIP3    H177237   2.229   1.722  10.194  0.0950 -0.8760 -1.0019
18582TIP3    H277238   2.363   1.695  10.128 -0.8447 -0.0828 -3.2794
18583TIP3   OH277239   2.281   1.129  13.275 -0.3768  0.3131 -0.8420
18583TIP3    H177240   2.225   1.095  13.345  1.3105  3.3670  2.1159
18583TIP3    H277241   2.341   1.057  13.255 -0.8020 -0.5630  0.9551
18584TIP3   OH277242   2.543   4.472   0.909 -0.1453 -0.3834 -0.4726
18584TIP3    H177243   2.627   4.428   0.895  0.0793  0.1774 -0.9047
18584TIP3    H277244   2.519   4.449   0.998 -0.8197 -2.7088 -1.2224
18585TIP3   OH277245   1.095   1.114  12.815  0.2706  0.0940  0.2737
18585TIP3    H177246   1.095   1.027  12.855  1.7653 -1.3173 -2.5784
18585TIP3    H277247   1.037   1.105  12.739  0.1235  1.6973  0.1815
18586TIP3   OH277248   4.116   0.020   1.725  0.2670  0.2867 -0.1362
18586TIP3    H177249   4.050   0.037   1.792 -0.1837 -0.7807 -0.2974
18586TIP3    H277250   4.199   0.018   1.772  0.0052 -0.0010  0.3092
18587TIP3   OH277251   1.539   6.386   3.435  0.0313 -0.0016  0.2949
18587TIP3    H177252   1.605   6.338   3.384 -0.9211 -0.8265 -0.1690
18587TIP3    H277253   1.486   6.431   3.369 -1.4840 -1.4294  0.5181
18588TIP3   OH277254   3.981   4.004  17.011 -0.1456  0.9671 -0.5849
18588TIP3    H177255   4.006   4.095  17.026  1.1836  0.4693  0.3447
18588TIP3    H277256   4.058   3.965  16.970  0.8742 -0.7083  2.7124
18589TIP3   OH277257   3.707   2.110   2.240  0.5327 -0.6600 -0.4740
18589TIP3    H177258   3.718   2.028   2.288 -1.2430  0.3269  1.7032
18589TIP3    H277259   3.777   2.166   2.272  0.2808 -0.5216 -0.1601
18590TIP3   OH277260   5.952   0.034  17.206  0.8877  0.0036 -0.1394
18590TIP3    H177261   5.949   0.029  17.302 -1.0485 -0.2431 -0.1870
18590TIP3    H277262   5.923   0.123  17.185  0.7171 -0.1360 -0.5113
18591TIP3   OH277263   0.748   0.016   3.222 -0.1680  0.1245  0.1989
18591TIP3    H177264   0.729  -0.032   3.303  1.9868 -2.6198 -0.8330
18591TIP3    H277265   0.722  -0.044   3.152  0.1523  1.5228 -1.1495
18592TIP3   OH277266   6.541   0.257  11.306 -0.4337 -0.3109  0.2913
18592TIP3    H177267   6.620   0.211  11.277 -0.1009 -0.4958  1.4651
18592TIP3    H277268   6.488   0.264  11.227  2.0823  2.6143 -1.2446
18593TIP3   OH277269   1.221   6.104  14.548  0.5183  0.0316  0.0302
18593TIP3    H177270   1.142   6.120  14.495  0.2517  0.2598  0.4924
18593TIP3    H277271   1.207   6.017  14.586 -0.0446  0.5605  1.0441
18594TIP3   OH277272   2.563   4.508   3.862 -0.0475  0.1656 -0.5003
18594TIP3    H177273   2.584   4.469   3.777 -0.7311  1.6326 -1.3618
18594TIP3    H277274   2.646   4.547   3.890 -0.4362  1.9010 -1.7081
18595TIP3   OH277275   0.911   3.443   4.545  0.1975  0.3543 -0.1383
18595TIP3    H177276   0.939   3.474   4.459 -2.3251  0.7648 -0.8823
18595TIP3    H277277   0.865   3.360   4.526 -0.1847  0.3380  0.8335
18596TIP3   OH277278   4.579   3.907  15.094  0.5343 -0.4929  0.0608
18596TIP3    H177279   4.656   3.851  15.085  0.8876 -0.1173  0.7423
18596TIP3    H277280   4.531   3.894  15.012  0.6561 -1.7318  0.1797
18597TIP3   OH277281   2.216   1.481  13.527 -0.2825  0.0141 -0.3888
18597TIP3    H177282   2.204   1.406  13.586 -0.0597  0.3840  0.1372
18597TIP3    H277283   2.164   1.459  13.450 -0.4670 -0.5470 -0.1137
18598TIP3   OH277284   3.801   1.993  14.277 -0.2706  1.3646 -0.0821
18598TIP3    H177285   3.815   1.968  14.369 -1.5031 -0.9077 -0.4589
18598TIP3    H277286   3.866   2.061  14.260  1.0778  0.6573  2.0097
18599TIP3   OH277287   6.497   5.746   0.134 -0.1018 -0.2606  0.3069
18599TIP3    H177288   6.581   5.735   0.179  0.7870  2.2944 -0.6467
18599TIP3    H277289   6.447   5.806   0.189 -1.7473 -2.5434  1.3801
18600TIP3   OH277290   5.509   6.787   2.206 -0.0399  0.4174 -0.0244
18600TIP3    H177291   5.546   6.758   2.122  2.1024  0.5114  0.8354
18600TIP3    H277292   5.455   6.863   2.183  0.7981  0.6594 -1.2831
18601TIP3   OH277293   2.046   0.849  11.725 -0.1133  0.0853 -0.2431
18601TIP3    H177294   2.036   0.843  11.630  0.3669  0.3214 -0.3102
18601TIP3    H277295   1.957   0.841  11.759 -0.4383  1.2457 -0.7784
18602TIP3   OH277296   2.297   6.143   0.349  0.5713  1.0072 -0.0385
18602TIP3    H177297   2.272   6.147   0.256  0.6080 -1.0261 -0.1615
18602TIP3    H277298   2.219   6.111   0.394  1.7396 -1.9189  0.0486
18603TIP3   OH277299   2.983   3.533  14.683  0.0330 -0.4673  0.0178
18603TIP3    H177300   2.916   3.499  14.743 -0.5445 -0.6232 -0.7160
18603TIP3    H277301   2.946   3.521  14.596  0.2390  1.1194 -0.3102
18604TIP3   OH277302   6.547   5.637   6.280 -0.1040 -0.0736 -0.1070
18604TIP3    H177303   6.576   5.727   6.267  0.9078 -0.3004  0.4911
18604TIP3    H277304   6.627   5.585   6.275 -0.6698 -0.9327 -0.3674
18605TIP3   OH277305   5.198   2.430  16.332  0.2036 -0.2967 -0.6496
18605TIP3    H177306   5.145   2.370  16.280  0.6176 -0.0792 -1.3385
18605TIP3    H277307   5.271   2.453  16.275  0.4397  0.2896 -0.1278
18606TIP3   OH277308   1.351   6.456  13.002 -0.6427  0.1024  0.2310
18606TIP3    H177309   1.444   6.436  13.011 -0.6213  0.5738  1.1985
18606TIP3    H277310   1.328   6.428  12.914  0.5987  0.7215 -0.2916
18607TIP3   OH277311   4.521   0.910  13.738  0.1815  0.5053 -0.4168
18607TIP3    H177312   4.572   0.962  13.800  1.0298 -2.0274  1.0697
18607TIP3    H277313   4.521   0.963  13.658  1.5895  2.4617  0.8172
18608TIP3   OH277314   5.828   6.528  15.837 -0.6173  0.9433 -0.3350
18608TIP3    H177315   5.919   6.507  15.859 -0.3894  0.7254 -1.4720
18608TIP3    H277316   5.785   6.442  15.830 -0.5728  0.9908 -1.2128
18609TIP3   OH277317   0.588   6.748   4.588  0.2317 -0.2316  0.1689
18609TIP3    H177318   0.497   6.723   4.604  0.0638  0.0846 -0.2684
18609TIP3    H277319   0.591   6.766   4.494  0.2951  1.6434  0.5223
18610TIP3   OH277320   3.730   3.491  16.632  0.7579  0.2318  0.1395
18610TIP3    H177321   3.742   3.446  16.549 -0.7284  0.3334 -0.1312
18610TIP3    H277322   3.718   3.583  16.608  1.4657  0.4382  0.5492
18611TIP3   OH277323   5.140   1.392  14.877 -0.2213 -0.1719 -0.2583
18611TIP3    H177324   5.105   1.324  14.934  0.2065 -1.0387 -1.0178
18611TIP3    H277325   5.144   1.352  14.790  2.4749 -0.0671 -0.2263
18612TIP3   OH277326   1.140   5.756  17.063 -0.1405  0.7912  0.3919
18612TIP3    H177327   1.159   5.833  17.009 -1.1689  1.0402  0.3862
18612TIP3    H277328   1.223   5.736  17.106  0.5620  0.8991 -0.8867
18613TIP3   OH277329   3.410   4.508  16.810 -0.1661 -0.2433  0.2693
18613TIP3    H177330   3.428   4.476  16.898 -0.2545 -0.0061  0.3721
18613TIP3    H277331   3.484   4.566  16.790 -0.5958  0.3918  0.5261
18614TIP3   OH277332   1.978   0.879   1.407  0.4470  0.0389 -0.2567
18614TIP3    H177333   2.055   0.837   1.446  0.6628  0.5744 -0.1063
18614TIP3    H277334   1.947   0.815   1.342  1.6290  0.2397 -1.0461
18615TIP3   OH277335   6.762   6.334  13.460 -0.7122  0.7793  0.5964
18615TIP3    H177336   6.733   6.416  13.419 -0.8471  0.3906 -0.0918
18615TIP3    H277337   6.682   6.282  13.469 -0.3428 -0.0718 -0.7981
18616TIP3   OH277338   0.140   4.151  13.881 -0.1932 -0.3536 -0.2147
18616TIP3    H177339   0.217   4.122  13.930 -1.3170 -2.1501  0.5668
18616TIP3    H277340   0.114   4.233  13.923 -0.4696 -1.2893  1.5020
18617TIP3   OH277341   3.097   6.625  13.976 -0.6964  0.1020 -0.1386
18617TIP3    H177342   3.144   6.697  13.933 -2.0550  2.2705  1.8807
18617TIP3    H277343   3.146   6.547  13.951 -0.5769  1.3785 -4.3704
18618TIP3   OH277344   5.635   5.534   6.109 -0.4988 -0.2535 -0.1168
18618TIP3    H177345   5.684   5.565   6.033 -1.0821  0.1903 -0.3176
18618TIP3    H277346   5.668   5.585   6.182 -1.4861  0.8968 -0.4520
18619TIP3   OH277347   5.959   4.910  11.794  0.4737  0.1282 -0.0526
18619TIP3    H177348   6.006   4.962  11.860 -1.2362 -0.4215  1.6444
18619TIP3    H277349   6.023   4.844  11.766  1.3853  0.6760  0.7016
18620TIP3   OH277350   1.084   1.896   2.087 -0.3428  0.4347  0.0684
18620TIP3    H177351   1.062   1.961   2.153 -0.5569 -0.7055  1.1313
18620TIP3    H277352   1.078   1.943   2.004 -1.9248  1.4081  0.7071
18621TIP3   OH277353   4.417   5.617   0.386  0.2569 -0.3596 -0.0516
18621TIP3    H177354   4.375   5.625   0.300  0.6436  0.2507 -0.1793
18621TIP3    H277355   4.380   5.689   0.437  1.4970  0.4578 -0.3040
18622TIP3   OH277356   0.319   5.988  15.637  0.1519 -0.0592  0.7546
18622TIP3    H177357   0.269   6.070  15.640  0.6549  0.3171 -0.7315
18622TIP3    H277358   0.340   5.969  15.728 -0.1522  1.3604  1.1295
18623TIP3   OH277359   2.120   2.768   1.739  0.9537  0.2804 -0.0447
18623TIP3    H177360   2.208   2.785   1.773  0.1844 -1.0875  2.8686
18623TIP3    H277361   2.121   2.675   1.716  0.8464  0.7278 -1.8738
18624TIP3   OH277362   2.007   6.170   2.716  0.0231 -0.7593  0.4706
18624TIP3    H177363   2.098   6.195   2.703  0.5877 -2.2369  1.3682
18624TIP3    H277364   1.995   6.092   2.661 -1.0737  0.1552 -0.6249
18625TIP3   OH277365   1.430   1.398   5.809  0.7273 -0.0570 -0.4857
18625TIP3    H177366   1.501   1.453   5.844  0.6047  1.4353 -2.4783
18625TIP3    H277367   1.458   1.377   5.720 -0.2465 -1.4402 -0.4788
18626TIP3   OH277368   1.341   0.735  13.775  0.4754  0.7658  0.0111
18626TIP3    H177369   1.330   0.805  13.710  1.0216  0.0847 -0.8337
18626TIP3    H277370   1.306   0.771  13.856  0.4550  1.8999 -0.4979
18627TIP3   OH277371   2.635   5.373   6.030 -0.0366  0.5785 -0.8019
18627TIP3    H177372   2.710   5.316   6.013 -0.0815 -0.3215  1.7449
18627TIP3    H277373   2.670   5.443   6.086 -1.3834 -0.8129  1.8942
18628TIP3   OH277374   3.853   1.909  12.727  0.5633 -0.9414  0.4386
18628TIP3    H177375   3.911   1.947  12.661  0.3151  0.7347  1.1437
18628TIP3    H277376   3.766   1.912  12.688  0.4238  0.0049  0.8045
18629TIP3   OH277377   2.045   6.231  11.981 -0.0879  0.0814 -0.2409
18629TIP3    H177378   2.042   6.302  11.916 -0.0821 -0.2027 -0.5524
18629TIP3    H277379   2.060   6.276  12.064 -0.8608  0.5044 -0.3310
18630TIP3   OH277380   1.318   1.957   3.081  0.0973  0.8027  0.0358
18630TIP3    H177381   1.278   1.870   3.080  0.4290  0.6369  0.8616
18630TIP3    H277382   1.322   1.980   3.173  1.7491  0.8935 -0.0567
18631TIP3   OH277383   5.866   4.358   1.189 -0.5927 -0.1589 -0.5368
18631TIP3    H177384   5.925   4.422   1.149 -1.8864  0.0422 -2.2129
18631TIP3    H277385   5.884   4.363   1.283 -0.1738  2.1693 -0.7044
18632TIP3   OH277386   6.197   2.070   3.865 -0.0079 -0.0897  0.0896
18632TIP3    H177387   6.194   1.977   3.845 -0.1804  0.0623 -0.5951
18632TIP3    H277388   6.110   2.102   3.842 -0.8555 -0.2539  2.7960
18633TIP3   OH277389   0.020   0.565  11.860 -0.1847 -0.2808  0.1840
18633TIP3    H177390  -0.013   0.647  11.826  1.4691  0.6988  0.8813
18633TIP3    H277391  -0.003   0.567  11.953  1.2782  0.1463  0.5494
18634TIP3   OH277392   0.776   2.206   4.134  0.1307  0.1749  0.1582
18634TIP3    H177393   0.763   2.230   4.226  0.3611  2.5604 -0.3850
18634TIP3    H277394   0.867   2.231   4.116  0.1528 -0.4934 -0.6547
18635TIP3   OH277395   4.016   5.146   3.082  0.2915 -0.2971 -0.3661
18635TIP3    H177396   3.925   5.122   3.100  0.2029  0.6288  0.4496
18635TIP3    H277397   4.062   5.129   3.164  0.8304 -0.5932 -0.7245
18636TIP3   OH277398   4.586   2.111  10.669 -0.2486  0.5153  0.7940
18636TIP3    H177399   4.593   2.026  10.625  1.2400  1.8080 -1.5787
18636TIP3    H277400   4.491   2.127  10.674 -0.6200 -1.9698  2.7523
18637TIP3   OH277401   5.080   4.826  14.721  0.9808  0.0312  0.2858
18637TIP3    H177402   5.112   4.800  14.635 -1.7854  2.1163 -1.4851
18637TIP3    H277403   4.989   4.797  14.723  0.8648  0.4262  2.3222
18638TIP3   OH277404   5.628   0.476   5.425  0.1185  0.0673 -0.4558
18638TIP3    H177405   5.690   0.539   5.462 -2.9214  2.9382 -0.0447
18638TIP3    H277406   5.682   0.403   5.395  3.4759  1.5915  1.6891
18639TIP3   OH277407   4.861   3.850   4.883 -0.0190  0.2865  0.3166
18639TIP3    H177408   4.904   3.848   4.797 -1.2998 -0.7779 -0.3086
18639TIP3    H277409   4.919   3.798   4.940 -0.0659 -0.4784 -0.3276
18640TIP3   OH277410   3.397   6.112  14.155 -0.6040  0.2012  0.1254
18640TIP3    H177411   3.418   6.019  14.163 -0.8708  0.0798 -0.5067
18640TIP3    H277412   3.305   6.113  14.129 -0.6117  0.6418  0.1740
18641TIP3   OH277413   1.003   4.042   2.341  0.3575 -0.1070  0.3843
18641TIP3    H177414   0.935   4.003   2.285 -1.3663  0.2269  2.1844
18641TIP3    H277415   1.062   3.969   2.362 -0.6218 -0.8725  0.5113
18642TIP3   OH277416   0.084   3.243  10.409  0.0183  0.0513 -0.3493
18642TIP3    H177417   0.015   3.222  10.347  0.7154 -1.1586 -0.7399
18642TIP3    H277418   0.063   3.331  10.440 -0.6637  0.4259 -1.8365
18643TIP3   OH277419   3.581   2.925   4.336  0.2359 -0.1556  0.2922
18643TIP3    H177420   3.607   2.848   4.286  0.6792 -0.0124  0.2957
18643TIP3    H277421   3.656   2.984   4.329 -0.8958  1.1152 -1.4058
18644TIP3   OH277422   0.070   2.047   5.271  0.9721  0.0993 -0.0937
18644TIP3    H177423   0.075   2.014   5.182 -1.0497 -0.0778 -0.1542
18644TIP3    H277424   0.009   1.989   5.316  0.4262  1.3692  0.8586
18645TIP3   OH277425   0.711   3.707  11.408  0.2465 -0.0684 -1.0330
18645TIP3    H177426   0.709   3.794  11.447 -0.0529 -0.2868 -0.5609
18645TIP3    H277427   0.802   3.679  11.416  0.1513 -0.1760 -0.3559
18646TIP3   OH277428   5.171   3.675   1.725 -0.2903  0.0566 -0.3665
18646TIP3    H177429   5.131   3.698   1.809  1.8332  0.4442  0.5570
18646TIP3    H277430   5.126   3.730   1.662 -1.7625 -0.0835  0.5284
18647TIP3   OH277431   1.473   2.900   5.947 -0.5440  0.1731 -0.4957
18647TIP3    H177432   1.542   2.938   5.891 -0.9033  0.4152 -0.7766
18647TIP3    H277433   1.520   2.863   6.021 -0.0412 -0.3123 -1.0454
18648TIP3   OH277434   4.775   5.819  14.651 -0.1101  0.0535 -0.0054
18648TIP3    H177435   4.813   5.789  14.568 -1.7110 -0.9831 -0.3840
18648TIP3    H277436   4.813   5.906  14.664  1.6207 -0.5628 -0.8491
18649TIP3   OH277437   2.230   4.935  12.613 -0.2308 -0.0042  0.4850
18649TIP3    H177438   2.322   4.914  12.596 -0.1495 -0.5693  1.5326
18649TIP3    H277439   2.184   4.852  12.600 -0.3957 -0.0464  1.3235
18650TIP3   OH277440   5.556   3.692  12.222  1.4743  0.0769 -0.2687
18650TIP3    H177441   5.535   3.640  12.145  0.5724  0.1450 -0.0658
18650TIP3    H277442   5.486   3.757  12.227  1.6410  0.2009  0.4920
18651TIP3   OH277443   1.517   1.477  14.163 -0.3085  0.2997  0.7200
18651TIP3    H177444   1.435   1.526  14.151 -0.3149  0.1074 -0.0462
18651TIP3    H277445   1.496   1.411  14.229 -0.2315  1.4913  1.9485
18652TIP3   OH277446   4.982   1.431   2.628  0.1735 -0.2740  0.6635
18652TIP3    H177447   5.022   1.352   2.592 -0.5018  0.3113 -1.4631
18652TIP3    H277448   5.021   1.502   2.578 -1.5701  0.4977  0.3677
18653TIP3   OH277449   5.669   2.934  16.365  0.4495 -0.2163  0.5029
18653TIP3    H177450   5.597   2.875  16.346  0.7923 -0.6801  0.6205
18653TIP3    H277451   5.710   2.897  16.444  0.1494  0.6548  1.0626
18654TIP3   OH277452   4.736   3.056   6.867  0.1879  0.2598 -0.3354
18654TIP3    H177453   4.819   3.103   6.877  0.3189 -0.3775  1.8300
18654TIP3    H277454   4.758   2.965   6.881 -0.6484 -0.0964 -1.2331
18655TIP3   OH277455   2.838   5.636   3.759  0.7005  0.0033 -0.1075
18655TIP3    H177456   2.762   5.634   3.817  0.1594 -1.9206 -0.8696
18655TIP3    H277457   2.889   5.711   3.789 -1.4574  1.2741  0.4628
18656TIP3   OH277458   1.948   0.132  11.302 -0.1368 -0.0420  0.0230
18656TIP3    H177459   2.033   0.173  11.284 -0.2640 -0.3718 -1.3801
18656TIP3    H277460   1.909   0.119  11.216 -2.8630  2.7152  0.7335
18657TIP3   OH277461   5.217   2.361  12.351  0.5156 -0.1758 -0.6145
18657TIP3    H177462   5.229   2.347  12.445 -0.8873 -0.4631 -0.4603
18657TIP3    H277463   5.151   2.296  12.325  1.7557 -0.8996 -2.0458
18658TIP3   OH277464   1.844   3.952  14.968 -0.1432 -0.1072 -0.1024
18658TIP3    H177465   1.753   3.924  14.963  0.8337 -4.0966  1.5216
18658TIP3    H277466   1.892   3.886  14.918  2.0122  0.8028  0.6895
18659TIP3   OH277467   0.630   4.662  11.031  0.3501 -0.4325  0.0603
18659TIP3    H177468   0.643   4.681  10.938 -2.2969  1.4480  0.0213
18659TIP3    H277469   0.688   4.723  11.076  1.1176 -0.8692 -0.3233
18660TIP3   OH277470   1.596   1.606   5.928  0.4545  0.5115 -0.9246
18660TIP3    H177471   1.625   1.620   6.019  0.0262  0.7516 -0.8220
18660TIP3    H277472   1.561   1.691   5.901  2.1068  0.8980 -1.8837
18661TIP3   OH277473   2.023   6.714  15.422  0.1773  0.0359 -0.5147
18661TIP3    H177474   2.109   6.693  15.458  0.9130 -0.8525 -2.7077
18661TIP3    H277475   2.041   6.749  15.335 -1.5989  1.5399 -0.3134
18662TIP3   OH277476   1.880   2.319   2.965  0.1287  0.9008  0.3062
18662TIP3    H177477   1.836   2.400   2.989 -0.5238  0.9954 -1.1650
18662TIP3    H277478   1.900   2.329   2.872  1.0241 -0.1786  0.3655
18663TIP3   OH277479   4.141   5.024   5.102 -0.1329  0.3140  0.3897
18663TIP3    H177480   4.233   5.001   5.091 -0.4864 -0.6915 -0.4777
18663TIP3    H277481   4.112   5.050   5.015 -0.5581  1.0705  0.7522
18664TIP3   OH277482   5.935   3.182  16.661  0.1452 -0.3992 -0.1983
18664TIP3    H177483   5.850   3.224  16.678  0.3000 -0.6224  1.1076
18664TIP3    H277484   5.960   3.143  16.744  0.8580 -1.5769 -0.9556
18665TIP3   OH277485   5.688   2.560  10.496  0.5089 -0.1635  0.0243
18665TIP3    H177486   5.669   2.622  10.566 -0.6199 -0.1743 -0.2730
18665TIP3    H277487   5.716   2.481  10.542  0.7388  0.1542  0.4372
18666TIP3   OH277488   1.360   6.759   0.140  0.0074  0.3764 -0.7974
18666TIP3    H177489   1.324   6.838   0.099 -0.1016  0.5819 -0.3080
18666TIP3    H277490   1.340   6.769   0.233 -0.5285 -0.5136 -0.8180
18667TIP3   OH277491   1.011   2.256   0.557  0.5407 -0.0541  0.6061
18667TIP3    H177492   1.008   2.243   0.651 -0.2443 -2.4205  0.2906
18667TIP3    H277493   0.930   2.304   0.537 -0.1690 -1.0850  0.9434
18668TIP3   OH277494   6.066   2.612   4.556  0.2943  0.7323  0.2847
18668TIP3    H177495   6.035   2.569   4.476 -0.4598  0.4186  0.7418
18668TIP3    H277496   6.149   2.569   4.576  0.6449  1.0275 -0.5020
18669TIP3   OH277497   5.873   5.044  12.086  0.1133  0.7084  0.5557
18669TIP3    H177498   5.953   4.992  12.091  0.7395  1.8351  2.5730
18669TIP3    H277499   5.897   5.120  12.034 -0.9821 -1.2549 -2.9764
18670TIP3   OH277500   5.623   4.197  12.139  0.0026  0.1822 -0.3740
18670TIP3    H177501   5.709   4.235  12.124 -0.0514  1.0781  1.5337
18670TIP3    H277502   5.569   4.269  12.170 -1.0724 -0.6673 -0.2188
18671TIP3   OH277503   6.663   5.191   0.523  0.7978  0.7600  0.1138
18671TIP3    H177504   6.590   5.194   0.584 -0.3296  1.6533 -1.2469
18671TIP3    H277505   6.725   5.256   0.555 -0.6434  2.5858 -0.7378
18672TIP3   OH277506   4.497   2.424   2.165 -0.5912  0.5833  0.4572
18672TIP3    H177507   4.520   2.411   2.257 -1.3327  0.5189  0.6401
18672TIP3    H277508   4.469   2.516   2.160  0.4878  0.8976  0.0670
18673TIP3   OH277509   6.750   2.787  13.682  0.5506 -0.1738  0.0451
18673TIP3    H177510   6.759   2.703  13.637 -1.2423 -0.0294 -0.6420
18673TIP3    H277511   6.710   2.845  13.617 -1.3395  0.2652  1.5623
18674TIP3   OH277512   5.427   5.943   1.335  0.2598  0.0843  0.0931
18674TIP3    H177513   5.511   5.930   1.379  1.1918 -1.0481 -1.9363
18674TIP3    H277514   5.382   5.859   1.341  0.9831 -0.5202 -2.2210
18675TIP3   OH277515   1.770   6.377  16.190 -0.2307  0.3098 -0.0268
18675TIP3    H177516   1.765   6.309  16.123 -0.4897  0.6221 -0.3304
18675TIP3    H277517   1.678   6.398  16.210 -0.1540 -0.0052  0.6555
18676TIP3   OH277518   6.112   0.951   2.110 -0.0108  0.4663 -0.1336
18676TIP3    H177519   6.063   0.869   2.116 -2.8828  2.1961  0.9559
18676TIP3    H277520   6.153   0.961   2.196 -0.2416  0.5040 -0.0270
18677TIP3   OH277521   0.088   2.389  15.756 -0.2407 -0.2343  0.2286
18677TIP3    H177522   0.089   2.445  15.833 -0.7173  0.0527  0.0320
18677TIP3    H277523   0.020   2.323  15.774 -1.3012  0.6319 -0.4941
18678TIP3   OH277524   6.313   0.592  15.734  0.4107 -0.1139 -0.0908
18678TIP3    H177525   6.297   0.593  15.828  0.0279 -1.5052 -0.1283
18678TIP3    H277526   6.406   0.612  15.725  0.3794  0.3220  0.5623
18679TIP3   OH277527   3.891   0.840  15.534 -0.4813  0.7773 -0.3329
18679TIP3    H177528   3.813   0.863  15.584  0.1256  0.4428  0.7892
18679TIP3    H277529   3.960   0.834  15.599  0.2014 -0.2738 -1.1289
18680TIP3   OH277530   3.826   0.302   1.235  0.0366 -1.0270  0.0994
18680TIP3    H177531   3.759   0.326   1.171  1.4016 -2.1088 -1.7562
18680TIP3    H277532   3.835   0.208   1.227 -0.1959 -1.2703  2.3327
18681TIP3   OH277533   0.020   2.076   5.889  0.0676  0.3412  0.2384
18681TIP3    H177534   0.031   2.107   5.979 -2.2802 -1.6403  1.2904
18681TIP3    H277535   0.046   1.984   5.893 -0.3627  0.1623 -1.0251
18682TIP3   OH277536   4.930   6.156   4.327  0.4267  0.1731 -0.6176
18682TIP3    H177537   4.865   6.122   4.388  0.3696  0.9762 -0.2304
18682TIP3    H277538   5.002   6.093   4.331  0.5584  0.3801  0.5116
18683TIP3   OH277539   6.020   3.584  14.705  0.0852  0.3962 -0.0721
18683TIP3    H177540   5.943   3.631  14.673  0.9469  2.2280  0.4403
18683TIP3    H277541   6.040   3.627  14.788  0.1366 -1.7734  1.0613
18684TIP3   OH277542   0.507   3.788  13.795  0.3156  0.3961  0.3310
18684TIP3    H177543   0.526   3.745  13.712  0.7848  0.1592  0.5569
18684TIP3    H277544   0.543   3.729  13.861  0.0521  0.6428  0.6950
18685TIP3   OH277545   6.683   6.164   4.298 -0.0645  0.5291 -0.1861
18685TIP3    H177546   6.601   6.167   4.249  0.3991  1.6336 -0.9071
18685TIP3    H277547   6.750   6.147   4.231  0.3401 -0.0246  0.3498
18686TIP3   OH277548   6.035   3.945  12.364  0.0457 -0.2002 -0.1472
18686TIP3    H177549   6.023   3.923  12.271 -1.9194 -0.2620  0.0870
18686TIP3    H277550   6.084   3.872  12.400  0.8127 -0.1864 -1.1340
18687TIP3   OH277551   2.384   3.953   4.568 -0.1066 -0.0932  0.3587
18687TIP3    H177552   2.297   3.971   4.604 -0.1997  0.0217  0.0746
18687TIP3    H277553   2.443   3.965   4.643 -0.3466 -0.3047  0.5852
18688TIP3   OH277554   5.277   3.194   0.122  0.2337 -0.1955 -0.1914
18688TIP3    H177555   5.192   3.236   0.103 -0.3270  0.1250  2.7378
18688TIP3    H277556   5.287   3.128   0.054 -1.9418  0.4057 -1.1488
18689TIP3   OH277557   4.602   3.266  11.413  0.1042 -0.5479 -0.6557
18689TIP3    H177558   4.599   3.198  11.346  0.9804 -0.3780 -0.8751
18689TIP3    H277559   4.522   3.317  11.400  0.0334 -0.8139 -1.2598
18690TIP3   OH277560   0.292   1.694  14.032  0.4876 -0.7752  0.5634
18690TIP3    H177561   0.338   1.731  13.957 -0.4712  0.1045  0.4037
18690TIP3    H277562   0.301   1.599  14.022  0.3888 -0.6574 -0.6302
18691TIP3   OH277563   4.928   1.787  12.639 -0.1652 -0.1914  0.8481
18691TIP3    H177564   4.981   1.751  12.568 -2.7010 -2.7734  0.1894
18691TIP3    H277565   4.976   1.763  12.718  0.3706 -1.2920  0.2020
18692TIP3   OH277566   4.727   3.154  10.760 -0.4769  0.4757 -0.1580
18692TIP3    H177567   4.771   3.206  10.692 -0.7026  1.6028  0.5505
18692TIP3    H277568   4.784   3.078  10.772  0.1954  0.8779 -0.7352
18693TIP3   OH277569   4.250   0.066  16.730  0.5221 -0.0744  0.2264
18693TIP3    H177570   4.206   0.049  16.813 -0.0483 -2.0855 -0.4682
18693TIP3    H277571   4.190   0.125  16.683 -0.3128 -0.9083  0.2443
18694TIP3   OH277572   1.766   1.839  10.925 -0.5540 -0.3002 -0.3912
18694TIP3    H177573   1.824   1.911  10.948  0.7500 -0.2924 -3.5296
18694TIP3    H277574   1.683   1.881  10.902 -0.5407 -0.0174  0.0610
18695TIP3   OH277575   5.872   6.218  11.659 -0.2463 -0.5217  0.1639
18695TIP3    H177576   5.938   6.179  11.602 -0.0715 -2.1484  1.4443
18695TIP3    H277577   5.882   6.172  11.743 -2.5221 -0.3161  0.5888
18696TIP3   OH277578   3.938   3.992   0.807  0.5681 -0.3773 -0.0172
18696TIP3    H177579   4.020   4.000   0.855  0.5723  0.7233 -0.2113
18696TIP3    H277580   3.956   3.922   0.743  1.3513 -0.1615 -0.0462
18697TIP3   OH277581   3.210   2.927   0.082  0.5821  1.1746 -0.0170
18697TIP3    H177582   3.305   2.924   0.074  0.8594  0.1930  2.9927
18697TIP3    H277583   3.179   2.848   0.037  1.4854 -0.4008  2.0505
18698TIP3   OH277584   6.622   1.359   0.664  0.0497 -0.0049  0.0160
18698TIP3    H177585   6.700   1.411   0.643  0.7283 -1.8860 -2.3784
18698TIP3    H277586   6.565   1.370   0.587 -1.4601  0.2448  1.1511
18699TIP3   OH277587   0.797   0.070  12.422 -0.0092 -0.0862 -0.5037
18699TIP3    H177588   0.764  -0.020  12.425 -0.1403 -0.1585 -3.2031
18699TIP3    H277589   0.855   0.072  12.346  1.7236  1.5637  0.7996
18700TIP3   OH277590   2.609   6.209   4.409  0.2864 -0.0847 -0.8426
18700TIP3    H177591   2.684   6.230   4.465 -0.4804  1.4197 -0.3678
18700TIP3    H277592   2.607   6.280   4.344 -1.7679  0.8463  0.2042
18701TIP3   OH277593   2.699   1.118   5.628  0.1635  0.3913  0.1034
18701TIP3    H177594   2.686   1.203   5.586 -1.0415 -0.1425 -0.6160
18701TIP3    H277595   2.777   1.130   5.682 -1.4035  2.6778  1.9388
18702TIP3   OH277596   4.840   1.184  15.220 -0.0030  0.1524 -0.2097
18702TIP3    H177597   4.871   1.182  15.311 -1.5004  0.6109  0.3401
18702TIP3    H277598   4.887   1.257  15.180  2.2836 -1.4177 -0.4367
18703TIP3   OH277599   1.824   2.673  10.422  0.1294  0.8412 -0.6482
18703TIP3    H177600   1.847   2.766  10.423 -1.5871  1.2798 -0.7660
18703TIP3    H277601   1.868   2.638  10.345  0.6464  1.5948 -0.6970
18704TIP3   OH277602   1.181   5.189  13.048  0.0196  0.0689  0.0482
18704TIP3    H177603   1.114   5.150  12.991  0.3083 -0.8210  0.3156
18704TIP3    H277604   1.260   5.190  12.995 -0.2656  1.4222 -0.3824
18705TIP3   OH277605   1.283   3.804  12.441  0.2392  0.0910 -0.2471
18705TIP3    H177606   1.267   3.800  12.535  1.5309  1.2963  0.0384
18705TIP3    H277607   1.282   3.897  12.420  0.8724 -0.1160 -1.2532
18706TIP3   OH277608   5.623   6.098   3.322 -0.0056 -0.3431  0.3543
18706TIP3    H177609   5.716   6.089   3.343  0.1356  0.0864 -0.0818
18706TIP3    H277610   5.598   6.012   3.286 -0.4199 -1.3291  2.8711
18707TIP3   OH277611   1.529   5.092  14.041 -0.2542 -0.3212  0.2029
18707TIP3    H177612   1.581   5.135  14.108 -0.0261 -1.1405  0.5614
18707TIP3    H277613   1.583   5.019  14.011 -1.1388 -1.1138  0.5005
18708TIP3   OH277614   0.739   4.769   6.309 -0.2810  0.8016 -0.7620
18708TIP3    H177615   0.735   4.860   6.336  1.5317  1.1536 -1.6497
18708TIP3    H277616   0.708   4.720   6.386 -1.4339  2.1489 -0.3519
18709TIP3   OH277617   2.081   2.353  13.845 -0.0575  0.0742 -0.3209
18709TIP3    H177618   2.032   2.270  13.844 -0.7393  0.4758 -1.1022
18709TIP3    H277619   2.021   2.416  13.884 -0.0919  0.5274 -1.0934
18710TIP3   OH277620   0.443   5.473  16.081  0.0270  0.4409  0.3667
18710TIP3    H177621   0.430   5.450  16.173 -0.2169  1.4073  0.5839
18710TIP3    H277622   0.410   5.563  16.074  1.9528  1.1256 -0.1992
18711TIP3   OH277623   0.835   6.082  12.328  0.7760  0.4936  0.4435
18711TIP3    H177624   0.840   5.986  12.332  1.7123  0.4752 -0.7076
18711TIP3    H277625   0.813   6.109  12.417  1.6597 -0.7327  1.0442
18712TIP3   OH277626   2.997   6.017  14.344  0.4886 -0.4821 -0.1279
18712TIP3    H177627   2.953   6.012  14.429  0.4896 -0.3644 -0.1200
18712TIP3    H277628   2.984   5.931  14.305 -0.7457 -0.0839 -0.6215
18713TIP3   OH277629   1.710   5.963   4.540 -0.4583  0.3850  0.6293
18713TIP3    H177630   1.636   6.010   4.579  0.4554  0.5961  2.1140
18713TIP3    H277631   1.786   6.020   4.556  0.1329 -0.0816 -0.4185
18714TIP3   OH277632   2.990   5.859   3.856  0.6787  0.9138 -0.2800
18714TIP3    H177633   3.061   5.796   3.846  1.1492  1.4917 -0.6218
18714TIP3    H277634   2.989   5.880   3.949  1.5057  1.5313 -0.4020
18715TIP3   OH277635   2.225   6.494   4.267 -0.1584  0.1507  0.3008
18715TIP3    H177636   2.275   6.543   4.333 -1.2187  0.7490  0.6782
18715TIP3    H277637   2.286   6.484   4.194  0.9850 -0.3831  1.2964
18716TIP3   OH277638   4.476   6.815   4.721  0.4016 -0.5065  0.2476
18716TIP3    H177639   4.472   6.807   4.816  1.1413  1.2499  0.4441
18716TIP3    H277640   4.409   6.881   4.700  1.5512  0.5197 -0.2477
18717TIP3   OH277641   2.161   1.725  11.161 -0.1046 -0.8809  0.1874
18717TIP3    H177642   2.133   1.769  11.081  0.2294 -1.5359 -0.2988
18717TIP3    H277643   2.135   1.633  11.148  2.3386 -1.5456 -0.3279
18718TIP3   OH277644   1.278   3.358   0.585  0.0181  0.2082  0.1804
18718TIP3    H177645   1.233   3.437   0.557  0.9257  0.2852 -1.1413
18718TIP3    H277646   1.364   3.389   0.614 -0.8639  0.1153  3.0412
18719TIP3   OH277647   4.890   6.324  10.953  0.1406  0.6551  0.0321
18719TIP3    H177648   4.863   6.350  10.865 -1.2936 -2.2018 -0.4527
18719TIP3    H277649   4.972   6.276  10.940  0.2157  0.7103  0.3009
18720TIP3   OH277650   5.901   5.317  13.047  0.1223 -0.5495  0.3438
18720TIP3    H177651   5.922   5.375  13.120  0.5876  0.3864 -0.5149
18720TIP3    H277652   5.958   5.346  12.976 -0.5061 -1.2746 -0.4765
18721TIP3   OH277653   2.792   1.565   1.062 -0.0640  0.1687 -0.3116
18721TIP3    H177654   2.704   1.599   1.074 -0.1013 -0.0614  0.0773
18721TIP3    H277655   2.780   1.470   1.056  0.1717  0.1278 -0.1309
18722TIP3   OH277656   5.717   0.082  14.194  0.3719  0.2491  0.6825
18722TIP3    H177657   5.715   0.002  14.248  3.6453  0.0611  0.5841
18722TIP3    H277658   5.695   0.051  14.106 -1.3505 -0.0244  1.1783
18723TIP3   OH277659   1.383   1.880   4.921 -0.5203 -0.0504 -0.2531
18723TIP3    H177660   1.425   1.913   5.001 -0.9741  0.4473 -0.2165
18723TIP3    H277661   1.455   1.874   4.858 -0.6965  2.7776 -0.8003
18724TIP3   OH277662   1.897   2.551   3.833  0.4315  0.0174 -0.5361
18724TIP3    H177663   1.854   2.468   3.852  2.8992 -0.8807  1.5091
18724TIP3    H277664   1.899   2.556   3.738  1.5332 -3.0407 -0.7276
18725TIP3   OH277665   2.167   0.813   5.074 -0.2847 -0.5486 -0.4613
18725TIP3    H177666   2.199   0.903   5.078 -0.8578 -0.3904  0.5097
18725TIP3    H277667   2.236   0.761   5.114 -0.7341 -0.3346  0.6009
18726TIP3   OH277668   4.462   0.636   1.371  0.2519  0.7831  0.0460
18726TIP3    H177669   4.483   0.545   1.351 -0.3121  0.4637  0.8531
18726TIP3    H277670   4.395   0.660   1.308 -0.0715  0.4267  0.2554
18727TIP3   OH277671   2.063   3.152  14.578  0.3536  0.4056 -0.0986
18727TIP3    H177672   2.156   3.145  14.600  0.1575  0.7699  0.8589
18727TIP3    H277673   2.023   3.192  14.655 -0.7811 -0.7863 -0.0603
18728TIP3   OH277674   4.661   3.086  11.178  0.2769  0.3701  0.1951
18728TIP3    H177675   4.693   3.005  11.139  0.4343  0.2755  0.5196
18728TIP3    H277676   4.709   3.155  11.132  0.9878  0.2246  0.7260
18729TIP3   OH277677   3.288   3.050  16.089  0.2814 -0.2196  0.1444
18729TIP3    H177678   3.213   3.083  16.040  1.5962  3.5306  0.4764
18729TIP3    H277679   3.266   3.065  16.181 -0.1304 -2.6705  0.4681
18730TIP3   OH277680   3.122   5.930   2.146 -0.7261  0.3155 -0.0899
18730TIP3    H177681   3.088   5.864   2.206 -0.4524 -0.7498 -1.0914
18730TIP3    H277682   3.145   6.004   2.203 -0.8202 -0.5303  1.0729
18731TIP3   OH277683   0.244   3.185  16.277  0.9242  0.4319  0.1588
18731TIP3    H177684   0.254   3.090  16.264 -1.6729  0.4096 -2.1044
18731TIP3    H277685   0.290   3.224  16.203  0.3904  0.8914  0.0732
18732TIP3   OH277686   1.582   5.115   1.350 -0.0688  0.3284  0.1338
18732TIP3    H177687   1.605   5.025   1.373  2.1847  0.1726 -2.4801
18732TIP3    H277688   1.665   5.163   1.355 -0.8210  1.7485 -0.6850
18733TIP3   OH277689   5.649   3.899  14.014  0.2686  0.2013 -0.1687
18733TIP3    H177690   5.558   3.870  14.016  0.3618 -0.0757  0.1815
18733TIP3    H277691   5.699   3.821  14.038  0.8120 -0.5205 -3.4250
18734TIP3   OH277692   5.072   0.470  11.848 -0.1980  0.5846  0.4005
18734TIP3    H177693   5.153   0.521  11.850 -0.1902  0.5973 -0.1861
18734TIP3    H277694   5.096   0.387  11.807 -0.1601  0.0057  1.5835
18735TIP3   OH277695   5.023   6.781  15.229 -0.3571 -0.3204  0.0681
18735TIP3    H177696   5.045   6.741  15.313 -1.3654 -1.9004 -0.3993
18735TIP3    H277697   4.927   6.780  15.226 -0.3569  0.7317 -0.6208
18736TIP3   OH277698   1.740   3.658   4.207  0.4918 -0.1839 -0.1074
18736TIP3    H177699   1.655   3.620   4.229  0.3407 -0.2209 -0.7207
18736TIP3    H277700   1.786   3.587   4.161 -0.2951  0.7590 -2.4390
18737TIP3   OH277701   6.452   5.822  13.887 -0.1451 -0.3020  0.0631
18737TIP3    H177702   6.375   5.865  13.849 -0.3136 -0.0252  0.7053
18737TIP3    H277703   6.510   5.894  13.909 -0.1095 -0.4541  0.4604
18738TIP3   OH277704   0.430   1.545   4.699  0.3246 -0.2436  1.0620
18738TIP3    H177705   0.363   1.528   4.766  1.7225  1.3120  2.9197
18738TIP3    H277706   0.500   1.484   4.720  0.2762 -0.5588  0.2919
18739TIP3   OH277707   5.228   2.372  15.108  0.6232 -0.0935  0.1742
18739TIP3    H177708   5.232   2.412  15.195  0.2237 -4.2405  2.2396
18739TIP3    H277709   5.310   2.395  15.067  1.2010  1.2320  2.0192
18740TIP3   OH277710   4.471   4.445   0.660 -0.5447 -0.6227 -0.1932
18740TIP3    H177711   4.429   4.381   0.718 -0.6572 -2.0648 -1.8214
18740TIP3    H277712   4.412   4.451   0.586  0.0231  0.5673 -0.5492
18741TIP3   OH277713   1.842   0.501   5.412 -0.1421 -0.3305  0.3227
18741TIP3    H177714   1.856   0.550   5.493 -0.5943  0.2954  0.0338
18741TIP3    H277715   1.783   0.557   5.361 -0.3173 -0.9834 -0.1964
18742TIP3   OH277716   3.906   0.494   1.720 -0.0035  0.1189  0.3677
18742TIP3    H177717   3.936   0.436   1.790 -2.1696 -0.8051  0.5812
18742TIP3    H277718   3.945   0.458   1.640  0.2119 -0.4950  0.7449
18743TIP3   OH277719   2.572   0.169   4.685  0.0374 -0.1834  0.2927
18743TIP3    H177720   2.651   0.214   4.653  0.2335 -1.0626 -0.4840
18743TIP3    H277721   2.513   0.240   4.711  1.0105  0.4902  0.7047
18744TIP3   OH277722   0.900   6.386  11.884 -0.6813  0.1849  0.5796
18744TIP3    H177723   0.904   6.362  11.977  0.6306 -1.0285  0.2139
18744TIP3    H277724   0.834   6.327  11.848  0.0250 -0.4937  0.3970
18745TIP3   OH277725   2.058   6.354  13.252 -0.5045 -0.0668  0.1483
18745TIP3    H177726   2.035   6.262  13.247  0.1526 -0.2212 -0.0316
18745TIP3    H277727   1.976   6.398  13.276 -0.9305 -0.6369 -0.2516
18746TIP3   OH277728   5.448   3.030   2.225 -0.3457  0.5923 -0.4435
18746TIP3    H177729   5.535   3.024   2.184 -0.5573  2.6665 -1.2597
18746TIP3    H277730   5.402   2.953   2.192  1.3170 -0.7834  0.3592
18747TIP3   OH277731   0.510   5.699   0.570  0.6304 -0.3405  0.3301
18747TIP3    H177732   0.466   5.755   0.634 -0.4415  0.9404 -1.4976
18747TIP3    H277733   0.600   5.732   0.566  0.4347  0.2143  0.4622
18748TIP3   OH277734   2.553   5.567  12.043  0.4620  0.2957  0.2745
18748TIP3    H177735   2.515   5.653  12.063 -0.8360  0.2519 -1.8254
18748TIP3    H277736   2.557   5.523  12.128 -0.7700  1.6778  1.0835
18749TIP3   OH277737   2.550   5.872  11.703  0.4022 -0.3602 -0.2347
18749TIP3    H177738   2.454   5.878  11.711  0.5350 -0.1575  1.4472
18749TIP3    H277739   2.571   5.921  11.623 -0.7440  0.9985  0.2720
18750TIP3   OH277740   1.664   2.760   4.119  0.1405 -0.4193  0.5224
18750TIP3    H177741   1.737   2.808   4.081  0.4443  0.0683  1.6892
18750TIP3    H277742   1.687   2.752   4.212 -0.3067 -2.0751  0.5018
18751TIP3   OH277743   6.478   5.223   2.566  0.3366 -0.2574 -0.1345
18751TIP3    H177744   6.533   5.271   2.628 -0.1943 -1.5885  1.3855
18751TIP3    H277745   6.502   5.131   2.578 -2.3281 -0.8860  0.6970
18752TIP3   OH277746   2.060   2.941   0.413 -0.4582  0.2422 -0.0055
18752TIP3    H177747   2.030   3.032   0.412 -1.7817 -0.1282  1.9950
18752TIP3    H277748   2.075   2.922   0.505  1.4328 -1.0842 -0.5539
18753TIP3   OH277749   2.702   3.440   4.074 -0.3793  0.6421  0.0459
18753TIP3    H177750   2.632   3.448   4.139  0.4009 -0.9288  1.1006
18753TIP3    H277751   2.659   3.402   3.997 -0.8372  0.3700  0.4319
18754TIP3   OH277752   0.441   5.672  14.335  0.0024 -0.0844 -0.3533
18754TIP3    H177753   0.419   5.723  14.413  0.2433 -1.2672  0.5003
18754TIP3    H277754   0.394   5.589  14.346  1.5847 -1.0253 -0.5185
18755TIP3   OH277755   6.771   6.476   2.067 -0.2408  0.7792 -0.1482
18755TIP3    H177756   6.733   6.390   2.086 -1.2820  0.7024 -2.4166
18755TIP3    H277757   6.848   6.482   2.124  0.4044 -2.0629 -0.6576
18756TIP3   OH277758   0.362   2.513   5.885 -0.6579 -0.2163 -0.3570
18756TIP3    H177759   0.307   2.579   5.927  0.0410 -1.3886  2.4466
18756TIP3    H277760   0.303   2.440   5.868 -0.4961 -0.5448  0.4796
18757TIP3   OH277761   1.576   6.591   3.181  0.6169  0.4238  0.2864
18757TIP3    H177762   1.542   6.673   3.145  0.1376 -0.0171 -0.2751
18757TIP3    H277763   1.652   6.618   3.233 -0.5537  1.4138  1.5304
18758TIP3   OH277764   1.530   5.519  14.685 -1.1105 -0.2312  0.4574
18758TIP3    H177765   1.571   5.491  14.767 -1.1477 -0.1028  0.5196
18758TIP3    H277766   1.547   5.613  14.680  0.9114 -0.6364 -0.8198
18759TIP3   OH277767   3.393   0.506  16.933  0.5921 -0.0580 -0.4071
18759TIP3    H177768   3.418   0.463  16.851  0.4380  0.1505 -0.5624
18759TIP3    H277769   3.332   0.575  16.907  0.7105  0.1491 -0.1369
18760TIP3   OH277770   3.313   4.018   4.716 -0.2813 -0.7388 -0.0136
18760TIP3    H177771   3.388   4.012   4.774 -0.1874 -0.2815 -0.0861
18760TIP3    H277772   3.331   4.093   4.660  0.1167 -1.7951 -1.3326
18761TIP3   OH277773   5.941   2.682   3.200 -0.1325  0.4148 -0.6395
18761TIP3    H177774   5.946   2.663   3.106  3.6941 -0.3609 -0.3753
18761TIP3    H277775   6.007   2.750   3.214 -1.6484  1.5524  1.3010
18762TIP3   OH277776   5.020   3.083   3.840 -0.7041 -0.4566  0.3388
18762TIP3    H177777   4.957   3.047   3.903 -0.0893 -0.0692  1.1868
18762TIP3    H277778   5.084   3.012   3.828  0.3777  0.2311  1.8297
18763TIP3   OH277779   3.502   5.847   2.658  0.3926  0.1307 -0.0128
18763TIP3    H177780   3.462   5.817   2.575  1.1260 -0.5994 -0.1112
18763TIP3    H277781   3.441   5.817   2.725  0.4969 -0.5064 -0.1990
18764TIP3   OH277782   1.888   3.338  15.400  0.3728 -0.3341  0.0180
18764TIP3    H177783   1.920   3.305  15.316  1.4879 -0.5754  0.5317
18764TIP3    H277784   1.884   3.261  15.456 -0.7661 -0.2417  0.0682
18765TIP3   OH277785   4.972   5.543  13.687  0.1531  0.2178  0.3211
18765TIP3    H177786   4.921   5.554  13.767  0.7573  0.0529  0.7314
18765TIP3    H277787   4.956   5.452  13.661  0.3914  0.1062  0.5602
18766TIP3   OH277788   5.519   1.134   5.117  0.3927 -0.2616 -0.6725
18766TIP3    H177789   5.472   1.217   5.122  0.2580 -0.3812  0.0708
18766TIP3    H277790   5.544   1.115   5.207 -2.8783 -2.9374 -0.2563
18767TIP3   OH277791   0.641   3.971  11.131  0.5103 -0.5844 -0.3719
18767TIP3    H177792   0.567   4.026  11.157  0.6643 -0.4343 -0.2458
18767TIP3    H277793   0.718   4.024  11.153  0.6294 -0.2479 -1.6080
18768TIP3   OH277794   3.754   4.811  13.670  0.4876 -0.2512 -0.0418
18768TIP3    H177795   3.747   4.829  13.576  0.2828  0.5863  0.1251
18768TIP3    H277796   3.845   4.784  13.682  0.2496 -1.3529 -0.6380
18769TIP3   OH277797   0.017   2.495  10.253 -0.1962 -0.5311  0.7340
18769TIP3    H177798   0.069   2.532  10.183 -0.2148 -1.3812  0.2638
18769TIP3    H277799  -0.057   2.555  10.263 -0.1126 -0.3297  0.1356
18770TIP3   OH277800   5.898   0.390   5.489  0.0155 -0.4022  0.0400
18770TIP3    H177801   5.836   0.336   5.441 -0.5785  0.3718 -0.0634
18770TIP3    H277802   5.933   0.451   5.424  0.6579 -0.6267  0.1672
18771TIP3   OH277803   0.732   2.658   3.573  0.2396 -0.1709  0.0037
18771TIP3    H177804   0.697   2.744   3.549  0.9133  0.2107  0.3430
18771TIP3    H277805   0.685   2.596   3.519  1.1886  0.5877 -1.7431
18772TIP3   OH277806   2.113   2.610   3.445  0.1859  1.1058 -0.0088
18772TIP3    H177807   2.031   2.581   3.485 -0.2850  2.3253 -0.0752
18772TIP3    H277808   2.129   2.697   3.482  1.3585  0.9625 -0.1368
18773TIP3   OH277809   1.959   5.183  16.285  0.2316  0.4727 -0.4341
18773TIP3    H177810   2.023   5.247  16.255  0.1678  0.8836  0.2907
18773TIP3    H277811   2.002   5.098  16.274  0.7306  0.7176 -0.3725
18774TIP3   OH277812   3.484   2.228   0.680 -0.1860 -0.1704 -0.3544
18774TIP3    H177813   3.496   2.209   0.587 -0.7790 -0.9839 -0.2644
18774TIP3    H277814   3.565   2.198   0.721  0.6795  1.5059 -0.7873
18775TIP3   OH277815   2.540   6.496   6.289  0.2460 -0.3413  0.2844
18775TIP3    H177816   2.596   6.460   6.358 -1.4478 -0.0887  1.8254
18775TIP3    H277817   2.496   6.570   6.330 -0.6700 -0.0938 -1.1244
18776TIP3   OH277818   5.124   3.011   5.563 -0.0787 -0.0263 -0.3876
18776TIP3    H177819   5.032   3.009   5.536  0.1159  2.1019 -1.3232
18776TIP3    H277820   5.172   3.028   5.482  1.0077  0.4306  0.3421
18777TIP3   OH277821   1.857   2.968   6.035  0.3153  0.3269  0.2437
18777TIP3    H177822   1.894   3.000   5.952 -0.2347  0.0378 -0.1183
18777TIP3    H277823   1.884   3.033   6.100 -0.0881  1.0854 -0.3378
18778TIP3   OH277824   1.341   4.559  12.038  0.1031 -0.6678  0.1507
18778TIP3    H177825   1.336   4.651  12.064  1.1798 -1.0633  1.8166
18778TIP3    H277826   1.435   4.538  12.043  0.1517 -1.2406 -2.4360
18779TIP3   OH277827   5.204   0.248   5.860 -0.6934 -1.0907  0.4241
18779TIP3    H177828   5.270   0.182   5.879  0.7354  0.0287 -0.5778
18779TIP3    H277829   5.138   0.236   5.928  0.7859 -1.8930  1.7456
18780TIP3   OH277830   6.105   5.586   1.546 -0.0590 -0.1937  0.3729
18780TIP3    H177831   6.103   5.637   1.465  1.7467 -0.0947  0.3673
18780TIP3    H277832   6.020   5.541   1.549 -0.2962  0.1246 -1.3551
18781TIP3   OH277833   6.049   0.926   4.121  0.0283 -0.0445  0.4106
18781TIP3    H177834   6.013   0.869   4.053  0.0108 -0.3363  0.6630
18781TIP3    H277835   6.095   0.994   4.073  0.1911 -0.3675  0.1079
18782TIP3   OH277836   1.928   4.771  13.414  0.7524  0.4634 -0.1904
18782TIP3    H177837   1.849   4.726  13.385  1.2848  0.6278 -1.9835
18782TIP3    H277838   1.961   4.719  13.487 -1.2113  0.6105  0.8183
18783TIP3   OH277839   3.757   5.212   0.322  0.4691  0.4620  0.3282
18783TIP3    H177840   3.848   5.189   0.304  0.4655 -1.5304  2.4926
18783TIP3    H277841   3.742   5.181   0.411 -1.9626  1.9413  0.4797
18784TIP3   OH277842   4.724   2.160  15.567  0.4522  1.0625 -0.2084
18784TIP3    H177843   4.787   2.221  15.529  1.5275 -1.1169 -2.0583
18784TIP3    H277844   4.671   2.130  15.493  0.2459 -0.5618  0.5751
18785TIP3   OH277845   4.688   5.112   6.814  0.7475 -1.0358 -0.2244
18785TIP3    H177846   4.652   5.136   6.729  1.0662 -3.2807 -1.0226
18785TIP3    H277847   4.612   5.106   6.872  0.3138 -1.4901 -0.8420
18786TIP3   OH277848   0.738   6.576   3.364 -0.5669  0.0553  0.1380
18786TIP3    H177849   0.770   6.496   3.322  2.3969  1.0086  0.5014
18786TIP3    H277850   0.658   6.548   3.409  0.8514 -2.9252  0.9769
18787TIP3   OH277851   0.198   4.612   5.773  0.3229  0.2994  1.0566
18787TIP3    H177852   0.185   4.706   5.756 -0.1187  0.5652  2.7422
18787TIP3    H277853   0.267   4.586   5.713  0.8577  1.8578  0.9785
18788TIP3   OH277854   6.584   0.891  13.215  0.0005 -0.1346  0.3626
18788TIP3    H177855   6.642   0.818  13.237  0.4750  0.8116  2.4484
18788TIP3    H277856   6.519   0.892  13.285  0.1776  1.6142  0.5320
18789TIP3   OH277857   1.795   5.835  16.693 -0.5127 -0.2978  0.1715
18789TIP3    H177858   1.866   5.875  16.642  0.0000 -1.0718  0.2680
18789TIP3    H277859   1.796   5.882  16.776  2.5080 -2.9448  1.7022
18790TIP3   OH277860   0.867   6.264   4.570 -0.2564 -0.6097  0.1133
18790TIP3    H177861   0.875   6.175   4.534  1.4594 -1.0579  1.5236
18790TIP3    H277862   0.956   6.299   4.567 -0.1772 -0.4131  3.1524
18791TIP3   OH277863   1.843   6.344  12.554 -0.1701  0.2726  0.6923
18791TIP3    H177864   1.884   6.409  12.611  1.0180  0.3127 -0.1839
18791TIP3    H277865   1.898   6.266  12.562  0.0453  0.2931 -0.4202
18792TIP3   OH277866   5.412   3.972  14.570 -0.0983 -0.0138 -0.1659
18792TIP3    H177867   5.409   4.014  14.656  1.2537  0.7357 -0.4731
18792TIP3    H277868   5.440   4.042  14.511 -1.0142 -0.5339 -1.2159
18793TIP3   OH277869   4.025   0.462  16.551 -0.0085 -0.2400  0.4234
18793TIP3    H177870   4.112   0.480  16.585 -0.5110  1.2523  0.9452
18793TIP3    H277871   4.041   0.419  16.467  1.2436  1.0769 -0.0371
18794TIP3   OH277872   1.182   1.406  14.566 -0.3059 -0.5801 -0.1446
18794TIP3    H177873   1.181   1.354  14.646 -0.8246  3.2212  2.4782
18794TIP3    H277874   1.094   1.444  14.561  0.1295  0.2780 -1.7937
18795TIP3   OH277875   5.593   0.642  16.940 -0.2317  0.3591  0.1923
18795TIP3    H177876   5.647   0.692  17.002  1.0823 -0.2876 -0.4080
18795TIP3    H277877   5.527   0.600  16.995  1.7679 -1.3235  1.3638
18796TIP3   OH277878   5.000   0.334   1.052  0.1620  0.3808  0.1464
18796TIP3    H177879   4.974   0.386   1.128  0.1254 -0.2304  0.5620
18796TIP3    H277880   5.091   0.310   1.070  0.9937  2.3836 -1.2267
18797TIP3   OH277881   0.682   2.372  12.741  0.7289 -0.5524  0.1263
18797TIP3    H177882   0.679   2.388  12.647  0.2963  1.4648  0.4627
18797TIP3    H277883   0.596   2.398  12.772  1.3526  0.1391  1.2883
18798TIP3   OH277884   6.129   0.206  14.476  0.4424 -0.1846 -0.7657
18798TIP3    H177885   6.199   0.146  14.449  2.2336  1.8125 -0.6906
18798TIP3    H277886   6.146   0.223  14.568 -0.1314  0.3581 -0.7605
18799TIP3   OH277887   4.729   1.455   3.701 -0.5058 -0.2945 -0.2530
18799TIP3    H177888   4.798   1.418   3.756 -0.3586  0.3746  0.0271
18799TIP3    H277889   4.755   1.547   3.690 -0.4294 -0.4817 -1.6112
18800TIP3   OH277890   2.969   3.004  11.839  0.1112 -0.5761  0.2138
18800TIP3    H177891   2.972   3.043  11.752 -0.0630 -1.1031 -0.0346
18800TIP3    H277892   2.919   2.923  11.827  0.2808 -0.7648  0.7568
18801TIP3   OH277893   6.340   5.135  15.371  0.2369 -0.4158  0.4405
18801TIP3    H177894   6.293   5.180  15.441  0.3011  2.0257 -1.0280
18801TIP3    H277895   6.429   5.124  15.406 -0.6928 -2.6866  2.1968
18802TIP3   OH277896   1.601   6.049  15.423  0.0862  0.2293  0.7828
18802TIP3    H177897   1.669   5.991  15.390 -0.5960 -0.6818  0.9682
18802TIP3    H277898   1.585   6.110  15.351  0.5464 -0.0347  0.4564
18803TIP3   OH277899   0.083   2.638  15.958  0.0906  0.2967 -0.4186
18803TIP3    H177900   0.167   2.593  15.958  0.9040  1.7767  0.0390
18803TIP3    H277901   0.061   2.647  16.051  0.0441  1.0160 -0.4953
18804TIP3   OH277902   0.162   5.554   4.215  0.4487 -0.4649 -0.0139
18804TIP3    H177903   0.084   5.519   4.257  0.9976  0.0033  1.4120
18804TIP3    H277904   0.225   5.566   4.286  1.2130  0.8329 -0.8834
18805TIP3   OH277905   6.274   6.764   3.654  0.0574  0.3838 -0.1903
18805TIP3    H177906   6.294   6.854   3.677 -0.3561  0.2065  0.8597
18805TIP3    H277907   6.180   6.762   3.640 -0.0052  0.0117  0.2570
18806TIP3   OH277908   4.795   6.348   5.894 -0.2197  0.1058  0.3126
18806TIP3    H177909   4.763   6.351   5.984  0.3930  0.2722  0.5307
18806TIP3    H277910   4.871   6.407   5.893  2.1739 -2.8389  0.6730
18807TIP3   OH277911   4.825   2.945   1.586 -0.6179 -0.0174  0.2876
18807TIP3    H177912   4.780   2.861   1.589 -0.3421 -0.1331  1.5550
18807TIP3    H277913   4.907   2.930   1.633  0.3298  0.4464 -1.1756
18808TIP3   OH277914   5.177   1.005   2.126  0.5995  0.5000 -0.0277
18808TIP3    H177915   5.112   0.937   2.106 -0.6257  1.4393  0.6849
18808TIP3    H277916   5.185   1.055   2.045  1.5745 -0.5490 -0.5828
18809TIP3   OH277917   1.684   1.807  12.587 -0.1313 -0.4044  0.2956
18809TIP3    H177918   1.723   1.868  12.524  0.5763 -0.6694  0.4805
18809TIP3    H277919   1.603   1.778  12.545  0.3143 -0.5378 -0.4744
18810TIP3   OH277920   3.091   2.910  15.249  0.0571 -0.1662 -0.4414
18810TIP3    H177921   3.130   2.828  15.281  0.6515 -1.0884 -3.3539
18810TIP3    H277922   3.010   2.882  15.206 -0.0776  0.8599 -0.8580
18811TIP3   OH277923   6.390   2.990   0.965 -0.2619  0.2774  0.3189
18811TIP3    H177924   6.295   2.989   0.980 -0.6394 -1.8463 -1.8205
18811TIP3    H277925   6.427   2.937   1.036 -0.9718 -1.0721 -0.2886
18812TIP3   OH277926   4.028   6.787  15.157 -0.1141  0.1994 -0.1756
18812TIP3    H177927   3.967   6.725  15.117 -0.3513 -0.8283  1.7408
18812TIP3    H277928   3.999   6.873  15.126 -1.8140 -0.3685 -0.1981
18813TIP3   OH277929   3.059   1.630   5.180  0.2189 -0.0260 -0.3705
18813TIP3    H177930   2.971   1.595   5.173 -0.4587  1.3853  0.9647
18813TIP3    H277931   3.110   1.579   5.116 -1.9790  0.5864 -2.6579
18814TIP3   OH277932   0.628   5.562   1.560  0.6257  0.3003 -0.4997
18814TIP3    H177933   0.578   5.496   1.512  1.5911 -1.3784  0.7527
18814TIP3    H277934   0.565   5.632   1.576 -0.7497 -0.8297 -0.8127
18815TIP3   OH277935   0.542   1.391  13.155 -0.5336  0.2875  0.0117
18815TIP3    H177936   0.610   1.325  13.166 -0.3711  0.5981  0.9248
18815TIP3    H277937   0.530   1.398  13.061  1.2031  0.7362 -0.1933
18816TIP3   OH277938   2.607   3.384   1.467  0.2111  0.0567  0.0754
18816TIP3    H177939   2.620   3.356   1.558 -1.2811 -2.4717 -0.4432
18816TIP3    H277940   2.522   3.347   1.442 -0.6430  2.9818 -1.5172
18817TIP3   OH277941   3.350   6.643   5.822  0.5331 -0.2098  0.2552
18817TIP3    H177942   3.294   6.662   5.898 -0.5638  0.1081 -0.6303
18817TIP3    H277943   3.439   6.648   5.857  0.0437  0.1519  1.4845
18818TIP3   OH277944   5.450   2.595   0.891 -0.4126 -0.0263 -0.1469
18818TIP3    H177945   5.437   2.663   0.957 -0.2847  0.1729 -0.3252
18818TIP3    H277946   5.498   2.526   0.938 -0.9171 -0.1801  0.1457
18819TIP3   OH277947   4.766   4.429   1.780  0.5790  0.1226 -0.2239
18819TIP3    H177948   4.783   4.435   1.686 -3.0980  3.0046 -0.8368
18819TIP3    H277949   4.825   4.493   1.820  0.1197  0.9736 -0.8989
18820TIP3   OH277950   3.964   0.749  16.468 -0.0083 -0.1381  0.1518
18820TIP3    H177951   3.994   0.686  16.534  1.8379 -0.6295 -1.1175
18820TIP3    H277952   3.891   0.705  16.424 -0.9248 -0.0023  1.5399
18821TIP3   OH277953   1.912   0.855   6.192  0.2785  0.2768  0.5922
18821TIP3    H177954   1.906   0.942   6.232  2.9437  0.3690  0.8922
18821TIP3    H277955   1.986   0.814   6.237 -1.7199 -2.6546  1.3419
18822TIP3   OH277956   4.976   2.968   4.393 -0.6441  0.3628  0.7543
18822TIP3    H177957   5.009   2.905   4.457 -1.0172 -0.5377  0.0736
18822TIP3    H277958   4.892   2.997   4.429 -0.8147 -0.0775  0.7107
18823TIP3   OH277959   6.066   5.366  13.666  0.2398  0.2703 -0.5519
18823TIP3    H177960   6.102   5.381  13.753  0.1296  0.3346 -0.5185
18823TIP3    H277961   6.141   5.336  13.614 -0.4776 -3.7456  0.5726
18824TIP3   OH277962   3.986   4.035  12.657 -0.2970  0.6645 -0.0637
18824TIP3    H177963   4.077   4.009  12.667 -0.7770 -0.6656  1.0503
18824TIP3    H277964   3.953   3.979  12.587 -0.4049  0.7296 -0.0647
18825TIP3   OH277965   3.865   3.322   3.354  0.0068 -0.0565  0.4626
18825TIP3    H177966   3.842   3.412   3.330 -2.4730 -0.5893  0.6884
18825TIP3    H277967   3.866   3.274   3.271 -1.2436 -0.3470  0.6051
18826TIP3   OH277968   2.043   2.714  16.988 -0.0025 -0.0498  0.2912
18826TIP3    H177969   2.126   2.675  16.964  0.1671 -0.8555  2.1587
18826TIP3    H277970   2.020   2.674  17.071 -1.1113  1.8844  0.9525
18827TIP3   OH277971   2.018   4.321  12.172  0.1832  0.2680  0.1175
18827TIP3    H177972   2.017   4.271  12.253 -0.7641  0.0026 -0.0470
18827TIP3    H277973   2.109   4.347  12.160  0.3842  0.0121  1.0807
18828TIP3   OH277974   5.766   0.168   3.692 -0.0696 -0.1840 -0.2229
18828TIP3    H177975   5.714   0.226   3.637 -1.2458 -3.1936 -2.4135
18828TIP3    H277976   5.852   0.166   3.650 -1.3684 -3.6161 -3.0085
18829TIP3   OH277977   4.399   6.570   6.286  0.0991  0.2363  0.9178
18829TIP3    H177978   4.440   6.657   6.288  0.5688  0.0333  0.3404
18829TIP3    H277979   4.324   6.580   6.227  0.2489  0.2130  0.7212
18830TIP3   OH277980   1.547   4.910   4.056 -0.0454  0.4105 -0.0895
18830TIP3    H177981   1.563   4.981   3.994  0.9905  1.0125  0.8518
18830TIP3    H277982   1.459   4.927   4.090  0.5208  1.7182  0.7470
18831TIP3   OH277983   3.752   2.076  10.863 -0.7905  0.1287 -0.7936
18831TIP3    H177984   3.716   2.014  10.926 -1.0017  1.5401  0.4832
18831TIP3    H277985   3.845   2.053  10.857 -0.9920 -0.6905 -0.7826
18832TIP3   OH277986   4.854   0.915  14.291  0.1963 -0.0612 -0.5214
18832TIP3    H177987   4.871   0.961  14.374 -0.0923 -0.6992 -0.1049
18832TIP3    H277988   4.759   0.907  14.287  0.1731  0.5942 -1.2601
18833TIP3   OH277989   6.464   3.493   4.681 -0.4887  0.6151  0.2308
18833TIP3    H177990   6.385   3.444   4.662 -0.9088  1.7050 -0.8399
18833TIP3    H277991   6.535   3.430   4.668 -1.0527  0.1513 -0.6382
18834TIP3   OH277992   5.169   2.740  17.100 -0.3606 -0.3554 -0.6742
18834TIP3    H177993   5.173   2.660  17.151  1.3215  0.9660  1.3950
18834TIP3    H277994   5.225   2.723  17.024 -0.4479 -1.3260 -0.5239
18835TIP3   OH277995   4.427   5.295  14.914 -0.5956  0.6334  0.4442
18835TIP3    H177996   4.484   5.363  14.949  1.6635 -0.0950 -1.6277
18835TIP3    H277997   4.367   5.341  14.855  0.1604  0.9913 -0.0551
18836TIP3   OH277998   2.522   0.225   0.601  0.2120  0.1945 -0.1463
18836TIP3    H177999   2.434   0.236   0.565 -0.0226 -0.8405  0.1121
18836TIP3    H278000   2.521   0.138   0.640  1.1862  0.3982  0.3307
18837TIP3   OH278001   6.459   3.785  11.008  0.2329 -0.7084 -0.4001
18837TIP3    H178002   6.467   3.880  10.995 -0.7896 -0.5876 -0.2125
18837TIP3    H278003   6.527   3.748  10.952  1.0041  0.1597 -0.0554
18838TIP3   OH278004   1.856   6.346  13.483 -0.3599  0.1736 -0.1519
18838TIP3    H178005   1.895   6.300  13.558 -1.6968  0.8485  0.9815
18838TIP3    H278006   1.777   6.295  13.462  0.0976 -0.1050 -1.2168
18839TIP3   OH278007   1.255   2.675   1.114 -0.3647 -0.2496 -0.8977
18839TIP3    H178008   1.247   2.769   1.134  0.1102 -0.2732 -0.5937
18839TIP3    H278009   1.324   2.671   1.048  0.0762 -0.4566 -0.4147
18840TIP3   OH278010   5.360   5.995   3.081  0.4807  0.2552  0.3327
18840TIP3    H178011   5.374   5.985   2.987 -1.0765  0.0958  0.1003
18840TIP3    H278012   5.353   6.090   3.094 -0.4270  0.2262  0.1030
18841TIP3   OH278013   6.660   5.616   4.287 -0.2380  0.0679 -0.5155
18841TIP3    H178014   6.596   5.686   4.280 -0.8979 -0.6755 -2.3625
18841TIP3    H278015   6.642   5.575   4.372 -0.8276  1.1741 -0.0980
18842TIP3   OH278016   4.284   5.888  14.135 -0.4741 -0.1820  0.0992
18842TIP3    H178017   4.318   5.958  14.191 -0.7725  0.7176 -0.8162
18842TIP3    H278018   4.259   5.818  14.195 -1.5675  1.0872  1.1520
18843TIP3   OH278019   4.015   0.006   0.308 -0.3158 -0.0481  0.0906
18843TIP3    H178020   4.056   0.088   0.337  1.7425 -0.3601 -1.8331
18843TIP3    H278021   4.045  -0.059   0.370 -1.6767  0.5663  1.4237
18844TIP3   OH278022   5.938   3.940  15.681  0.3559 -0.5257  0.5356
18844TIP3    H178023   5.951   3.949  15.586  1.8512 -0.7515  0.6930
18844TIP3    H278024   5.942   4.029  15.715 -0.1582 -0.4469  0.3845
18845TIP3   OH278025   1.528   1.995   5.137  0.2350 -0.7634 -0.3231
18845TIP3    H178026   1.491   2.024   5.221 -0.9712 -0.2290 -1.0162
18845TIP3    H278027   1.585   2.067   5.110  0.1620 -0.6758 -0.2470
18846TIP3   OH278028   5.699   5.837   4.958  0.4543 -0.3242 -0.5904
18846TIP3    H178029   5.639   5.784   5.011 -1.6872  0.9234 -1.7096
18846TIP3    H278030   5.737   5.900   5.019 -0.8462  0.1220 -0.2336
18847TIP3   OH278031   1.617   5.242   2.848  0.3848 -0.0174 -0.0492
18847TIP3    H178032   1.584   5.169   2.795 -1.3287 -0.2364  1.2831
18847TIP3    H278033   1.700   5.210   2.883  0.2399 -0.8722 -0.4655
18848TIP3   OH278034   4.863   3.905  14.329  0.4841  0.6027  0.3517
18848TIP3    H178035   4.835   3.859  14.250  1.7799 -0.6785  0.6243
18848TIP3    H278036   4.870   3.997  14.301 -0.0537  0.3266 -0.7463
18849TIP3   OH278037   1.281   6.017   4.511  0.0748  0.1771 -0.0879
18849TIP3    H178038   1.232   5.941   4.482 -0.7147  0.3349  0.7860
18849TIP3    H278039   1.224   6.059   4.576  0.3146  1.7324 -0.8406
18850TIP3   OH278040   4.676   2.115   4.162 -0.3820  0.3431 -0.7629
18850TIP3    H178041   4.660   2.174   4.235  0.5706  1.6454 -1.5909
18850TIP3    H278042   4.768   2.089   4.170 -0.3035  0.3959 -1.4291
18851TIP3   OH278043   0.834   0.307  12.942  0.2605  0.1533 -0.7207
18851TIP3    H178044   0.824   0.371  12.871  3.5904  0.7131 -0.7894
18851TIP3    H278045   0.909   0.339  12.993  0.5188 -2.4279  0.6214
18852TIP3   OH278046   1.439   5.230  11.463  0.5794 -0.3251 -0.5177
18852TIP3    H178047   1.493   5.159  11.428  0.5893 -1.5305  1.8379
18852TIP3    H278048   1.349   5.197  11.458  0.4423  0.0820 -0.7641
18853TIP3   OH278049   5.533   2.831   3.276 -0.1722 -0.3932 -0.4681
18853TIP3    H178050   5.527   2.850   3.183  0.4781 -1.1767 -0.6805
18853TIP3    H278051   5.626   2.811   3.290 -0.4616 -1.3833  0.1176
18854TIP3   OH278052   4.627   3.106   3.963  0.4467  0.2621 -0.1045
18854TIP3    H178053   4.531   3.106   3.968  0.4790  2.0559  1.2603
18854TIP3    H278054   4.648   3.192   3.928  1.6192  0.6883  1.5824
18855TIP3   OH278055   4.652   3.592  11.953 -0.1603 -0.1000  0.2092
18855TIP3    H178056   4.595   3.667  11.969 -0.9616 -0.4798 -0.7375
18855TIP3    H278057   4.607   3.518  11.994 -0.3042 -0.3778 -0.4293
18856TIP3   OH278058   6.265   4.577   6.526  0.0049 -0.3797 -0.0482
18856TIP3    H178059   6.311   4.515   6.469 -0.8913 -1.2258  0.1225
18856TIP3    H278060   6.258   4.657   6.474 -1.5148 -1.3913 -1.4652
18857TIP3   OH278061   2.196   1.557   3.388 -0.4250 -0.3953  0.2506
18857TIP3    H178062   2.185   1.649   3.363 -0.4388 -0.4061  0.2175
18857TIP3    H278063   2.289   1.539   3.376 -0.6072 -0.6873 -0.7545
18858TIP3   OH278064   0.929   4.176   2.980  0.6313 -0.3865  0.0931
18858TIP3    H178065   0.837   4.199   2.968  0.1370 -1.4592  1.6435
18858TIP3    H278066   0.967   4.253   3.023 -0.3576 -1.2943  2.6587
18859TIP3   OH278067   0.462   2.172  14.564  0.0089 -0.0984 -0.4629
18859TIP3    H178068   0.395   2.194  14.628  0.1001 -0.6402 -0.1817
18859TIP3    H278069   0.499   2.257  14.538 -0.0185  0.1200  0.2113
18860TIP3   OH278070   4.588   0.491   2.298  0.3502  0.6332 -0.1394
18860TIP3    H178071   4.611   0.442   2.219 -1.4343  0.6454 -0.6930
18860TIP3    H278072   4.648   0.458   2.365  0.9397 -0.4025 -1.1558
18861TIP3   OH278073   1.615   2.240  14.406  0.5492 -0.5396 -0.2894
18861TIP3    H178074   1.546   2.290  14.450 -0.1189 -1.7195  0.0103
18861TIP3    H278075   1.663   2.306  14.355  0.3528  0.6005  0.9383
18862TIP3   OH278076   0.643   2.965  15.019 -0.5641  0.5646 -0.0282
18862TIP3    H178077   0.651   2.991  15.111  0.6785  0.8073 -0.1864
18862TIP3    H278078   0.549   2.966  15.001 -0.9384 -0.9786  1.6688
18863TIP3   OH278079   1.528   5.764  13.239  0.5968  0.7668 -0.2460
18863TIP3    H178080   1.545   5.794  13.328 -1.7163 -2.1620  1.2511
18863TIP3    H278081   1.457   5.700  13.248  3.3852 -3.0253 -3.5977
18864TIP3   OH278082   6.106   2.989   3.642 -0.0519  0.3609  0.0509
18864TIP3    H178083   6.140   3.057   3.583  0.2237  0.6348  0.5170
18864TIP3    H278084   6.037   2.945   3.592 -0.2650  1.0190 -0.2383
18865TIP3   OH278085   1.982   6.408   2.492 -0.0148 -0.0211  0.5307
18865TIP3    H178086   1.994   6.374   2.581  3.1304 -1.5086 -0.4044
18865TIP3    H278087   1.905   6.361   2.459 -0.1887 -0.6957  1.8403
18866TIP3   OH278088   5.394   1.621  15.189  0.0229 -0.2233 -0.2045
18866TIP3    H178089   5.308   1.628  15.148 -0.0073  1.2815  0.0829
18866TIP3    H278090   5.432   1.709  15.180  1.3494 -0.7596  0.0456
18867TIP3   OH278091   4.595   6.183  15.916 -0.6096 -0.6134 -0.2336
18867TIP3    H178092   4.555   6.096  15.918  1.0483 -1.4253 -1.3238
18867TIP3    H278093   4.577   6.216  15.828 -2.2723  0.6798  0.5536
18868TIP3   OH278094   0.008   4.314   3.332 -0.2440 -0.2772 -0.2197
18868TIP3    H178095   0.067   4.296   3.406  0.9148 -1.4675 -1.3968
18868TIP3    H278096  -0.061   4.369   3.369  0.8996  0.0461  1.4993
18869TIP3   OH278097   1.402   0.568   0.908  0.3004 -0.5552  0.1603
18869TIP3    H178098   1.451   0.574   0.826  0.5806  1.3755  0.4506
18869TIP3    H278099   1.310   0.565   0.881  0.4724 -2.1742 -0.3002
18870TIP3   OH278100   3.895   4.691   5.731 -0.3515  0.0357  0.0586
18870TIP3    H178101   3.986   4.660   5.729 -0.0128  0.9332  1.3381
18870TIP3    H278102   3.859   4.657   5.813 -1.1469 -0.2412 -0.3991
18871TIP3   OH278103   2.695   0.147  12.080  0.6880  0.1455  0.2263
18871TIP3    H178104   2.753   0.215  12.045 -0.5327  0.3886 -1.3859
18871TIP3    H278105   2.716   0.070  12.027 -0.7755  0.3613 -0.6824
18872TIP3   OH278106   6.359   5.615   2.017  0.2292  0.4325 -0.1553
18872TIP3    H178107   6.419   5.683   1.985  0.8940 -0.0150  0.1220
18872TIP3    H278108   6.331   5.569   1.938 -1.8928  2.3528 -0.5791
18873TIP3   OH278109   5.712   6.751  13.666  0.1076 -0.2440 -0.4762
18873TIP3    H178110   5.636   6.744  13.608  0.1068 -1.9506 -0.2899
18873TIP3    H278111   5.680   6.722  13.751  0.5304  0.6964  0.0120
18874TIP3   OH278112   0.246   3.600  15.040 -0.1212 -0.0184  0.1566
18874TIP3    H178113   0.224   3.667  15.104 -2.6813 -0.6365 -0.0159
18874TIP3    H278114   0.263   3.521  15.091 -4.3194 -1.0910  0.0756
18875TIP3   OH278115   6.470   5.513  16.107  0.4503 -0.0474  0.0196
18875TIP3    H178116   6.560   5.509  16.075  0.2910 -0.9626 -0.3045
18875TIP3    H278117   6.462   5.601  16.145  0.8599  0.7638 -1.7456
18876TIP3   OH278118   2.286   5.667   5.233 -0.5995 -0.0692 -0.7441
18876TIP3    H178119   2.206   5.621   5.210 -0.5724 -0.9539  0.9224
18876TIP3    H278120   2.355   5.601   5.227 -0.6135 -0.3877  2.0050
18877TIP3   OH278121   4.254   3.265  10.522  0.0840  0.3869 -0.4693
18877TIP3    H178122   4.306   3.304  10.592  0.2286 -3.2003  1.5251
18877TIP3    H278123   4.163   3.273  10.551  0.0718 -0.1330 -0.3504
18878TIP3   OH278124   3.319   6.192  10.845  0.1397 -0.0240 -0.4556
18878TIP3    H178125   3.390   6.257  10.845 -1.1002  1.3898 -1.5181
18878TIP3    H278126   3.292   6.185  10.936  0.6413  0.5964 -0.2578
18879TIP3   OH278127   3.526   5.702  17.091  0.1140  0.5401  0.1264
18879TIP3    H178128   3.494   5.769  17.031 -1.8319  0.6696  1.2690
18879TIP3    H278129   3.615   5.730  17.112 -0.3108  2.2159 -0.2364
18880TIP3   OH278130   3.334   6.213  12.265  0.1315 -0.2530 -0.0287
18880TIP3    H178131   3.274   6.284  12.243  2.5148  1.5309 -0.9229
18880TIP3    H278132   3.294   6.171  12.342 -2.3692  0.7049 -0.7449
18881TIP3   OH278133   0.941   2.688   2.064  0.1796 -0.9444 -0.1893
18881TIP3    H178134   0.954   2.771   2.019 -0.9241 -1.8567 -2.2310
18881TIP3    H278135   0.861   2.700   2.114 -0.1326 -0.8789 -0.7059
18882TIP3   OH278136   2.214   5.660   5.617 -0.2190 -0.8834 -0.1219
18882TIP3    H178137   2.141   5.651   5.556 -0.2873 -1.3980  0.0292
18882TIP3    H278138   2.273   5.589   5.593  0.9905  0.4873 -1.2772
18883TIP3   OH278139   1.517   6.092  12.028 -0.1586  0.6326 -0.0489
18883TIP3    H178140   1.524   6.003  12.063  0.1307  0.4726 -0.4939
18883TIP3    H278141   1.605   6.111  11.996 -0.4551  0.6986 -0.8433
18884TIP3   OH278142   0.062   4.995  14.258  0.3116 -0.5087 -0.7989
18884TIP3    H178143   0.055   5.009  14.164  1.6451  0.7778 -0.7258
18884TIP3    H278144  -0.007   5.050  14.296  2.4402  2.2899 -0.8065
18885TIP3   OH278145   6.535   4.970   2.674 -0.3724  0.0189 -0.0680
18885TIP3    H178146   6.442   4.976   2.697 -0.5509  2.2242 -1.2711
18885TIP3    H278147   6.581   4.988   2.756 -1.0102  0.7811  0.1350
18886TIP3   OH278148   3.637   5.470  15.918 -0.6493  0.2007  0.1917
18886TIP3    H178149   3.595   5.532  15.978  0.4560  1.2144 -0.0651
18886TIP3    H278150   3.569   5.447  15.856 -0.9433  1.5505 -0.0019
18887TIP3   OH278151   2.600   3.809   5.299  0.2805 -0.3799 -0.0586
18887TIP3    H178152   2.683   3.825   5.343 -0.4991 -0.3671  1.4164
18887TIP3    H278153   2.533   3.836   5.362 -0.8384  2.4581 -2.3520
18888TIP3   OH278154   1.865   5.290   3.532 -0.4908 -0.5602  0.3288
18888TIP3    H178155   1.957   5.287   3.506 -0.6230 -0.3603 -0.1746
18888TIP3    H278156   1.823   5.342   3.464 -0.6408  0.9458  1.5536
18889TIP3   OH278157   3.520   6.732  16.026  0.0802  0.4705 -0.2850
18889TIP3    H178158   3.585   6.711  16.092  1.4693  0.9781 -1.4601
18889TIP3    H278159   3.446   6.675  16.045  1.4070 -1.0888  0.2372
18890TIP3   OH278160   5.228   3.912   4.794  0.0259  0.3746 -0.1253
18890TIP3    H178161   5.145   3.880   4.758  0.7994  1.6052 -3.2011
18890TIP3    H278162   5.203   3.989   4.845 -0.6502  1.4574 -2.0363
18891TIP3   OH278163   6.128   0.833  13.200 -0.0386  0.1608  0.3869
18891TIP3    H178164   6.191   0.761  13.212  0.3889  0.8581  2.5630
18891TIP3    H278165   6.047   0.789  13.173  1.3376 -0.7528 -2.3989
18892TIP3   OH278166   3.133   3.730  12.740 -0.1662  0.2415  0.1223
18892TIP3    H178167   3.059   3.711  12.682 -0.2014 -0.4608  0.3885
18892TIP3    H278168   3.182   3.648  12.744 -0.7424 -0.0322  1.9188
18893TIP3   OH278169   5.267   0.413   3.562  0.3939 -0.3737 -0.0753
18893TIP3    H178170   5.277   0.459   3.646 -1.8924  0.0518  0.0019
18893TIP3    H278171   5.250   0.483   3.499 -0.8541 -0.9296 -0.3625
18894TIP3   OH278172   6.043   1.758  16.266  0.4746  0.3029  0.6125
18894TIP3    H178173   6.035   1.839  16.215 -0.0797  0.4909  1.0010
18894TIP3    H278174   6.037   1.787  16.357 -0.8795 -0.3114  0.7255
18895TIP3   OH278175   3.599   4.436   0.378  0.1216 -0.1924 -0.0060
18895TIP3    H178176   3.615   4.438   0.283  0.0258  3.2303 -0.0193
18895TIP3    H278177   3.636   4.353   0.407  1.0772 -0.8306 -2.8948
18896TIP3   OH278178   3.913   1.380  10.879 -1.0599  0.2094 -0.2719
18896TIP3    H178179   3.906   1.305  10.820 -2.5145 -0.5542  0.8292
18896TIP3    H278180   3.999   1.417  10.861 -0.5849 -1.3522 -1.2888
18897TIP3   OH278181   3.362   0.907   2.398  0.4154 -0.7392  0.2429
18897TIP3    H178182   3.410   0.969   2.453 -2.5278  1.7641  0.0793
18897TIP3    H278183   3.352   0.951   2.314 -1.7447 -1.3987  0.1201
18898TIP3   OH278184   3.465   1.578   2.799 -0.0288  0.1563  0.4993
18898TIP3    H178185   3.479   1.483   2.793 -0.1168  0.1731 -0.0473
18898TIP3    H278186   3.550   1.613   2.827  0.5008  0.0783 -0.9562
18899TIP3   OH278187   1.648   0.174   5.369  0.0646 -0.0028 -0.0164
18899TIP3    H178188   1.724   0.123   5.341 -0.6137 -2.7885  2.9367
18899TIP3    H278189   1.577   0.145   5.311 -0.0080 -1.4710  0.7939
18900TIP3   OH278190   0.001   4.924   1.818 -0.5456  0.2466 -0.0402
18900TIP3    H178191   0.095   4.936   1.809 -0.7371  1.0866 -1.0541
18900TIP3    H278192  -0.020   4.849   1.762 -0.5254  0.2689 -0.0779
18901TIP3   OH278193   3.419   5.173   1.389  0.3631  0.3735  0.6845
18901TIP3    H178194   3.452   5.083   1.392 -0.1150  0.1704 -0.1893
18901TIP3    H278195   3.490   5.224   1.350  1.0904  0.5858  2.2528
18902TIP3   OH278196   6.285   5.539   2.931 -0.1819  0.1317 -0.3008
18902TIP3    H178197   6.327   5.489   3.000 -0.0441 -0.7700 -1.0230
18902TIP3    H278198   6.195   5.551   2.961  0.3045  1.2083  0.7908
18903TIP3   OH278199   5.965   6.545   1.528  1.0196 -0.8264  0.6497
18903TIP3    H178200   5.910   6.533   1.606  0.0707 -2.4637 -0.2315
18903TIP3    H278201   6.022   6.468   1.528  0.3128 -1.3632 -0.8204
18904TIP3   OH278202   3.525   0.209  14.008  0.2319  0.0954 -0.0950
18904TIP3    H178203   3.534   0.162  13.925 -3.8401 -0.3166 -0.3783
18904TIP3    H278204   3.488   0.294  13.984  0.1730  0.4471  1.1815
18905TIP3   OH278205   4.672   5.601   6.101 -0.1902 -0.0405  0.5650
18905TIP3    H178206   4.705   5.651   6.027  2.5935 -1.5416  0.7358
18905TIP3    H278207   4.581   5.629   6.110  0.3517  2.5211 -1.3795
18906TIP3   OH278208   2.432   5.370  14.650  0.5191 -0.2460 -0.2614
18906TIP3    H178209   2.414   5.430  14.577 -0.9412  0.6657  0.8131
18906TIP3    H278210   2.346   5.335  14.674  1.0373 -0.8534  0.7484
18907TIP3   OH278211   1.183   3.735   5.018  0.7101  0.0567 -0.2162
18907TIP3    H178212   1.097   3.695   5.025  0.2819  0.8114 -1.0185
18907TIP3    H278213   1.197   3.745   4.924  0.7158  1.9533 -0.0396
18908TIP3   OH278214   4.282   3.692   2.269 -0.4397  0.2100 -0.2288
18908TIP3    H178215   4.340   3.616   2.277 -1.7202 -1.0911 -2.6213
18908TIP3    H278216   4.208   3.672   2.327 -0.6003 -0.2295 -0.5773
18909TIP3   OH278217   2.265   2.143   3.218 -0.0451 -0.4796 -0.3037
18909TIP3    H178218   2.226   2.105   3.139 -0.7074  0.3384 -0.3831
18909TIP3    H278219   2.190   2.164   3.274  0.1575  2.2931 -0.9944
18910TIP3   OH278220   1.499   6.120  16.062 -0.3439  0.0255 -0.1584
18910TIP3    H178221   1.477   6.077  15.979  0.4400 -0.7139  0.0093
18910TIP3    H278222   1.454   6.204  16.058 -0.2890  0.0096 -1.3461
18911TIP3   OH278223   4.869   4.698  15.129 -0.3664  0.1112  0.5489
18911TIP3    H178224   4.886   4.789  15.104 -1.2033  0.4221  1.0966
18911TIP3    H278225   4.801   4.704  15.196 -1.9076 -1.0389 -0.8430
18912TIP3   OH278226   3.660   0.699  12.707  0.5804  0.2908 -0.3105
18912TIP3    H178227   3.747   0.667  12.727  0.3374 -0.7199 -0.8252
18912TIP3    H278228   3.601   0.629  12.736 -0.1036  1.2890  0.7348
18913TIP3   OH278229   0.105   5.574  15.564  0.2067  0.6417  0.4824
18913TIP3    H178230   0.011   5.592  15.559 -0.1614 -0.9496  1.3456
18913TIP3    H278231   0.130   5.553  15.473  0.0836  2.6494 -0.0342
18914TIP3   OH278232   2.598   5.272   3.661 -0.4609  0.2638 -0.3417
18914TIP3    H178233   2.609   5.184   3.697  1.1012 -0.3555 -2.2290
18914TIP3    H278234   2.518   5.266   3.609 -2.5336  1.0685  2.6365
18915TIP3   OH278235   5.334   4.465  10.840 -0.3769  0.2422 -0.0379
18915TIP3    H178236   5.339   4.550  10.797 -1.1571  0.8069  0.9560
18915TIP3    H278237   5.252   4.467  10.889  0.4635 -0.3649  1.4586
18916TIP3   OH278238   5.421   0.908  12.335  0.7707  0.0520  0.0845
18916TIP3    H178239   5.370   0.989  12.341 -0.3407 -0.6599  0.2847
18916TIP3    H278240   5.365   0.848  12.286  0.9947 -1.0707  1.1905
18917TIP3   OH278241   6.277   6.606  11.587 -0.2372 -0.0767  0.0027
18917TIP3    H178242   6.204   6.569  11.537  0.9056 -2.0085 -0.2839
18917TIP3    H278243   6.321   6.530  11.624  0.7185  1.1726  1.4543
18918TIP3   OH278244   2.452   3.109  15.291 -0.0917  0.1511 -0.3069
18918TIP3    H178245   2.489   3.132  15.376 -0.0910 -2.7707  0.5530
18918TIP3    H278246   2.482   3.019  15.276 -0.7735  0.3255 -3.0335
18919TIP3   OH278247   5.559   1.502  15.380 -0.3582  0.1001  0.0732
18919TIP3    H178248   5.543   1.499  15.286  1.7727  0.4677 -0.3277
18919TIP3    H278249   5.501   1.572  15.412 -1.9914 -0.8496 -0.7464
18920TIP3   OH278250   3.211   0.964  13.090 -0.1845  0.4419 -0.1763
18920TIP3    H178251   3.266   0.914  13.029  1.3894  3.4885 -1.3423
18920TIP3    H278252   3.224   0.920  13.175  0.5667 -1.5459 -1.2813
18921TIP3   OH278253   0.601   1.236  16.291  0.1048 -0.4118  0.3943
18921TIP3    H178254   0.612   1.141  16.300 -0.1422 -0.3345  1.7092
18921TIP3    H278255   0.635   1.272  16.373 -0.4032  0.5831  0.1827
18922TIP3   OH278256   0.257   0.163   4.587  1.1961  0.0270  0.4130
18922TIP3    H178257   0.318   0.212   4.532  2.3764  1.2618  2.7505
18922TIP3    H278258   0.202   0.230   4.627  0.1502 -0.8712  0.4997
18923TIP3   OH278259   6.463   1.467   3.070  0.2312  0.4310  0.3781
18923TIP3    H178260   6.427   1.398   3.015 -1.7235  1.8445 -0.1781
18923TIP3    H278261   6.540   1.498   3.023  0.8649 -1.0550  0.4176
18924TIP3   OH278262   3.981   6.100  16.723  0.3288  0.1981 -0.0422
18924TIP3    H178263   3.974   6.115  16.629  1.7766  1.1827 -0.0178
18924TIP3    H278264   3.983   6.005  16.732 -1.3834  0.0599 -0.8632
18925TIP3   OH278265   4.664   6.588  13.888  0.4047  0.4423  0.0932
18925TIP3    H178266   4.579   6.574  13.930  0.6369 -1.3642  0.0129
18925TIP3    H278267   4.709   6.651  13.944 -0.2604 -0.0561  1.2110
18926TIP3   OH278268   6.015   6.242   4.793  0.1286 -0.0807 -0.4266
18926TIP3    H178269   6.069   6.298   4.738  0.2446  0.5015  0.2839
18926TIP3    H278270   6.047   6.153   4.774  0.9576  0.2092 -0.4241
18927TIP3   OH278271   4.101   1.652   4.368  0.2185  0.5250 -0.0741
18927TIP3    H178272   4.068   1.697   4.445  0.8994 -1.0133  1.1495
18927TIP3    H278273   4.186   1.617   4.396  0.8899  0.7230 -1.8037
18928TIP3   OH278274   5.526   0.739  11.813 -0.5748  0.4784 -0.4064
18928TIP3    H178275   5.524   0.835  11.808  1.1020  0.4765 -1.3093
18928TIP3    H278276   5.433   0.713  11.812 -1.0415  2.0881  0.0406
18929TIP3   OH278277   0.309   4.553  12.687  0.7229 -0.3956  0.3763
18929TIP3    H178278   0.300   4.637  12.643 -2.1408 -1.8313 -1.9499
18929TIP3    H278279   0.316   4.575  12.780  1.2870  2.4549 -0.2997
18930TIP3   OH278280   4.533   0.958   3.178  0.3244  0.6659  0.0984
18930TIP3    H178281   4.488   0.894   3.123  2.9023 -0.0299 -1.2663
18930TIP3    H278282   4.489   1.041   3.160  0.4344  0.2505 -2.1994
18931TIP3   OH278283   1.022   2.099  11.884 -0.1644  0.5192  0.0563
18931TIP3    H178284   0.940   2.124  11.928  1.1800 -0.7678  3.4122
18931TIP3    H278285   1.041   2.011  11.917  2.0272  0.3690 -1.5164
18932TIP3   OH278286   2.047   6.605  13.102 -0.5040  0.6482 -0.1448
18932TIP3    H178287   2.013   6.655  13.176 -1.0425 -0.6871  0.5281
18932TIP3    H278288   2.035   6.514  13.127 -0.6552  0.1750 -1.8596
18933TIP3   OH278289   5.441   5.968  15.936  0.6312 -0.2276  0.6823
18933TIP3    H178290   5.455   5.913  15.859 -0.5552 -1.7244  1.5049
18933TIP3    H278291   5.484   6.050  15.914  1.6679 -1.1592 -0.9476
18934TIP3   OH278292   3.467   1.810   3.160  0.0482  0.3402  0.5917
18934TIP3    H178293   3.514   1.776   3.236 -0.8250  1.4793  1.6627
18934TIP3    H278294   3.535   1.831   3.096  0.8022 -0.4010  1.1488
18935TIP3   OH278295   2.964   2.339  10.341  0.0939  0.4578  0.4989
18935TIP3    H178296   2.925   2.366  10.258 -0.2948 -0.1019  0.4959
18935TIP3    H278297   3.057   2.329  10.322 -0.0311  0.0980  0.0665
18936TIP3   OH278298   5.437   4.079  13.904  0.6474 -0.5304 -0.2639
18936TIP3    H178299   5.497   4.059  13.976  0.5103  1.1448  0.3404
18936TIP3    H278300   5.448   4.173  13.889 -1.0664 -0.4086 -0.8632
18937TIP3   OH278301   0.480   6.088  11.289  0.9333  0.1249 -0.3845
18937TIP3    H178302   0.511   6.008  11.245 -0.9164  0.3281 -2.1310
18937TIP3    H278303   0.435   6.137  11.220 -3.1063 -0.0589  1.9658
18938TIP3   OH278304   6.062   6.141  12.462  0.0375  0.1907  0.1588
18938TIP3    H178305   6.154   6.162  12.446  0.4468 -2.2141 -0.8091
18938TIP3    H278306   6.033   6.206  12.526  2.4839  0.8122  0.6672
18939TIP3   OH278307   6.059   4.455   2.347 -0.8219 -0.0250 -0.1310
18939TIP3    H178308   6.074   4.452   2.441  0.6895 -0.4870 -0.3707
18939TIP3    H278309   6.095   4.539   2.319 -3.7199  1.3412  0.0822
18940TIP3   OH278310   1.662   6.139  10.539 -0.3821 -0.4107  0.3177
18940TIP3    H178311   1.612   6.085  10.601  0.9925 -0.0317  1.7793
18940TIP3    H278312   1.661   6.089  10.458  0.7417 -2.6034  1.6099
18941TIP3   OH278313   4.083   1.867  14.869 -0.6547  0.0143 -0.2749
18941TIP3    H178314   4.123   1.782  14.856 -0.2804  0.1031  0.2743
18941TIP3    H278315   4.011   1.870  14.806 -0.5748 -0.6441 -0.3953
18942TIP3   OH278316   4.352   6.283   4.760 -0.0805 -0.0576 -0.7800
18942TIP3    H178317   4.286   6.252   4.821  1.2887  0.4894  1.0038
18942TIP3    H278318   4.395   6.203   4.729 -0.6008 -0.3159 -0.8391
18943TIP3   OH278319   2.410   5.423   5.319  0.7326  1.0191 -0.6095
18943TIP3    H178320   2.350   5.404   5.391  0.6507  1.3960 -0.5753
18943TIP3    H278321   2.477   5.355   5.324  1.1044  1.4399  0.2438
18944TIP3   OH278322   2.529   0.326  12.454 -0.1802  0.1500  0.0260
18944TIP3    H178323   2.511   0.257  12.518 -1.1806  1.3677  1.0852
18944TIP3    H278324   2.454   0.385  12.460  1.2797  2.0477  0.0911
18945TIP3   OH278325   6.104   2.321  16.452 -0.5020  0.2371 -0.2705
18945TIP3    H178326   6.028   2.267  16.429 -0.9665  1.8298 -2.6230
18945TIP3    H278327   6.076   2.411  16.435  1.9877  0.8367 -1.4540
18946TIP3   OH278328   2.483   2.597  14.152  0.0673 -0.1089  0.4268
18946TIP3    H178329   2.392   2.580  14.177 -0.3630 -0.2783 -1.1861
18946TIP3    H278330   2.498   2.539  14.077  1.5421 -0.1436  0.7353
18947TIP3   OH278331   5.186   5.206  13.951  0.4680  0.0307  0.0814
18947TIP3    H178332   5.161   5.134  14.009  0.8766 -0.6766 -0.6020
18947TIP3    H278333   5.103   5.234  13.912  0.5232 -1.3424 -1.0815
18948TIP3   OH278334   4.246   2.224   2.277  0.3521 -0.3787  0.3817
18948TIP3    H178335   4.284   2.196   2.194  2.7879  0.7064  1.0868
18948TIP3    H278336   4.268   2.317   2.282 -2.2445  0.2281  0.9316
18949TIP3   OH278337   4.485   4.216  13.333  0.4608 -0.3942  0.1899
18949TIP3    H178338   4.513   4.165  13.409  1.7049 -0.1377 -0.0762
18949TIP3    H278339   4.524   4.171  13.258  1.5863  0.9308 -0.0486
18950TIP3   OH278340   5.998   6.443   5.731  0.0682 -0.0851 -0.1916
18950TIP3    H178341   6.076   6.403   5.768  0.0052  0.4076  0.4727
18950TIP3    H278342   6.002   6.535   5.757 -1.2758 -0.2835  0.7790
18951TIP3   OH278343   0.063   6.070  13.918 -0.1312 -0.0089  0.0561
18951TIP3    H178344   0.101   5.991  13.958 -1.4396 -0.5036  0.3633
18951TIP3    H278345  -0.007   6.095  13.979 -2.1596 -0.7722 -1.9063
18952TIP3   OH278346   5.838   3.079   6.530  0.7459 -0.4046 -0.2738
18952TIP3    H178347   5.829   2.985   6.518  3.1664 -0.6283 -0.6439
18952TIP3    H278348   5.750   3.109   6.553 -0.0194 -2.7649  0.0266
18953TIP3   OH278349   6.446   3.443   4.296 -0.9894 -0.0621 -0.1371
18953TIP3    H178350   6.519   3.385   4.315 -0.2906  1.1828  1.0969
18953TIP3    H278351   6.464   3.476   4.208  0.5650  1.1377  0.6091
18954TIP3   OH278352   5.522   4.853  14.327 -0.0782 -0.7008  0.9961
18954TIP3    H178353   5.463   4.908  14.378 -0.3726 -0.6600  0.6173
18954TIP3    H278354   5.472   4.772  14.312  0.8390 -1.5802  2.6504
18955TIP3   OH278355   4.759   5.742   5.139  0.2132 -0.4180 -0.2529
18955TIP3    H178356   4.742   5.786   5.222 -1.1537  0.5704 -1.0290
18955TIP3    H278357   4.767   5.649   5.162  3.2825  0.2145  1.4172
18956TIP3   OH278358   2.852   3.240  16.723 -0.4269 -0.5859  0.1501
18956TIP3    H178359   2.860   3.150  16.754 -0.3317 -0.5137  0.3344
18956TIP3    H278360   2.923   3.248  16.658 -0.3717 -0.6123  0.2086
18957TIP3   OH278361   2.359   6.233  13.675  0.4490  0.3144  0.8457
18957TIP3    H178362   2.349   6.267  13.763  0.3081  0.7556  0.6616
18957TIP3    H278363   2.282   6.177  13.662 -0.9185  2.3194  0.0621
18958TIP3   OH278364   5.384   5.628   4.158  0.1108 -0.2842 -0.0372
18958TIP3    H178365   5.387   5.607   4.065  0.4998 -2.6558  0.4611
18958TIP3    H278366   5.458   5.687   4.172 -0.3329  0.5852 -1.3341
18959TIP3   OH278367   4.832   3.817   1.093  0.1565 -0.6105 -0.3231
18959TIP3    H178368   4.793   3.891   1.140 -0.3971 -0.6502 -0.7158
18959TIP3    H278369   4.866   3.760   1.162 -2.4896 -1.6961  0.1289
18960TIP3   OH278370   3.590   5.958   1.545 -0.2430  0.6125 -0.2761
18960TIP3    H178371   3.527   6.020   1.506 -1.2864 -0.0726  0.3051
18960TIP3    H278372   3.538   5.906   1.605  1.5084  2.1943  2.7032
18961TIP3   OH278373   6.044   6.677   3.935 -0.0552 -0.3482  0.2922
18961TIP3    H178374   5.950   6.673   3.913 -0.3508  1.2969  1.2036
18961TIP3    H278375   6.087   6.696   3.852 -0.4825 -1.3980 -0.1903
18962TIP3   OH278376   1.939   0.856   0.138 -0.1627 -0.2087 -0.3950
18962TIP3    H178377   1.976   0.851   0.050  0.2870  1.3901 -0.3136
18962TIP3    H278378   1.943   0.949   0.160 -1.5058 -0.4116  0.7855
18963TIP3   OH278379   4.913   1.794  17.023 -0.1500 -0.1609  0.3890
18963TIP3    H178380   4.883   1.740  17.096  1.9190  0.3213  1.6360
18963TIP3    H278381   4.898   1.884  17.051 -2.3090 -0.0169 -1.1229
18964TIP3   OH278382   1.651   0.341   5.044  0.0328  0.6846 -0.1024
18964TIP3    H178383   1.592   0.295   5.102 -0.7393 -1.9058 -2.8109
18964TIP3    H278384   1.739   0.324   5.079 -0.2765 -2.5337 -0.7948
18965TIP3   OH278385   0.331   0.662  15.372 -0.6067  0.3417  0.3775
18965TIP3    H178386   0.387   0.671  15.449 -1.1773  1.5203  0.6654
18965TIP3    H278387   0.242   0.664  15.407 -0.8525 -0.6464 -0.1691
18966TIP3   OH278388   1.827   2.997  11.351  0.0206 -0.6565  0.0848
18966TIP3    H178389   1.785   2.974  11.433  2.6065 -2.9937  0.8380
18966TIP3    H278390   1.758   2.987  11.285 -1.4052 -1.3166  1.6484
18967TIP3   OH278391   4.959   3.952  15.505 -0.2469 -0.2878  0.1698
18967TIP3    H178392   4.898   3.986  15.439  0.5692 -0.6619 -0.7977
18967TIP3    H278393   4.933   3.860  15.517  0.8296 -0.7779 -1.1024
18968TIP3   OH278394   5.135   5.143  14.654  0.0005 -0.3412 -0.2658
18968TIP3    H178395   5.183   5.111  14.731  2.3907  0.8720 -1.1928
18968TIP3    H278396   5.110   5.232  14.678 -0.1665 -0.3245 -0.5013
18969TIP3   OH278397   4.497   6.267  10.834 -0.6420 -0.4179 -0.2233
18969TIP3    H178398   4.518   6.311  10.752  0.8115 -2.1249 -0.8015
18969TIP3    H278399   4.470   6.179  10.808 -0.1038 -0.9916  1.1331
18970TIP3   OH278400   0.168   4.727   1.112  0.5924 -0.0621  0.3455
18970TIP3    H178401   0.146   4.662   1.179 -0.4750  0.8244  0.8710
18970TIP3    H278402   0.095   4.723   1.050  1.0520 -0.1173 -0.1963
18971TIP3   OH278403   3.971   0.935   1.968  0.0503  0.2135 -0.0225
18971TIP3    H178404   3.921   0.961   1.891  0.0748  0.1013 -0.0756
18971TIP3    H278405   4.002   1.018   2.005 -1.0553  0.3667  0.6066
18972TIP3   OH278406   1.197   5.644   0.776  0.2008 -0.1054  0.3373
18972TIP3    H178407   1.158   5.577   0.833  1.8558 -1.5926 -0.2395
18972TIP3    H278408   1.175   5.727   0.819  0.5912 -1.1432  2.6319
18973TIP3   OH278409   4.241   3.666   5.997 -0.4843 -0.3726 -0.0590
18973TIP3    H178410   4.296   3.733   6.037 -0.3278 -1.8583  2.2849
18973TIP3    H278411   4.198   3.712   5.924 -2.0078  2.8532  2.7374
18974TIP3   OH278412   1.116   2.428  13.875 -0.2651  0.3604  0.0594
18974TIP3    H178413   1.068   2.450  13.954  0.0788  3.3467 -0.5121
18974TIP3    H278414   1.115   2.332  13.872 -0.4961  0.2019  3.5152
18975TIP3   OH278415   3.270   3.010   2.735 -0.3540  0.1760 -0.3192
18975TIP3    H178416   3.290   3.095   2.776 -0.9045  1.0899 -1.9191
18975TIP3    H278417   3.331   2.949   2.776  1.0702  1.6367 -0.2270
18976TIP3   OH278418   3.167   1.829   4.592 -0.3912 -0.2231  0.1759
18976TIP3    H178419   3.104   1.869   4.651 -0.0226 -0.3996  0.6885
18976TIP3    H278420   3.249   1.874   4.610  0.2003 -1.7247  1.2943
18977TIP3   OH278421   6.559   4.109   0.469  0.0475 -0.1842 -0.4063
18977TIP3    H178422   6.497   4.048   0.511 -0.2107  0.1711 -0.2716
18977TIP3    H278423   6.643   4.063   0.474 -0.1583 -0.5668 -0.3741
18978TIP3   OH278424   6.392   4.262  13.205 -0.1345 -0.3918 -0.1987
18978TIP3    H178425   6.426   4.223  13.286  1.9812  1.3594 -0.1812
18978TIP3    H278426   6.320   4.318  13.233  0.4011 -0.0204  0.4513
18979TIP3   OH278427   4.450   2.281   6.378 -0.1370 -0.0514  0.0605
18979TIP3    H178428   4.382   2.304   6.441 -0.4039 -1.4223  0.2813
18979TIP3    H278429   4.467   2.188   6.394  1.1370  0.0578 -0.6072
18980TIP3   OH278430   0.377   3.375  17.077  0.0315 -0.6849 -0.6291
18980TIP3    H178431   0.454   3.407  17.124 -1.0900 -0.3737  1.0196
18980TIP3    H278432   0.365   3.286  17.107  0.3477 -1.0957 -1.6826
18981TIP3   OH278433   3.815   6.310   0.296  0.1423 -0.2076 -1.2109
18981TIP3    H178434   3.883   6.355   0.245 -0.4079 -0.4945 -2.2258
18981TIP3    H278435   3.779   6.245   0.235  1.3107 -2.4496  0.4014
18982TIP3   OH278436   3.234   4.326   1.245 -0.1309 -0.5676  0.2999
18982TIP3    H178437   3.305   4.305   1.184 -1.2015 -2.2663 -0.3851
18982TIP3    H278438   3.277   4.328   1.331  1.3309  1.5522 -0.4314
18983TIP3   OH278439   6.454   1.450  11.585  0.0181 -0.2350 -0.1287
18983TIP3    H178440   6.529   1.400  11.552 -0.9573 -1.9419  0.1867
18983TIP3    H278441   6.464   1.448  11.680 -0.9979 -1.3806 -0.0418
18984TIP3   OH278442   2.998   5.699   5.101  0.1956  0.0973 -0.0022
18984TIP3    H178443   3.023   5.723   5.191  0.2202 -0.2556  0.0841
18984TIP3    H278444   3.019   5.777   5.049  1.5497 -0.2315  0.0530
18985TIP3   OH278445   6.116   5.583  16.710  0.4145  0.1524 -0.0568
18985TIP3    H178446   6.208   5.606  16.706  0.6799 -1.0685 -1.4943
18985TIP3    H278447   6.071   5.654  16.664  0.6478  0.6708  0.5169
18986TIP3   OH278448   5.362   4.136   2.091  0.2528  0.0301 -0.3323
18986TIP3    H178449   5.321   4.050   2.092  0.5909 -0.1301 -0.1055
18986TIP3    H278450   5.293   4.196   2.121  0.2315 -0.2619  0.2151
18987TIP3   OH278451   1.029   5.935   6.000  0.0844 -0.3068  0.2227
18987TIP3    H178452   1.079   5.857   5.974  0.7068 -0.3191  1.4017
18987TIP3    H278453   0.943   5.923   5.960  0.4771 -1.1508 -0.3769
18988TIP3   OH278454   1.260   5.431  17.143  0.6052 -0.1252 -0.2446
18988TIP3    H178455   1.225   5.482  17.070  1.3158 -1.2118 -1.3715
18988TIP3    H278456   1.189   5.429  17.208 -0.4739 -0.1384 -1.4080
18989TIP3   OH278457   6.028   4.838   2.846  0.6312 -0.4635  0.0823
18989TIP3    H178458   5.984   4.911   2.891  1.9515  0.1657  0.3849
18989TIP3    H278459   6.103   4.817   2.902 -0.1891 -2.6161  0.4095
18990TIP3   OH278460   2.725   0.836  12.857 -0.3626 -0.4078  0.2080
18990TIP3    H178461   2.706   0.745  12.881 -1.2273 -0.4065 -0.4716
18990TIP3    H278462   2.726   0.882  12.941 -0.5384 -0.9285  0.5049
18991TIP3   OH278463   1.624   0.296   0.374 -0.7048 -0.0425  0.1290
18991TIP3    H178464   1.599   0.229   0.310  1.6367  0.4868 -1.4027
18991TIP3    H278465   1.697   0.256   0.423 -1.8133 -0.0548  1.8011
18992TIP3   OH278466   6.585   4.827  14.795  0.0134  0.2812 -0.0312
18992TIP3    H178467   6.654   4.761  14.807 -0.5196 -0.1300  0.8346
18992TIP3    H278468   6.534   4.795  14.720  0.1023  0.0116  0.0210
18993TIP3   OH278469   0.473   0.656  13.422 -0.1374 -0.0718 -0.0419
18993TIP3    H178470   0.393   0.624  13.465 -0.1764  0.9971  0.6821
18993TIP3    H278471   0.530   0.579  13.418 -1.1307 -0.8097 -0.4243
18994TIP3   OH278472   6.729   1.143  16.281 -0.3959 -0.0963 -0.0303
18994TIP3    H178473   6.646   1.182  16.306  0.8586  2.1228  0.7907
18994TIP3    H278474   6.792   1.214  16.287  1.7068 -1.9087  0.0908
18995TIP3   OH278475   2.411   2.098   3.444 -0.3286  0.2831 -0.4404
18995TIP3    H178476   2.497   2.135   3.420  0.8732 -1.5746  0.8398
18995TIP3    H278477   2.374   2.068   3.362 -0.0936  1.8153 -1.1163
18996TIP3   OH278478   1.178   2.801  15.786  0.0151  0.3475  0.0192
18996TIP3    H178479   1.172   2.790  15.691  0.6203 -1.0413  0.1194
18996TIP3    H278480   1.134   2.883  15.805 -0.1217  0.6132 -1.4686
18997TIP3   OH278481   0.800   3.801  16.815 -0.6132 -0.3934 -0.4356
18997TIP3    H178482   0.803   3.834  16.726 -1.7519  1.3137  0.1275
18997TIP3    H278483   0.882   3.831  16.855 -1.2934  1.1334 -0.1516
18998TIP3   OH278484   5.920   1.388   0.292  0.4284 -0.4399  0.1169
18998TIP3    H178485   5.927   1.348   0.205  0.3689 -1.2338  0.4765
18998TIP3    H278486   5.827   1.409   0.300  0.3924 -0.5865  0.0882
18999TIP3   OH278487   5.436   6.307  13.710 -0.4947 -0.0387 -0.1775
18999TIP3    H178488   5.357   6.331  13.660 -0.0607  0.4191 -0.6640
18999TIP3    H278489   5.488   6.256  13.648  0.2080  0.8344 -0.3108
19000TIP3   OH278490   1.633   0.275  16.531 -0.0334  0.9026  0.1405
19000TIP3    H178491   1.633   0.370  16.530 -0.4574  0.9100  0.6638
19000TIP3    H278492   1.670   0.252  16.617 -1.6790  0.6133  0.7837
19001TIP3   OH278493   4.486   1.420   3.979  0.7023 -0.0467 -0.0291
19001TIP3    H178494   4.417   1.375   4.029  0.9962  0.1086  0.5148
19001TIP3    H278495   4.537   1.350   3.941 -0.5665 -0.1721 -1.5615
19002TIP3   OH278496   5.971   0.403  14.618 -0.3365  0.2927 -0.0870
19002TIP3    H178497   5.961   0.495  14.594 -0.7992  0.1655 -0.4080
19002TIP3    H278498   5.970   0.356  14.534  0.9131  0.0795  0.0093
19003TIP3   OH278499   6.477   1.557   0.831 -0.0874 -0.1005  0.1314
19003TIP3    H178500   6.535   1.500   0.780 -0.4364 -0.7353  0.4412
19003TIP3    H278501   6.493   1.645   0.796 -1.2999 -0.6913 -2.0119
19004TIP3   OH278502   3.748   5.360   4.838  0.1557 -0.2040 -0.6705
19004TIP3    H178503   3.659   5.324   4.842  0.2814 -0.5802 -1.2517
19004TIP3    H278504   3.787   5.333   4.922 -0.7448  1.2289  0.2315
19005TIP3   OH278505   3.152   4.542   0.423 -0.5292 -0.1366  0.4404
19005TIP3    H178506   3.099   4.621   0.426  0.2389  0.3783  0.8703
19005TIP3    H278507   3.105   4.483   0.365 -1.3784  0.4399  0.5346
19006TIP3   OH278508   2.763   2.894   2.925  0.4133 -0.0301 -0.1492
19006TIP3    H178509   2.678   2.855   2.942 -0.3166  1.0785 -1.0988
19006TIP3    H278510   2.809   2.831   2.869  0.9836 -1.5088  1.9635
19007TIP3   OH278511   5.138   0.052   6.202  0.3832  0.1725 -0.4034
19007TIP3    H178512   5.045   0.031   6.211  0.1955  0.6768 -1.1253
19007TIP3    H278513   5.163   0.086   6.287 -0.2473  0.6186 -0.3931
19008TIP3   OH278514   1.709   1.296  14.056  0.2026  0.1459  0.7300
19008TIP3    H178515   1.689   1.384  14.089  2.3502  0.7883  0.4181
19008TIP3    H278516   1.668   1.237  14.119 -1.4020  1.3587  0.8618
19009TIP3   OH278517   5.116   2.211   0.846  0.2281 -0.2076  0.2240
19009TIP3    H178518   5.057   2.138   0.864 -1.0160  1.0308  1.2639
19009TIP3    H278519   5.064   2.272   0.794  0.8513  0.5132  0.4290
19010TIP3   OH278520   1.249   4.315   4.025 -0.2953  0.3845 -0.6643
19010TIP3    H178521   1.332   4.276   4.052 -0.1801  1.0027 -0.1113
19010TIP3    H278522   1.210   4.250   3.967 -0.6861 -1.1079  1.2240
19011TIP3   OH278523   0.956   2.772   0.676  0.2680  0.3046 -0.2034
19011TIP3    H178524   0.942   2.795   0.584  3.0660 -0.0772 -0.7675
19011TIP3    H278525   0.884   2.712   0.697 -0.9467  1.1434 -1.8500
19012TIP3   OH278526   3.465   1.203   2.246 -0.3889 -0.3710 -0.4267
19012TIP3    H178527   3.382   1.249   2.235  0.0830  1.1365  1.9939
19012TIP3    H278528   3.469   1.182   2.339  1.8118 -0.6858 -0.5603
19013TIP3   OH278529   5.855   2.154  11.669 -0.4654  0.4805 -0.5576
19013TIP3    H178530   5.834   2.111  11.586  0.0051  1.7048 -1.3169
19013TIP3    H278531   5.879   2.243  11.645  2.6679  0.0129  0.5643
19014TIP3   OH278532   0.642   4.037   5.969 -0.5265  0.0306  0.4548
19014TIP3    H178533   0.616   3.949   5.940 -0.6000  0.3379 -0.4098
19014TIP3    H278534   0.703   4.021   6.042 -0.8441 -0.7313  0.5543
19015TIP3   OH278535   0.946   4.929   0.254 -0.1897 -0.0296  0.0053
19015TIP3    H178536   0.969   4.971   0.172  1.9610 -0.7265  0.2132
19015TIP3    H278537   0.984   4.985   0.322 -1.9729  0.5589  0.5509
19016TIP3   OH278538   1.025   3.676  15.735  0.1835  0.2716 -0.2160
19016TIP3    H178539   1.104   3.649  15.687 -0.6779 -0.8035 -1.0815
19016TIP3    H278540   1.030   3.629  15.818  0.2956 -0.0603 -0.4079
19017TIP3   OH278541   4.297   1.701   2.304  0.2087  0.3054  0.5967
19017TIP3    H178542   4.274   1.786   2.267  0.0751 -0.1207 -0.3182
19017TIP3    H278543   4.368   1.669   2.248 -1.2150 -1.1586 -0.4317
19018TIP3   OH278544   2.395   0.081  13.161  0.0262  0.3126  0.1944
19018TIP3    H178545   2.375  -0.012  13.153 -1.3736  0.6136 -0.0015
19018TIP3    H278546   2.491   0.086  13.161  0.1070 -1.1815  0.9641
19019TIP3   OH278547   2.407   2.995  16.893 -0.4618  0.0217  0.1745
19019TIP3    H178548   2.433   2.970  16.982  0.0270 -1.0757 -0.2745
19019TIP3    H278549   2.490   3.006  16.846 -0.5211  4.7247  0.9220
19020TIP3   OH278550   1.071   5.837   4.422  0.5612  0.1815  0.2216
19020TIP3    H178551   1.049   5.793   4.340 -1.0685  0.7329  0.3353
19020TIP3    H278552   0.994   5.890   4.442  0.3796 -0.9751  2.8088
19021TIP3   OH278553   5.388   6.435  12.667 -0.1294 -0.3338 -0.4172
19021TIP3    H178554   5.299   6.461  12.689 -0.6266 -1.4551 -1.0593
19021TIP3    H278555   5.378   6.361  12.607  1.2406 -1.3496  0.5759
19022TIP3   OH278556   4.266   2.189   4.872 -0.4638 -0.5454 -0.2685
19022TIP3    H178557   4.359   2.208   4.867 -0.9359  1.8146 -0.4239
19022TIP3    H278558   4.225   2.245   4.806 -1.8908 -2.4150 -1.0472
19023TIP3   OH278559   4.889   4.123   0.255  0.2795 -0.3042  0.4444
19023TIP3    H178560   4.912   4.155   0.342  1.5495 -1.5166  0.5803
19023TIP3    H278561   4.873   4.202   0.204  0.4923  0.4472  1.5129
19024TIP3   OH278562   6.342   0.133  12.160 -0.6406 -0.1762 -0.0495
19024TIP3    H178563   6.314   0.157  12.071  1.4260  2.7450  0.0282
19024TIP3    H278564   6.431   0.100  12.148 -0.3259  0.3170  0.9746
19025TIP3   OH278565   4.571   1.490   1.354 -0.4829  0.4203 -0.1475
19025TIP3    H178566   4.486   1.476   1.312 -0.0927 -0.1200 -0.7524
19025TIP3    H278567   4.567   1.439   1.434 -0.7636  0.4746 -0.1254
19026TIP3   OH278568   0.516   2.632  14.201 -0.0569  0.6535  0.2625
19026TIP3    H178569   0.429   2.603  14.226 -0.2530  0.2957 -0.7970
19026TIP3    H278570   0.507   2.727  14.189  0.1564  0.9051  1.9687
19027TIP3   OH278571   5.698   4.480  11.381 -0.0556  0.4675 -0.7872
19027TIP3    H178572   5.715   4.542  11.451 -1.5242 -0.2008  0.1903
19027TIP3    H278573   5.631   4.522  11.327 -3.3827 -1.4176  1.5995
19028TIP3   OH278574   2.729   3.803   1.923 -0.0728 -0.8316  0.3867
19028TIP3    H178575   2.725   3.855   1.843  0.1975  0.7150  1.3516
19028TIP3    H278576   2.821   3.805   1.949 -0.1490 -1.3760  0.7159
19029TIP3   OH278577   3.194   0.848  13.605 -0.2892 -0.1146  0.1671
19029TIP3    H178578   3.169   0.763  13.568  0.1324  0.0036 -0.3944
19029TIP3    H278579   3.123   0.907  13.580  0.0754  0.0027 -0.6051
19030TIP3   OH278580   0.318   0.686   2.239 -0.6823 -0.0742  0.3784
19030TIP3    H178581   0.325   0.781   2.249 -1.3501  0.3490 -2.7414
19030TIP3    H278582   0.380   0.663   2.170 -1.1509 -1.7691  0.4753
19031TIP3   OH278583   4.168   0.244   5.945  0.2636  0.2262 -0.3855
19031TIP3    H178584   4.145   0.185   5.873  1.2126  2.1787 -2.3425
19031TIP3    H278585   4.170   0.187   6.022 -2.7520 -1.5560 -1.5043
19032TIP3   OH278586   0.833   2.326   5.488 -0.2482  0.4752  0.3642
19032TIP3    H178587   0.844   2.323   5.583  0.9488  1.4949  0.2714
19032TIP3    H278588   0.922   2.314   5.454 -0.7013 -0.0660 -0.6255
19033TIP3   OH278589   5.559   4.528   3.795 -0.4012  0.0308 -0.4555
19033TIP3    H178590   5.491   4.462   3.785  0.1589 -0.4606 -1.0663
19033TIP3    H278591   5.637   4.479   3.821 -1.1911  0.9954  4.1465
19034TIP3   OH278592   0.608   5.567   5.734 -0.2146  0.2726  0.1894
19034TIP3    H178593   0.554   5.578   5.655 -0.0859  0.4450  0.1244
19034TIP3    H278594   0.624   5.473   5.739  0.4869  0.3563 -0.4661
19035TIP3   OH278595   5.198   4.419  15.628 -0.5500 -0.3681  0.7869
19035TIP3    H178596   5.173   4.331  15.599 -3.0588 -0.0494  1.8881
19035TIP3    H278597   5.162   4.426  15.717 -0.8476  1.9529  0.5055
19036TIP3   OH278598   6.586   1.875   2.110  0.1810 -0.0261 -0.3769
19036TIP3    H178599   6.575   1.949   2.051 -1.6219  0.4610  0.5452
19036TIP3    H278600   6.499   1.836   2.117  0.2147  0.3296  2.4909
19037TIP3   OH278601   1.723   4.406   2.775 -0.1047  0.2209 -0.1762
19037TIP3    H178602   1.649   4.388   2.718  0.1728 -0.2966 -0.3731
19037TIP3    H278603   1.746   4.497   2.756 -1.1428  0.6123  0.4179
19038TIP3   OH278604   3.879   5.684  14.548 -0.2410  0.3460  0.4742
19038TIP3    H178605   3.824   5.676  14.625 -0.9281  0.2205 -0.0241
19038TIP3    H278606   3.822   5.658  14.475  1.2484 -2.4949  0.2247
19039TIP3   OH278607   0.752   1.229  14.148 -0.2100 -0.5083 -0.1336
19039TIP3    H178608   0.844   1.251  14.135 -0.1169 -0.6147  0.3036
19039TIP3    H278609   0.745   1.214  14.243 -0.9191  0.6094 -0.0009
19040TIP3   OH278610   1.313   5.039   4.514 -0.4261  0.5585  0.3412
19040TIP3    H178611   1.326   5.132   4.531 -2.8262  1.1832 -1.0100
19040TIP3    H278612   1.228   5.034   4.471 -0.1640 -2.2327  0.0439
19041TIP3   OH278613   4.644   0.823   4.012  0.6756 -0.3133 -0.6197
19041TIP3    H178614   4.626   0.880   4.087  2.4243  1.9359 -1.8205
19041TIP3    H278615   4.661   0.738   4.050  0.2860  0.5053  1.4474
19042TIP3   OH278616   5.326   5.369   5.638 -0.3454  0.5576  0.0059
19042TIP3    H178617   5.316   5.449   5.688  0.3100  1.0490 -0.6309
19042TIP3    H278618   5.260   5.310   5.673 -0.6446  1.2788  0.6690
19043TIP3   OH278619   5.475   4.146  14.775 -0.1554 -0.0890  0.3000
19043TIP3    H178620   5.438   4.222  14.730 -0.7911 -1.9164 -2.3597
19043TIP3    H278621   5.553   4.180  14.819 -0.2087  2.0165 -1.1641
19044TIP3   OH278622   0.760   3.428   5.185 -0.1898 -0.3798  0.1796
19044TIP3    H178623   0.728   3.472   5.264 -0.1406  0.0558 -0.0430
19044TIP3    H278624   0.687   3.432   5.123 -1.0273 -2.6502  0.9446
19045TIP3   OH278625   5.491   0.713  15.657  0.0772  0.4102 -0.0573
19045TIP3    H178626   5.470   0.738  15.567  1.8653  0.3453 -0.5076
19045TIP3    H278627   5.507   0.797  15.702  1.5057  0.3271 -0.3997
19046TIP3   OH278628   3.206   1.009   5.571  0.0730 -0.0349  0.3317
19046TIP3    H178629   3.195   1.056   5.653 -2.3695 -0.9853  0.6120
19046TIP3    H278630   3.162   1.063   5.506  2.7986  1.1761 -0.5797
19047TIP3   OH278631   2.082   3.583  15.731  0.5348 -0.3548  0.2537
19047TIP3    H178632   2.172   3.580  15.699  0.0185 -0.1878 -1.2798
19047TIP3    H278633   2.030   3.609  15.654 -0.5090  2.2697  1.7603
19048TIP3   OH278634   4.560   5.471  15.069  0.1018  0.6448  0.3800
19048TIP3    H178635   4.574   5.507  15.157 -0.3770  0.6882  0.4374
19048TIP3    H278636   4.647   5.474  15.029  0.3516  0.4830  0.9051
19049TIP3   OH278637   5.279   5.463   2.558  0.2049 -0.3261 -0.3242
19049TIP3    H178638   5.237   5.402   2.496  0.7339  0.8357 -1.8708
19049TIP3    H278639   5.206   5.503   2.606 -0.2107 -1.2879 -0.1434
19050TIP3   OH278640   2.234   3.929  11.571  0.3100 -0.0567 -0.4068
19050TIP3    H178641   2.317   3.880  11.578  0.1081 -0.2134  0.9983
19050TIP3    H278642   2.261   4.021  11.569  0.5321 -0.1106 -0.0593
19051TIP3   OH278643   2.405   5.310   3.458 -0.2744  0.1766  0.4026
19051TIP3    H178644   2.409   5.382   3.396  2.4357 -0.1653  0.1218
19051TIP3    H278645   2.416   5.231   3.405 -3.8940 -0.5524  0.6179
19052TIP3   OH278646   5.012   0.878  16.834 -0.3480  0.9643 -0.0957
19052TIP3    H178647   4.975   0.883  16.745 -2.1160  1.3412  0.6373
19052TIP3    H278648   4.940   0.846  16.888  0.9690 -0.1136  1.0762
19053TIP3   OH278649   0.837   1.682   1.384 -0.2286 -0.2623 -0.2272
19053TIP3    H178650   0.817   1.589   1.376  0.7832 -0.4899 -0.2336
19053TIP3    H278651   0.933   1.685   1.392 -0.2849  0.7503  0.1410
19054TIP3   OH278652   2.644   1.906  16.752  0.7962  0.2288  0.6825
19054TIP3    H178653   2.550   1.891  16.762  0.2463  1.5110 -2.0577
19054TIP3    H278654   2.679   1.821  16.723  0.4468 -0.1740  1.4288
19055TIP3   OH278655   1.357   1.412   3.769  0.1355  0.1385 -0.1519
19055TIP3    H178656   1.367   1.420   3.864  1.5490 -0.5040 -0.2293
19055TIP3    H278657   1.340   1.319   3.754 -4.6407  0.8898 -0.1944
19056TIP3   OH278658   3.274   2.713   5.701  0.0463 -0.1515 -0.7114
19056TIP3    H178659   3.274   2.731   5.607  1.7123  0.2959 -0.6295
19056TIP3    H278660   3.206   2.771   5.736 -0.1044  0.1809 -1.5349
19057TIP3   OH278661   0.940   3.459  11.724 -0.5902 -0.2110 -0.0158
19057TIP3    H178662   0.940   3.538  11.670  0.8253 -0.2382 -0.0578
19057TIP3    H278663   1.029   3.452  11.758 -1.0624 -1.0475  1.0834
19058TIP3   OH278664   6.580   0.541   0.219  0.0413  0.1165 -0.1458
19058TIP3    H178665   6.517   0.538   0.147  2.1817  0.5863 -2.0911
19058TIP3    H278666   6.577   0.631   0.251 -1.4225 -0.2673  0.8691
19059TIP3   OH278667   0.816   6.408   4.798  0.5039  0.5825  0.8422
19059TIP3    H178668   0.821   6.344   4.728  2.1319 -0.1804  1.6255
19059TIP3    H278669   0.748   6.375   4.857 -1.6522  1.7875 -0.8723
19060TIP3   OH278670   3.050   3.913   1.366  0.5435 -0.1383  0.0909
19060TIP3    H178671   3.055   3.926   1.271 -0.5898  3.6390  0.4785
19060TIP3    H278672   2.989   3.839   1.377  0.6037 -0.5457 -2.0923
19061TIP3   OH278673   3.277   4.948   4.993 -0.2232 -0.3753  0.4829
19061TIP3    H178674   3.228   4.999   4.928  1.4157  1.6516  0.7774
19061TIP3    H278675   3.320   4.879   4.942  0.4977  0.7781 -0.5067
19062TIP3   OH278676   3.656   3.124  12.036  0.3125  0.3330 -0.0955
19062TIP3    H178677   3.621   3.213  12.027  0.9489  0.8754  2.4134
19062TIP3    H278678   3.743   3.129  11.997  0.8229  1.1525  1.1004
19063TIP3   OH278679   2.629   6.220  13.558  0.3621  0.6849  0.1941
19063TIP3    H178680   2.690   6.276  13.604  1.4558 -1.1011  0.9742
19063TIP3    H278681   2.542   6.249  13.586  0.9564  1.1439  1.5549
19064TIP3   OH278682   4.598   6.403   0.420 -0.4048 -0.1041  0.0443
19064TIP3    H178683   4.583   6.339   0.490  0.2748  0.3726  0.6272
19064TIP3    H278684   4.690   6.392   0.397  0.0235  1.4331  0.9262
19065TIP3   OH278685   6.201   0.126   2.254  0.1365 -0.5448  0.2511
19065TIP3    H178686   6.290   0.096   2.273  0.3323  0.0808  0.3283
19065TIP3    H278687   6.212   0.211   2.211 -0.4750  0.6270  2.3312
19066TIP3   OH278688   1.376   3.323   0.115 -0.3554  0.8321  0.1379
19066TIP3    H178689   1.399   3.230   0.103 -0.4361  0.9049 -0.5832
19066TIP3    H278690   1.382   3.360   0.028 -2.2666  1.0861  0.1069
19067TIP3   OH278691   2.499   4.511  13.353  0.3884  0.2820  0.2590
19067TIP3    H178692   2.422   4.541  13.304 -1.3006  0.2908  2.8022
19067TIP3    H278693   2.530   4.589  13.399  1.4088  0.0878 -0.0892
19068TIP3   OH278694   1.988   1.324  12.054  0.4126  0.2894  0.5730
19068TIP3    H178695   2.056   1.373  12.101  2.2146 -1.2002 -0.4251
19068TIP3    H278696   2.008   1.337  11.962 -0.4624 -0.4326  0.2740
19069TIP3   OH278697   1.148   0.225   4.759  0.1973  0.3739 -0.0312
19069TIP3    H178698   1.193   0.261   4.835  0.4175  0.3022 -0.1284
19069TIP3    H278699   1.095   0.153   4.794 -0.0537  0.6367  0.1255
19070TIP3   OH278700   2.594   3.041   4.659  0.1433 -0.3156 -0.4805
19070TIP3    H178701   2.578   2.947   4.663 -0.8566 -0.1399 -0.3622
19070TIP3    H278702   2.554   3.069   4.577  1.1469 -0.1217 -0.9158
19071TIP3   OH278703   0.839   5.767  11.077  0.7176  0.0986 -0.0916
19071TIP3    H178704   0.828   5.806  11.163  0.2017  0.5631 -0.3584
19071TIP3    H278705   0.791   5.826  11.018 -0.4095 -1.1443 -0.4476
19072TIP3   OH278706   2.606   5.657   2.535 -0.6604  0.0383  0.0560
19072TIP3    H178707   2.697   5.677   2.558 -1.3091  1.7889  1.2372
19072TIP3    H278708   2.562   5.742   2.535 -2.0522 -0.6573 -1.6536
19073TIP3   OH278709   2.666   0.693   3.722 -0.3779 -0.0098  0.3251
19073TIP3    H178710   2.675   0.779   3.762  0.1251 -0.8064  1.9873
19073TIP3    H278711   2.652   0.633   3.796  0.4372 -1.5131 -0.7030
19074TIP3   OH278712   1.257   4.492  10.613 -0.2917 -0.4117 -0.0189
19074TIP3    H178713   1.161   4.496  10.616 -0.2964 -1.1341  0.7181
19074TIP3    H278714   1.282   4.572  10.565 -1.3035 -0.7096 -1.0775
19075TIP3   OH278715   2.440   5.041   4.522  0.9047 -0.1682 -0.7713
19075TIP3    H178716   2.352   5.070   4.547  1.2702  0.8916 -0.6884
19075TIP3    H278717   2.497   5.076   4.591  1.1237 -2.7950  0.4268
19076TIP3   OH278718   5.629   6.049  11.858  0.1483  0.3621  0.1841
19076TIP3    H178719   5.708   6.047  11.804  0.7531 -0.4562  1.0969
19076TIP3    H278720   5.583   5.968  11.836 -0.2478  0.6407 -0.0379
19077TIP3   OH278721   2.006   3.527   4.086  0.5388 -0.3455 -0.0976
19077TIP3    H178722   2.049   3.581   4.152 -0.4378  1.3195 -0.7986
19077TIP3    H278723   2.066   3.454   4.072  1.8396  0.5017  0.9413
19078TIP3   OH278724   6.817   2.212   3.480 -0.0201 -0.2854 -0.3107
19078TIP3    H178725   6.749   2.164   3.527 -1.3806  1.7331 -0.1382
19078TIP3    H278726   6.781   2.300   3.468  2.5101  0.8235 -0.3116
19079TIP3   OH278727   2.409   1.589  10.462  0.3524  0.1192 -0.7526
19079TIP3    H178728   2.489   1.573  10.512 -0.1523  3.2567  1.2076
19079TIP3    H278729   2.440   1.633  10.383  0.7490 -0.7649 -1.0986
19080TIP3   OH278730   5.706   1.669  12.778 -0.3662 -0.3313 -0.2397
19080TIP3    H178731   5.755   1.732  12.832 -2.4119  0.8545  0.2798
19080TIP3    H278732   5.708   1.707  12.690 -2.7696  1.2338  0.3317
19081TIP3   OH278733   0.035   5.213  11.894 -0.5747  0.1167 -0.5108
19081TIP3    H178734   0.066   5.246  11.810  1.0905 -0.8130 -0.2770
19081TIP3    H278735  -0.011   5.132  11.874 -0.2237 -0.0769 -0.5402
19082TIP3   OH278736   4.123   0.440  11.570  0.2229  0.4644 -0.2314
19082TIP3    H178737   4.149   0.358  11.613 -0.3721  0.1869 -0.3918
19082TIP3    H278738   4.092   0.496  11.641 -2.4501 -0.6379 -0.4621
19083TIP3   OH278739   2.837   3.714   1.360 -0.1162 -0.4297 -0.3877
19083TIP3    H178740   2.768   3.713   1.293  0.4763 -0.9567 -0.9968
19083TIP3    H278741   2.791   3.704   1.443 -0.8352 -0.0552 -0.7403
19084TIP3   OH278742   0.217   1.558  14.655  0.3273  0.3730  0.1628
19084TIP3    H178743   0.244   1.646  14.678 -0.8080  0.9286 -0.5581
19084TIP3    H278744   0.126   1.553  14.684  0.5215 -0.7050  0.5977
19085TIP3   OH278745   1.946   0.007  15.104 -0.1439  0.1003  0.1695
19085TIP3    H178746   1.921   0.022  15.013  1.5581 -3.6346 -1.0130
19085TIP3    H278747   1.866  -0.022  15.147 -1.0501  2.2676  0.0159
19086TIP3   OH278748   2.880   6.008  13.147 -0.0009 -0.1902  0.0973
19086TIP3    H178749   2.902   5.915  13.134  2.1265  0.3033 -0.0292
19086TIP3    H278750   2.908   6.026  13.237 -2.3121 -0.1756  0.8357
19087TIP3   OH278751   5.864   3.332   2.313  0.0217 -0.5547  0.0036
19087TIP3    H178752   5.842   3.254   2.363 -0.2288 -0.3236  0.2537
19087TIP3    H278753   5.926   3.380   2.369  1.9770 -1.7057 -1.1237
19088TIP3   OH278754   3.346   4.257   5.458  0.1499  0.4502 -0.2865
19088TIP3    H178755   3.415   4.221   5.513 -1.4991  1.0609  2.2669
19088TIP3    H278756   3.392   4.300   5.386  2.4338  1.1291  1.5365
19089TIP3   OH278757   0.635   3.082  13.103  0.1785 -0.2076 -0.3434
19089TIP3    H178758   0.651   3.177  13.108 -0.2499 -0.2266  2.0127
19089TIP3    H278759   0.543   3.073  13.130  0.2488 -1.3081 -0.4851
19090TIP3   OH278760   6.234   2.223   6.416 -0.2014 -0.2209 -0.1566
19090TIP3    H178761   6.311   2.226   6.472 -1.0275 -2.5586  1.1701
19090TIP3    H278762   6.219   2.314   6.390  1.8017  0.5146  1.2101
19091TIP3   OH278763   6.562   0.074  16.585 -0.3097  0.6066  0.5167
19091TIP3    H178764   6.638   0.016  16.578 -0.2835  0.5588  1.1601
19091TIP3    H278765   6.552   0.090  16.679 -2.3079 -0.9937  0.6073
19092TIP3   OH278766   5.004   1.245  13.059  0.5960 -0.1395 -0.3326
19092TIP3    H178767   5.047   1.305  12.998 -0.3234 -1.4466 -2.2959
19092TIP3    H278768   4.914   1.240  13.028 -0.4088  0.7159  2.3271
19093TIP3   OH278769   4.170   2.934   4.869 -0.2474 -0.2601  0.1126
19093TIP3    H178770   4.130   2.992   4.804  1.8251  0.0421 -0.9171
19093TIP3    H278771   4.248   2.980   4.898  1.1751 -2.3149 -0.3524
19094TIP3   OH278772   5.119   6.409   5.455  0.6324 -0.3673  0.5625
19094TIP3    H178773   5.109   6.445   5.544 -1.8430  1.4481 -0.3859
19094TIP3    H278774   5.073   6.325   5.457 -1.1923  0.5981  0.5109
19095TIP3   OH278775   6.513   2.068   4.623 -0.4335 -0.1565  0.2645
19095TIP3    H178776   6.454   2.121   4.676  1.8476  1.7877  0.9603
19095TIP3    H278777   6.492   2.091   4.532 -0.1670  1.1941  0.5350
19096TIP3   OH278778   0.889   6.051  14.056 -0.1551 -0.5815  0.3353
19096TIP3    H178779   0.955   6.096  14.003 -1.2439  1.7789  0.9063
19096TIP3    H278780   0.935   5.975  14.092  1.2674 -0.9186 -2.0489
19097TIP3   OH278781   2.106   4.802  14.054  0.3590  0.2422 -0.0700
19097TIP3    H178782   2.156   4.883  14.046 -1.2463  1.2423 -0.2585
19097TIP3    H278783   2.145   4.756  14.128  0.8444  1.5220  0.4812
19098TIP3   OH278784   1.686   2.293  17.266 -0.5739 -0.5215 -0.3584
19098TIP3    H178785   1.701   2.348  17.189 -2.8953  0.0222 -0.4634
19098TIP3    H278786   1.774   2.270  17.297  0.3833 -0.2340 -2.7939
19099TIP3   OH278787   5.280   6.051   2.053  0.3370 -0.1017  0.1043
19099TIP3    H178788   5.213   6.054   1.985  0.2971 -1.3287  0.0916
19099TIP3    H278789   5.272   5.964   2.092  0.2104  0.6647  1.8445
19100TIP3   OH278790   4.979   4.817   2.226 -0.0294 -0.5545 -0.1779
19100TIP3    H178791   4.980   4.722   2.221 -1.1898 -0.6305  0.6876
19100TIP3    H278792   4.890   4.841   2.198  0.3439  0.2920 -0.6638
19101TIP3   OH278793   1.039   1.827   3.478 -0.7586  0.0982  0.4674
19101TIP3    H178794   1.057   1.913   3.517  1.5302 -0.7872  1.4610
19101TIP3    H278795   1.095   1.767   3.527 -1.0273 -1.6917 -1.3779
19102TIP3   OH278796   0.740   6.125   3.844  0.2198  0.2768  0.1442
19102TIP3    H178797   0.782   6.096   3.926 -1.1367  2.1449  1.5370
19102TIP3    H278798   0.779   6.210   3.826  0.1240  0.1053 -0.8852
19103TIP3   OH278799   0.241   4.263   1.195 -0.1311 -0.1293 -0.5001
19103TIP3    H178800   0.265   4.241   1.285 -1.2153  0.6470 -0.0017
19103TIP3    H278801   0.319   4.243   1.143  0.2131 -1.3916  0.4859
19104TIP3   OH278802   3.641   0.555  14.742 -0.8494 -0.1172 -0.2438
19104TIP3    H178803   3.562   0.541  14.795 -0.9339  1.2252  0.0194
19104TIP3    H278804   3.670   0.643  14.767  0.1606 -0.2077 -1.0848
19105TIP3   OH278805   0.507   3.760  12.768 -0.0116 -0.8457 -0.4433
19105TIP3    H178806   0.563   3.740  12.843 -0.5006 -1.1569 -0.1535
19105TIP3    H278807   0.503   3.856  12.766 -0.1888 -0.8407  0.0754
19106TIP3   OH278808   4.300   6.741  15.546 -0.3787  0.0953 -0.2418
19106TIP3    H178809   4.327   6.827  15.513  0.0583 -0.0293 -0.2121
19106TIP3    H278810   4.213   6.728  15.509  0.0370  0.0330 -1.2078
19107TIP3   OH278811   1.846   2.659   2.539 -0.0654  0.2581  0.7641
19107TIP3    H178812   1.777   2.655   2.473  2.7450 -0.9235 -2.2299
19107TIP3    H278813   1.888   2.573   2.534  3.7938  2.1155  0.0629
19108TIP3   OH278814   1.061   1.489  16.470 -0.2442 -0.2609 -0.1224
19108TIP3    H178815   1.000   1.513  16.400 -0.5145  0.0129  0.2053
19108TIP3    H278816   1.077   1.395  16.457 -1.0830 -0.4302  0.0674
19109TIP3   OH278817   3.437   4.541   0.679  0.8184 -0.0318  0.2098
19109TIP3    H178818   3.368   4.492   0.722 -0.1645  0.5830 -0.6531
19109TIP3    H278819   3.486   4.582   0.751  0.3298 -0.5129  0.8155
19110TIP3   OH278820   0.648   6.407  14.573  0.1231  0.7067 -0.2876
19110TIP3    H178821   0.565   6.370  14.603  0.7908 -0.3724  0.2514
19110TIP3    H278822   0.707   6.397  14.648  1.3451 -0.5122 -1.3825
19111TIP3   OH278823   3.092   2.305   2.877  0.1544  0.4421 -0.0764
19111TIP3    H178824   3.010   2.329   2.920  1.7140  0.2577  3.1329
19111TIP3    H278825   3.084   2.211   2.860 -0.3701  0.4700  0.0031
19112TIP3   OH278826   2.737   0.215   1.281 -0.0582  0.1431 -0.6088
19112TIP3    H178827   2.778   0.214   1.195  1.5795 -0.4046  0.1427
19112TIP3    H278828   2.793   0.159   1.335 -0.7455  0.9083  0.9448
19113TIP3   OH278829   1.630   4.407   2.007 -0.0845  0.6606  1.4654
19113TIP3    H178830   1.711   4.400   2.058 -0.2846  1.2166  1.8650
19113TIP3    H278831   1.570   4.344   2.047  0.8705 -1.3824 -0.2314
19114TIP3   OH278832   2.876   0.064   0.293  0.0205 -0.0661 -0.1514
19114TIP3    H178833   2.920   0.144   0.321  1.1735 -1.0123  0.7746
19114TIP3    H278834   2.783   0.086   0.297  0.2831  0.9435  0.9938
19115TIP3   OH278835   4.915   2.251   0.347 -0.6605 -0.1615 -0.2481
19115TIP3    H178836   4.889   2.226   0.258 -0.4063  0.4305 -0.4861
19115TIP3    H278837   4.988   2.311   0.335 -0.2705 -0.5039  0.3784
19116TIP3   OH278838   1.586   6.152   5.587  0.0208  0.0887  0.7453
19116TIP3    H178839   1.603   6.173   5.495 -2.3791  1.9239  0.6544
19116TIP3    H278840   1.505   6.101   5.584  0.3277 -0.4680  1.7978
19117TIP3   OH278841   0.043   3.130  12.607  0.0904 -0.4394 -0.9384
19117TIP3    H178842   0.117   3.132  12.668 -0.4785  0.9631 -0.2587
19117TIP3    H278843   0.083   3.116  12.521  1.2296  1.0972 -0.6794
19118TIP3   OH278844   1.328   2.192   6.364 -0.2741 -0.1842  0.3173
19118TIP3    H178845   1.406   2.163   6.316  0.7498 -0.5231  2.1593
19118TIP3    H278846   1.260   2.130   6.338  0.6133 -1.1709  0.3147
19119TIP3   OH278847   6.606   6.719   4.895  0.4378  0.2740 -0.0226
19119TIP3    H178848   6.606   6.636   4.943 -2.2626 -0.1899 -0.7456
19119TIP3    H278849   6.554   6.701   4.816  1.4983  2.1164 -1.1804
19120TIP3   OH278850   1.100   2.366  11.252 -0.0271 -0.1250 -0.0396
19120TIP3    H178851   1.015   2.330  11.279 -0.1941  0.0324 -0.3581
19120TIP3    H278852   1.090   2.461  11.262  0.5850 -0.1787  1.3034
19121TIP3   OH278853   5.195   0.981  15.471  0.5564 -0.0923 -0.3390
19121TIP3    H178854   5.113   0.942  15.501  0.1464  0.4217 -0.7827
19121TIP3    H278855   5.169   1.064  15.431  1.4761  0.9873  1.2234
19122TIP3   OH278856   2.011   5.931   0.816 -0.2994 -0.3073  0.2199
19122TIP3    H178857   1.920   5.936   0.846  0.2862  2.2311  1.7099
19122TIP3    H278858   2.056   5.886   0.888  0.1349  1.0697  0.8290
19123TIP3   OH278859   4.774   4.891   2.560  0.7648  0.1635 -0.3405
19123TIP3    H178860   4.750   4.984   2.558 -0.2955 -0.0742  0.7304
19123TIP3    H278861   4.799   4.874   2.651 -0.1774 -0.8788 -0.2668
19124TIP3   OH278862   6.331   6.592  14.617 -0.1713 -0.4053 -0.4347
19124TIP3    H178863   6.256   6.533  14.617 -0.8866  0.5065 -0.1403
19124TIP3    H278864   6.394   6.550  14.676 -0.4998 -1.0971 -0.5676
19125TIP3   OH278865   2.849   6.749   0.625  0.0858 -0.0660  0.3873
19125TIP3    H178866   2.914   6.678   0.629 -0.4011 -0.6839 -1.6524
19125TIP3    H278867   2.893   6.820   0.578  0.7824  1.2463  2.9830
19126TIP3   OH278868   5.818   4.464   4.514 -0.7062 -0.2465 -0.1956
19126TIP3    H178869   5.858   4.515   4.585  1.2657 -2.5571  0.4061
19126TIP3    H278870   5.882   4.467   4.443 -0.4957 -2.0125 -0.0908
19127TIP3   OH278871   4.982   1.667  15.807 -0.2205 -0.1328  0.0682
19127TIP3    H178872   5.041   1.609  15.856  0.0904 -0.2719 -0.4744
19127TIP3    H278873   4.942   1.722  15.875 -0.1818 -0.6773  0.5415
19128TIP3   OH278874   6.536   4.801  11.503  0.0716 -0.0764 -0.1739
19128TIP3    H178875   6.545   4.873  11.441 -1.2136 -0.2878 -0.6171
19128TIP3    H278876   6.610   4.743  11.484  0.7091  0.7765 -0.2765
19129TIP3   OH278877   2.482   0.231  13.905 -0.1702 -0.1737 -0.5517
19129TIP3    H178878   2.427   0.179  13.847 -3.7712  1.2897  1.3836
19129TIP3    H278879   2.496   0.313  13.859 -1.1893  0.1499 -0.2970
19130TIP3   OH278880   1.862   2.062  13.011 -0.0015  0.4459  0.1975
19130TIP3    H178881   1.816   1.987  12.973  1.6632 -0.1477 -0.7004
19130TIP3    H278882   1.801   2.136  13.000  0.0361  0.1005 -2.7835
19131TIP3   OH278883   3.814   0.405   2.581 -0.1421  0.2410  0.1843
19131TIP3    H178884   3.891   0.455   2.609 -0.1784  1.0913 -1.2199
19131TIP3    H278885   3.777   0.455   2.508 -1.4235 -0.7108  0.1559
19132TIP3   OH278886   0.335   3.663  15.770 -0.0260 -0.1381 -0.4007
19132TIP3    H178887   0.250   3.624  15.791  0.4695 -0.7194  0.5389
19132TIP3    H278888   0.321   3.757  15.781 -0.2819 -0.2999  0.7784
19133TIP3   OH278889   1.322   5.425   1.547 -0.2985 -0.3442  0.1491
19133TIP3    H178890   1.392   5.475   1.505 -0.4085  0.7812  1.2431
19133TIP3    H278891   1.330   5.448   1.640 -2.0739 -0.2375  0.2893
19134TIP3   OH278892   2.082   2.637  11.394 -0.0586  0.0151 -0.1181
19134TIP3    H178893   2.168   2.597  11.407  0.9069  2.2249  0.4564
19134TIP3    H278894   2.054   2.606  11.308  0.5093 -2.1057  0.4172
19135TIP3   OH278895   1.647   2.474  14.676  0.2063 -0.2498  0.5058
19135TIP3    H178896   1.611   2.438  14.757  2.8974 -1.3482  1.2775
19135TIP3    H278897   1.576   2.466  14.613 -1.9373  0.5622  2.6997
19136TIP3   OH278898   3.361   3.876  14.297 -0.1757  0.6226 -0.2401
19136TIP3    H178899   3.274   3.912  14.316 -0.0519  1.3907 -1.0788
19136TIP3    H278900   3.415   3.953  14.280  1.3585  0.3303  2.9897
19137TIP3   OH278901   4.401   1.796   2.606 -0.0032  0.7086 -0.6067
19137TIP3    H178902   4.364   1.746   2.534  0.9577  0.0346 -0.6450
19137TIP3    H278903   4.363   1.758   2.685  0.9537 -0.2962 -0.6181
19138TIP3   OH278904   3.005   4.662   1.688 -0.3748  0.0787  0.5471
19138TIP3    H178905   2.943   4.637   1.619 -0.5252  2.0270 -0.0619
19138TIP3    H278906   2.951   4.699   1.757  0.0157  0.9065  0.4206
19139TIP3   OH278907   2.989   6.027  15.015  0.4172  0.0917  0.9608
19139TIP3    H178908   3.023   6.066  15.096 -2.3329 -0.1437  2.2951
19139TIP3    H278909   2.955   5.942  15.042  4.1026 -2.2633 -1.4680
19140TIP3   OH278910   1.104   1.949  16.430  0.1864 -0.2578 -0.2253
19140TIP3    H178911   1.164   1.999  16.376  0.3594  1.0891  1.1796
19140TIP3    H278912   1.063   1.887  16.369  1.6963 -0.0065 -1.5229
19141TIP3   OH278913   2.152   0.455   5.147  0.5370  0.0547 -0.3189
19141TIP3    H178914   2.141   0.512   5.070  1.4064  1.6184  0.6841
19141TIP3    H278915   2.212   0.503   5.204 -0.1100 -1.0745  1.3527
19142TIP3   OH278916   1.680   4.871   0.024 -0.1211 -0.1696 -0.4204
19142TIP3    H178917   1.647   4.796  -0.026  2.1353 -0.5097 -1.4785
19142TIP3    H278918   1.748   4.833   0.080  0.4099  0.9405 -0.3094
19143TIP3   OH278919   3.120   5.154  14.315 -0.4722  0.5387  0.2110
19143TIP3    H178920   3.120   5.225  14.250 -1.9427  0.4950  0.1368
19143TIP3    H278921   3.059   5.184  14.382  2.4511  1.4172  2.5580
19144TIP3   OH278922   2.145   4.909  11.942 -0.1105 -0.1637 -0.2286
19144TIP3    H178923   2.223   4.964  11.948  0.5054 -0.8958 -1.3607
19144TIP3    H278924   2.075   4.963  11.977  0.9679  0.3570  1.2075
19145TIP3   OH278925   2.826   4.390   4.148  0.2359  0.5105  0.1279
19145TIP3    H178926   2.810   4.460   4.211  1.4028 -1.1289  2.3229
19145TIP3    H278927   2.740   4.350   4.135 -0.0296  0.9141  0.6319
19146TIP3   OH278928   4.123   0.541   0.911  0.2875 -0.2948  0.3715
19146TIP3    H178929   4.070   0.546   0.990 -0.7032 -0.7421 -0.2523
19146TIP3    H278930   4.194   0.480   0.933 -1.1895 -2.1041  0.2365
19147TIP3   OH278931   1.217   3.759  13.305 -0.4968  0.0477  0.4845
19147TIP3    H178932   1.182   3.703  13.374 -0.0772 -0.5744  0.1972
19147TIP3    H278933   1.161   3.836  13.307  0.5845  0.8395  2.7107
19148TIP3   OH278934   2.809   4.066   5.031 -0.0746 -0.4124 -0.4543
19148TIP3    H178935   2.838   4.007   4.962  0.1541 -1.6811  0.7190
19148TIP3    H278936   2.810   4.153   4.990 -2.1432 -1.4149 -2.7214
19149TIP3   OH278937   6.439   6.001   2.478  1.2917 -0.7745  0.3272
19149TIP3    H178938   6.387   5.946   2.537  1.3135 -0.1706  0.9105
19149TIP3    H278939   6.398   6.087   2.482 -0.0999 -1.2426 -2.2818
19150TIP3   OH278940   4.483   3.615  11.355  0.2743 -0.4797  0.4836
19150TIP3    H178941   4.526   3.697  11.377  1.1307 -0.8251  0.1020
19150TIP3    H278942   4.410   3.608  11.418 -0.6208  1.2214 -0.3569
19151TIP3   OH278943   4.567   3.004  12.096 -0.0316  0.0039 -0.3751
19151TIP3    H178944   4.637   3.044  12.148 -0.3192 -1.8499  1.4721
19151TIP3    H278945   4.580   2.910  12.105 -2.4262 -0.3692 -0.4500
19152TIP3   OH278946   6.447   2.496  15.544  0.0626 -0.2588 -0.2211
19152TIP3    H178947   6.378   2.563  15.542 -0.2097 -0.4780  1.0750
19152TIP3    H278948   6.408   2.423  15.592  0.1450 -1.6079 -2.1604
19153TIP3   OH278949   4.671   6.215  16.195  0.6466  0.2471 -0.2808
19153TIP3    H178950   4.644   6.224  16.104  2.0560  1.4550 -0.5849
19153TIP3    H278951   4.655   6.301  16.234  0.6346 -0.0821  0.4539
19154TIP3   OH278952   0.021   1.376   4.185  0.6896  0.1479  0.3647
19154TIP3    H178953   0.051   1.285   4.195 -1.1651 -0.4817  0.3675
19154TIP3    H278954   0.053   1.402   4.099 -0.5755 -1.2426 -0.5524
19155TIP3   OH278955   3.397   4.095  12.828  0.3782 -0.3175  0.6937
19155TIP3    H178956   3.363   4.171  12.781  1.4073 -1.4011 -1.9230
19155TIP3    H278957   3.416   4.127  12.916  1.1860  2.5822 -0.4802
19156TIP3   OH278958   2.909   1.249   2.275 -0.1850  0.5829 -0.5359
19156TIP3    H178959   2.903   1.166   2.322 -1.9202  1.0648  0.1142
19156TIP3    H278960   2.821   1.284   2.276  0.2838  1.8713 -1.8806
19157TIP3   OH278961   6.645   3.255   0.186  0.5296  0.5465 -0.1065
19157TIP3    H178962   6.652   3.345   0.154 -1.9748  0.7065 -0.3114
19157TIP3    H278963   6.572   3.218   0.135  1.4323 -1.5341  0.0978
19158TIP3   OH278964   3.475   0.179   1.916 -0.2229 -0.3194  0.3204
19158TIP3    H178965   3.539   0.249   1.926 -0.9097  0.6219 -1.5413
19158TIP3    H278966   3.506   0.109   1.973  2.0563  0.3807 -0.0263
19159TIP3   OH278967   3.742   5.293  14.997 -0.6964  0.7189  0.0102
19159TIP3    H178968   3.746   5.249  15.083 -1.2135  2.0315  0.7220
19159TIP3    H278969   3.833   5.308  14.974 -0.5872  1.4147  0.8853
19160TIP3   OH278970   5.309   5.193  16.431  0.0691 -0.4403  0.2115
19160TIP3    H178971   5.332   5.169  16.341 -1.6450  1.7744 -0.8597
19160TIP3    H278972   5.269   5.280  16.423 -0.5185 -0.4139  3.0633
19161TIP3   OH278973   1.327   5.317   4.550  0.4305 -0.4417 -0.2260
19161TIP3    H178974   1.327   5.394   4.608  0.0495 -0.4987 -0.1483
19161TIP3    H278975   1.315   5.354   4.462  0.0812 -0.4230 -0.1713
19162TIP3   OH278976   2.401   6.466   3.262  0.1862 -0.7450 -0.4638
19162TIP3    H178977   2.350   6.405   3.315  0.7150  0.2368  1.2114
19162TIP3    H278978   2.337   6.510   3.207 -0.6992  0.0696  1.2100
19163TIP3   OH278979   3.679   2.181   1.586 -0.2059 -0.1067 -0.5180
19163TIP3    H178980   3.761   2.138   1.611 -0.7571 -0.4836  0.6831
19163TIP3    H278981   3.689   2.199   1.492  1.3296  0.0398 -0.3345
19164TIP3   OH278982   2.563   2.966   1.551 -0.2559  0.4192  0.4840
19164TIP3    H178983   2.597   2.892   1.502  0.8333  0.0117  1.8387
19164TIP3    H278984   2.533   3.028   1.483 -1.2041 -1.2361 -0.6439
19165TIP3   OH278985   3.190   4.412  13.401 -0.0748  0.0051 -0.8529
19165TIP3    H178986   3.147   4.488  13.362 -1.6370  0.4203  1.5699
19165TIP3    H278987   3.283   4.428  13.388 -0.3968  2.2108 -0.5998
19166TIP3   OH278988   1.912   3.777  11.327 -0.3155  0.1750  0.5665
19166TIP3    H178989   1.913   3.698  11.272 -0.5857  0.9127 -0.5183
19166TIP3    H278990   1.963   3.841  11.278  0.7378  0.3841  1.9030
19167TIP3   OH278991   4.390   4.930   5.046 -0.4213 -0.7238 -1.1680
19167TIP3    H178992   4.453   4.926   4.974  0.0997 -0.3512 -0.7388
19167TIP3    H278993   4.391   4.842   5.084  2.0275  0.0766  0.6800
19168TIP3   OH278994   2.849   1.121  11.961  0.4740  0.4522  1.1757
19168TIP3    H178995   2.756   1.138  11.972  0.7362  1.6973  1.5167
19168TIP3    H278996   2.888   1.208  11.948  1.3109 -0.2094 -0.9794
19169TIP3   OH278997   1.171   6.714  16.233  0.0137  0.5839  0.0213
19169TIP3    H178998   1.116   6.752  16.302  0.8466  0.2717  0.8669
19169TIP3    H278999   1.108   6.680  16.169 -0.7560  2.0209 -0.0151
19170TIP3   OH279000   6.075   0.587  12.624 -0.2739 -0.7769  0.1579
19170TIP3    H179001   6.159   0.549  12.597  0.5111  1.1883 -0.2262
19170TIP3    H279002   6.090   0.614  12.715 -0.6976 -1.0171  0.2975
19171TIP3   OH279003   3.367   4.194  11.924  0.3979 -0.0527  0.2209
19171TIP3    H179004   3.298   4.149  11.974  0.2477 -1.2196 -0.9921
19171TIP3    H279005   3.429   4.224  11.990 -0.4810 -0.3821  1.2083
19172TIP3   OH279006   2.872   3.350   2.415  0.4357  0.0531  0.5113
19172TIP3    H179007   2.816   3.352   2.492  0.1112 -0.3356  0.2893
19172TIP3    H279008   2.817   3.385   2.344  0.1441 -1.2626  0.0838
19173TIP3   OH279009   4.920   5.120   5.254  0.1811  0.0841  0.2055
19173TIP3    H179010   4.949   5.029   5.257  1.2246  0.3381 -1.6739
19173TIP3    H279011   4.923   5.149   5.345 -0.7699 -1.9313  0.9156
19174TIP3   OH279012   5.949   2.272   3.030  0.4843 -0.5435  0.8755
19174TIP3    H179013   5.855   2.255   3.031  0.6699 -1.5752  0.8416
19174TIP3    H279014   5.964   2.329   3.105 -0.3693  0.7265  0.0986
19175TIP3   OH279015   3.256   2.623   1.972 -0.0782 -0.5813  0.3796
19175TIP3    H179016   3.226   2.613   2.062 -1.0968  0.6080  0.1875
19175TIP3    H279017   3.177   2.611   1.919  0.3141 -0.1985 -0.2998
19176TIP3   OH279018   2.202   1.809   0.035  0.0884  0.5337 -0.4321
19176TIP3    H179019   2.131   1.836   0.093  0.3543  1.2755 -0.4572
19176TIP3    H279020   2.277   1.861   0.062  0.4292  0.2992 -0.9120
19177TIP3   OH279021   2.851   0.244   5.980  0.7240  0.0589  0.2511
19177TIP3    H179022   2.812   0.220   6.064  2.3869 -0.5053  0.8688
19177TIP3    H279023   2.945   0.246   5.996  1.0486  0.1576 -1.5431
19178TIP3   OH279024   3.107   4.369  16.235 -0.1266  0.2426 -0.6746
19178TIP3    H179025   3.086   4.292  16.288  1.3500  0.8503  0.8138
19178TIP3    H279026   3.025   4.418  16.232 -1.0059 -1.2073 -1.3783
19179TIP3   OH279027   4.040   1.255   0.078  0.1767  0.2657 -0.8071
19179TIP3    H179028   4.015   1.227  -0.010  1.7290  4.2045 -2.6539
19179TIP3    H279029   4.135   1.264   0.075  0.1735  1.2408  1.0141
19180TIP3   OH279030   5.140   2.868  16.541 -0.3672  0.0615 -0.2620
19180TIP3    H179031   5.091   2.794  16.504 -0.1808 -0.4639  0.5426
19180TIP3    H279032   5.228   2.858  16.505 -0.3733 -0.0351 -0.2517
19181TIP3   OH279033   3.268   4.227   5.961  0.2583 -0.3052  0.4817
19181TIP3    H179034   3.245   4.135   5.972 -1.2087 -0.4237 -2.8333
19181TIP3    H279035   3.187   4.274   5.981  0.2856  0.0703 -0.2686
19182TIP3   OH279036   4.369   1.524   3.439 -0.1788 -0.1746  0.4134
19182TIP3    H179037   4.391   1.527   3.532  1.0038 -2.1044  0.2097
19182TIP3    H279038   4.324   1.440   3.428  1.7500 -1.0133 -1.1921
19183TIP3   OH279039   1.012   4.716   3.755 -0.0769 -0.1031  0.1456
19183TIP3    H179040   1.035   4.627   3.782 -2.6065 -1.2240 -1.2374
19183TIP3    H279041   1.027   4.717   3.660 -0.9273  0.6775  0.0135
19184TIP3   OH279042   6.426   2.744  13.175 -0.9610 -0.2864 -0.2245
19184TIP3    H179043   6.358   2.706  13.232 -0.9182  2.7608  1.9950
19184TIP3    H279044   6.508   2.725  13.220 -0.7850  0.5600 -0.1721
19185TIP3   OH279045   5.269   4.996  13.643  0.3328  0.2517  0.3003
19185TIP3    H179046   5.321   5.052  13.586  0.0859  0.2863  0.1054
19185TIP3    H279047   5.250   4.918  13.590  0.5574  0.0438  0.5232
19186TIP3   OH279048   3.872   1.462  11.734  0.0475 -0.5564  0.7330
19186TIP3    H179049   3.846   1.445  11.644  0.0373 -1.1506  0.8447
19186TIP3    H279050   3.900   1.376  11.767 -3.3851 -1.1017  2.4126
19187TIP3   OH279051   4.985   4.143   2.575 -0.8427 -0.8620  0.3959
19187TIP3    H179052   5.068   4.108   2.541 -0.5230  0.0109  0.2555
19187TIP3    H279053   5.012   4.204   2.644 -1.2730  0.8581 -0.9314
19188TIP3   OH279054   3.540   4.035  12.584 -0.3618 -0.2570 -0.2885
19188TIP3    H179055   3.537   4.061  12.676  3.3904 -3.0859  0.7236
19188TIP3    H279056   3.469   3.972  12.575 -0.8204  0.1130  0.6206
19189TIP3   OH279057   6.080   5.495  17.279  0.1839  0.1739 -0.1073
19189TIP3    H179058   6.089   5.573  17.334 -1.4730  0.1061  0.2537
19189TIP3    H279059   6.054   5.529  17.193 -1.1861 -0.0259  0.2224
19190TIP3   OH279060   0.087   0.956  16.640 -0.3431  0.0800 -0.3082
19190TIP3    H179061   0.108   1.049  16.632 -0.6935  0.2025  0.2033
19190TIP3    H279062   0.071   0.943  16.734 -0.0940 -0.5363 -0.3490
19191TIP3   OH279063   5.824   6.050   4.048 -0.2495  0.3472 -0.1591
19191TIP3    H179064   5.801   6.138   4.079  0.3803  1.5969 -3.1054
19191TIP3    H279065   5.920   6.048   4.053 -0.3045 -0.6527  1.0139
19192TIP3   OH279066   1.233   2.829  14.301 -0.5726 -0.1622 -0.0450
19192TIP3    H179067   1.243   2.917  14.265 -1.4085  0.3295  0.8878
19192TIP3    H279068   1.251   2.770  14.228  1.4637  0.7544 -0.2924
19193TIP3   OH279069   6.814   6.813  12.225 -0.4681  1.2106 -0.4808
19193TIP3    H179070   6.854   6.839  12.142 -2.5690  3.0107 -0.9774
19193TIP3    H279071   6.845   6.878  12.288 -0.3789  0.9533 -0.2580
19194TIP3   OH279072   4.557   3.833   5.151 -0.0388  0.5121  0.0130
19194TIP3    H179073   4.626   3.900   5.143  0.6853 -0.3830 -1.6040
19194TIP3    H279074   4.600   3.761   5.196 -0.0704  0.1603 -0.5190
19195TIP3   OH279075   6.613   5.130  13.157 -0.5634  0.0875  0.2377
19195TIP3    H179076   6.599   5.103  13.066 -2.2337 -1.0003  0.7855
19195TIP3    H279077   6.630   5.224  13.152  2.4250 -0.5007 -1.4500
19196TIP3   OH279078   2.212   2.621  12.866  0.1710 -0.7555  0.0723
19196TIP3    H179079   2.131   2.661  12.898  0.4185  0.1449 -0.4074
19196TIP3    H279080   2.262   2.694  12.830  0.8424 -1.4307 -0.3768
19197TIP3   OH279081   6.626   0.819   4.944  0.5727 -0.1029 -0.1555
19197TIP3    H179082   6.710   0.784   4.914  0.9055 -0.3777  1.0969
19197TIP3    H279083   6.601   0.763   5.017  0.7542  1.8144  1.4017
19198TIP3   OH279084   4.305   3.970  11.630  0.4239  0.0515  0.2585
19198TIP3    H179085   4.246   4.000  11.699 -1.0273 -2.6877  0.2851
19198TIP3    H279086   4.392   3.999  11.658 -0.5553  1.8427  1.5362
19199TIP3   OH279087   0.965   1.092   3.273 -0.2312  0.5625  0.1956
19199TIP3    H179088   1.004   1.137   3.198  1.6881 -1.1867  0.0878
19199TIP3    H279089   0.983   1.000   3.257 -3.1482 -0.2013  0.9385
19200TIP3   OH279090   1.352   5.596  11.738 -0.0145 -0.6163  0.9186
19200TIP3    H179091   1.389   5.678  11.706  1.2419 -1.6797 -0.3889
19200TIP3    H279092   1.369   5.597  11.832 -2.1848  1.7344  1.3528
19201TIP3   OH279093   2.035   2.887  13.974 -0.1116  0.0757 -0.0105
19201TIP3    H179094   2.087   2.863  14.050  0.3113 -1.7931 -0.8661
19201TIP3    H279095   1.947   2.855  13.993 -0.4488  1.2484  0.4672
19202TIP3   OH279096   0.556   5.636  13.709  0.1898 -0.7225  0.6404
19202TIP3    H179097   0.621   5.591  13.655 -0.5694 -0.9333 -0.0988
19202TIP3    H279098   0.531   5.713  13.659 -1.6587 -1.7289 -0.0502
19203TIP3   OH279099   0.140   5.677   0.017  0.0144  0.8479 -0.2354
19203TIP3    H179100   0.085   5.717  -0.050 -0.2127  0.3829 -0.3305
19203TIP3    H279101   0.198   5.618  -0.031  0.8941  1.6559 -0.1808
19204TIP3   OH279102   0.091   2.675   6.155  0.4581 -0.0902 -0.3451
19204TIP3    H179103   0.080   2.668   6.060  0.3842 -0.6649 -0.2952
19204TIP3    H279104   0.110   2.586   6.184 -2.2987 -0.4619  0.5154
19205TIP3   OH279105   5.191   4.703  16.906 -0.4657 -0.3132  0.0443
19205TIP3    H179106   5.197   4.697  16.811  1.7322  3.0829 -0.0745
19205TIP3    H279107   5.278   4.678  16.938  0.0702  2.5663  0.9188
19206TIP3   OH279108   4.333   6.125  14.665 -0.0806  0.1154  0.0688
19206TIP3    H179109   4.390   6.190  14.625  0.4518 -0.2144  0.2809
19206TIP3    H279110   4.363   6.120  14.756  0.7782 -1.3868 -0.2623
19207TIP3   OH279111   1.528   3.875  14.886  0.2193  0.7693 -0.4242
19207TIP3    H179112   1.523   3.780  14.878  0.5410  0.8388 -1.6365
19207TIP3    H279113   1.494   3.895  14.973  0.6980 -0.5016  0.0577
19208TIP3   OH279114   1.299   3.967   3.621 -0.4046 -0.1487 -0.2266
19208TIP3    H179115   1.289   3.940   3.712 -0.4056 -0.8995 -0.4515
19208TIP3    H279116   1.394   3.964   3.606 -0.1264  2.7884  0.6092
19209TIP3   OH279117   2.348   2.950  11.143  0.1662 -0.8165 -0.0273
19209TIP3    H179118   2.351   3.043  11.165 -1.1442 -0.1377 -2.4929
19209TIP3    H279119   2.366   2.905  11.226 -0.7751  1.6029  1.5531
19210TIP3   OH279120   4.255   3.281  14.130  0.3383 -0.0706 -0.6949
19210TIP3    H179121   4.211   3.212  14.081  0.1157 -0.9300  0.6644
19210TIP3    H279122   4.183   3.333  14.168  0.4973 -0.2554 -0.1365
19211TIP3   OH279123   2.109   3.445  11.739 -0.4704 -0.4900  0.5105
19211TIP3    H179124   2.103   3.350  11.727 -4.3533 -0.1269 -0.9477
19211TIP3    H279125   2.047   3.464  11.809  0.7848  0.9548  1.2750
19212TIP3   OH279126   5.891   5.891  14.918 -0.5283 -0.2382 -0.0876
19212TIP3    H179127   5.846   5.866  14.999 -0.3701  0.8763  0.3617
19212TIP3    H279128   5.826   5.878  14.849 -1.1508  0.2132  0.4051
19213TIP3   OH279129   1.862   1.187  13.533 -0.8124  0.3360 -0.4942
19213TIP3    H179130   1.840   1.205  13.625  0.3246  0.4433 -0.2371
19213TIP3    H279131   1.800   1.240  13.483 -1.4743  0.2372  0.2125
19214TIP3   OH279132   4.131   4.763   6.168  0.3210 -0.2963 -0.0659
19214TIP3    H179133   4.043   4.735   6.193  0.2303 -0.7255 -0.8548
19214TIP3    H279134   4.161   4.815   6.243  0.7662 -3.0450  1.7319
19215TIP3   OH279135   4.744   4.395  16.973  0.1703 -0.0529 -0.3510
19215TIP3    H179136   4.835   4.365  16.982  0.2138  0.0146 -0.5599
19215TIP3    H279137   4.705   4.379  17.059  0.3852 -0.0657 -0.2566
19216TIP3   OH279138   5.281   2.937  10.790  0.3910 -0.2450  0.6262
19216TIP3    H179139   5.335   3.002  10.745  1.5413 -1.7733 -0.2444
19216TIP3    H279140   5.253   2.878  10.720 -1.1355 -0.3611  1.3173
19217TIP3   OH279141   1.721   0.663  13.635  0.3196 -0.2379 -0.7593
19217TIP3    H179142   1.730   0.744  13.585 -0.5706  0.9185  0.8863
19217TIP3    H279143   1.811   0.633  13.650  0.6709  0.6583 -1.0659
19218TIP3   OH279144   1.382   0.893   3.772 -0.1916 -0.7668 -0.2672
19218TIP3    H179145   1.374   0.981   3.735 -2.2930 -0.3761  1.0412
19218TIP3    H279146   1.410   0.907   3.863 -1.2501 -1.4064  0.1644
19219TIP3   OH279147   5.731   2.311   5.652  0.5791 -0.1684  0.5538
19219TIP3    H179148   5.731   2.230   5.601  0.6766  1.7296 -2.5738
19219TIP3    H279149   5.638   2.328   5.671  0.3952  0.0418 -0.5306
19220TIP3   OH279150   1.647   6.548   2.308 -0.3599 -0.4491 -0.1799
19220TIP3    H179151   1.570   6.601   2.288  0.6873  1.4494  0.6672
19220TIP3    H279152   1.697   6.548   2.226 -0.2016  0.1690 -0.0869
19221TIP3   OH279153   1.855   5.379   0.403  0.0037  0.1590 -0.2673
19221TIP3    H179154   1.766   5.373   0.369 -0.4663 -0.6401  1.0728
19221TIP3    H279155   1.846   5.422   0.488  1.0406  1.2085 -0.6778
19222TIP3   OH279156   3.047   2.907   5.282  0.3294 -0.0859  0.2238
19222TIP3    H179157   3.077   2.996   5.265  1.2427 -0.7123 -1.6490
19222TIP3    H279158   3.026   2.905   5.375  1.7148  1.6696  0.5867
19223TIP3   OH279159   1.557   0.423   6.040  0.2642 -0.2988  0.1923
19223TIP3    H179160   1.623   0.379   6.095  0.0873 -0.2711  0.4281
19223TIP3    H279161   1.590   0.413   5.951  1.1580  0.6959  0.4022
19224TIP3   OH279162   2.131   5.226   4.065 -0.3186  0.1247 -0.4186
19224TIP3    H179163   2.058   5.287   4.058 -2.5131 -2.1123  1.6491
19224TIP3    H279164   2.176   5.251   4.146  0.4887  0.6931 -1.0246
19225TIP3   OH279165   4.751   6.690   5.189  0.1032  0.4343  0.1547
19225TIP3    H179166   4.745   6.625   5.119  0.4939  0.0342  0.4914
19225TIP3    H279167   4.813   6.755   5.155 -1.0558  1.1522 -0.5916
19226TIP3   OH279168   3.404   1.080   1.451  0.1032 -0.3695 -0.3572
19226TIP3    H179169   3.394   1.117   1.363  0.9165 -2.8382 -1.5327
19226TIP3    H279170   3.459   1.002   1.438  0.0064 -0.9108  2.2998
19227TIP3   OH279171   6.184   5.496  14.954  0.1574  0.4666  0.6981
19227TIP3    H179172   6.247   5.453  15.013  2.0702  1.9276 -0.2213
19227TIP3    H279173   6.189   5.445  14.873 -1.1918 -0.4919  1.1962
19228TIP3   OH279174   5.083   6.443   4.064 -0.1778  0.1794 -0.1175
19228TIP3    H179175   5.060   6.384   3.992 -1.9645 -1.1808  1.5218
19228TIP3    H279176   5.171   6.474   4.042 -0.4424 -0.6645 -2.5715
19229TIP3   OH279177   0.336   2.931  16.217  0.0155  0.8535 -0.1732
19229TIP3    H179178   0.411   2.918  16.159 -0.4705  0.3946 -0.7057
19229TIP3    H279179   0.260   2.908  16.164 -0.3050 -1.5121  1.2660
19230TIP3   OH279180   0.553   4.363  11.561 -0.1329 -0.1562  0.0031
19230TIP3    H179181   0.519   4.369  11.651 -0.7742  0.1505 -0.2567
19230TIP3    H279182   0.627   4.303  11.568  2.3960  3.0154  1.4667
19231TIP3   OH279183   0.403   1.415   1.224 -0.6935 -0.4152  0.3271
19231TIP3    H179184   0.335   1.471   1.260 -0.8219 -0.0041 -0.5447
19231TIP3    H279185   0.446   1.468   1.157 -0.6310 -1.2500 -0.3123
19232TIP3   OH279186   6.619   3.918  12.334  0.1140  0.4917 -0.0847
19232TIP3    H179187   6.565   3.980  12.284 -0.8815 -0.5792 -0.3641
19232TIP3    H279188   6.705   3.959  12.337 -0.5451  1.9433 -0.1775
19233TIP3   OH279189   4.317   5.391  16.607  0.0169  0.4031  0.6881
19233TIP3    H179190   4.342   5.482  16.592 -0.0818  0.5524  1.4188
19233TIP3    H279191   4.373   5.341  16.549  0.7226  0.8713  0.9617
19234TIP3   OH279192   4.303   4.057   2.929 -0.5058  0.1785  0.0453
19234TIP3    H179193   4.347   4.101   3.002 -0.9690 -1.0806  1.1066
19234TIP3    H279194   4.365   4.063   2.857  1.0767 -0.7959  1.2713
19235TIP3   OH279195   1.153   3.356  15.384  0.7452  0.2825  0.3942
19235TIP3    H179196   1.164   3.317  15.471  0.7294  0.4799  0.4843
19235TIP3    H279197   1.242   3.364  15.350  0.6579 -1.1171 -0.1876
19236TIP3   OH279198   1.679   3.050  16.548 -0.1454  0.4731 -0.7352
19236TIP3    H179199   1.614   3.104  16.503 -0.4123 -0.0014 -0.9305
19236TIP3    H279200   1.762   3.075  16.508 -0.2853  0.6196 -0.9400
19237TIP3   OH279201   5.825   1.837  15.790 -0.3498 -0.4576 -0.4398
19237TIP3    H179202   5.802   1.817  15.881 -1.5477  0.0175 -0.6317
19237TIP3    H279203   5.877   1.917  15.796  0.3759 -0.9447 -0.0980
19238TIP3   OH279204   3.702   1.567  12.586  0.2233  0.0903  0.0841
19238TIP3    H179205   3.705   1.652  12.631  0.3652  0.4471 -0.5866
19238TIP3    H279206   3.664   1.507  12.650 -2.5310  1.2467 -0.4070
19239TIP3   OH279207   2.246   4.344  12.879  0.0078 -0.1435 -0.4684
19239TIP3    H179208   2.297   4.270  12.912  0.6070  1.1379  1.5775
19239TIP3    H279209   2.311   4.412  12.859 -0.5319 -0.1380 -2.3102
19240TIP3   OH279210   2.738   6.237  12.418 -0.4996  0.0516  0.0014
19240TIP3    H179211   2.684   6.286  12.480 -0.2622 -0.1540  0.3757
19240TIP3    H279212   2.797   6.186  12.474 -0.0237  0.1607 -0.4052
19241TIP3   OH279213   2.191   4.374   6.468  0.3552  0.6969 -0.0456
19241TIP3    H179214   2.251   4.313   6.426  1.1805  0.2955  1.7059
19241TIP3    H279215   2.236   4.403   6.547 -1.3298  1.1718  0.7678
19242TIP3   OH279216   0.416   2.072   1.842  0.7497 -0.3392 -0.2745
19242TIP3    H179217   0.495   2.123   1.859 -0.8729  2.7017 -1.4415
19242TIP3    H279218   0.413   2.065   1.746  0.3653 -1.6781 -0.1686
19243TIP3   OH279219   4.618   5.219  17.074  0.1362 -0.1660 -0.1500
19243TIP3    H179220   4.559   5.181  17.139 -0.1386  0.3108 -0.1146
19243TIP3    H279221   4.562   5.276  17.021  0.2153 -1.1246 -1.2802
19244TIP3   OH279222   1.092   0.141  14.351 -0.2426  0.0890 -0.2207
19244TIP3    H179223   1.141   0.205  14.300 -3.1862  1.0640 -1.9458
19244TIP3    H279224   1.149   0.119  14.425  2.4146  1.7240 -1.7403
19245TIP3   OH279225   5.220   4.193  13.384 -0.1889  0.4382 -0.3455
19245TIP3    H179226   5.257   4.256  13.446  1.3057 -1.6676  0.9795
19245TIP3    H279227   5.274   4.202  13.305  0.8209 -0.0500  0.2846
19246TIP3   OH279228   2.724   5.340   5.552 -0.7942  0.2398  0.2522
19246TIP3    H179229   2.649   5.333   5.610 -1.5295 -2.9213 -0.9881
19246TIP3    H279230   2.688   5.377   5.471 -0.5308  0.9346  0.4459
19247TIP3   OH279231   1.897   0.384   6.424  0.7855  0.3148 -0.1723
19247TIP3    H179232   1.900   0.301   6.376  2.2184 -0.2423  0.8506
19247TIP3    H279233   1.933   0.363   6.510 -1.1440  1.4390  0.9485
19248TIP3   OH279234   1.595   2.056  11.824 -0.0140 -0.0760 -0.0319
19248TIP3    H179235   1.686   2.040  11.802  0.2544 -1.5255  1.9860
19248TIP3    H279236   1.587   2.029  11.915 -1.5222  3.8799  1.1029
19249TIP3   OH279237   1.524   0.138  14.475 -0.1963 -0.1394 -0.1056
19249TIP3    H179238   1.436   0.101  14.475  0.4503 -1.6988  0.5549
19249TIP3    H279239   1.542   0.158  14.383 -1.2486  0.2443 -0.2330
19250TIP3   OH279240   5.676   5.805  15.090 -0.0825  0.6552 -0.0519
19250TIP3    H179241   5.605   5.748  15.118 -0.2489 -0.8608 -3.3521
19250TIP3    H279242   5.642   5.851  15.014  1.1276  2.9416  0.7198
19251TIP3   OH279243   5.890   1.037   5.736 -0.0502  0.1278 -0.3995
19251TIP3    H179244   5.947   0.961   5.721  0.6179  0.7395 -1.0128
19251TIP3    H279245   5.920   1.073   5.820  1.4314  1.2823 -1.4056
19252TIP3   OH279246   3.264   4.578  13.028  0.4406 -0.5561 -0.4398
19252TIP3    H179247   3.344   4.617  13.064  0.1300  1.9891 -2.3328
19252TIP3    H279248   3.241   4.635  12.955 -1.0925 -3.3524 -2.2158
19253TIP3   OH279249   5.529   0.209  14.962  0.0391  0.9460 -0.2993
19253TIP3    H179250   5.594   0.171  15.021 -0.2686  2.3567  0.9964
19253TIP3    H279251   5.577   0.226  14.881  0.5120 -0.8481 -0.4029
19254TIP3   OH279252   3.000   1.183   4.423 -0.5338 -0.2235 -0.2841
19254TIP3    H179253   2.956   1.135   4.353 -1.0932  0.7611 -0.6165
19254TIP3    H279254   3.034   1.262   4.381 -0.8295  0.3508  0.5450
19255TIP3   OH279255   3.112   0.645  11.761 -0.2821  0.0504  0.0105
19255TIP3    H179256   3.090   0.660  11.853 -2.7530  0.1154 -0.5631
19255TIP3    H279257   3.201   0.679  11.752 -0.1864  0.4754  2.2656
19256TIP3   OH279258   0.041   3.315  13.904  0.3135  0.1086  0.0873
19256TIP3    H179259  -0.040   3.272  13.932 -1.0610  2.0557 -0.7787
19256TIP3    H279260   0.093   3.323  13.984 -0.1064 -1.6437  0.5510
19257TIP3   OH279261   1.668   4.867  11.346  0.1514 -1.1595  0.3807
19257TIP3    H179262   1.638   4.956  11.327 -1.7985 -1.5269  1.5027
19257TIP3    H279263   1.762   4.875  11.361  0.1436  0.5593 -0.3875
19258TIP3   OH279264   1.940   5.973  14.114 -0.2372  0.2526 -0.1651
19258TIP3    H179265   2.000   6.005  14.047  0.5144 -0.7363  0.0208
19258TIP3    H279266   1.894   5.900  14.071  0.8554 -0.9370  0.6470
19259TIP3   OH279267   2.488   4.744   2.404  0.0193 -0.8637  0.1121
19259TIP3    H179268   2.535   4.670   2.440 -0.4929 -1.4335 -0.3786
19259TIP3    H279269   2.432   4.775   2.475 -0.4247 -1.5006  0.0350
19260TIP3   OH279270   3.562   5.008   1.631 -0.2942  0.4004 -0.0822
19260TIP3    H179271   3.492   4.966   1.681 -2.5944  2.2338 -1.6674
19260TIP3    H279272   3.551   4.976   1.542  0.1289  1.6167 -0.5827
19261TIP3   OH279273   5.845   4.969   1.394  0.2162 -0.5632  0.0700
19261TIP3    H179274   5.803   4.901   1.446 -0.8159  0.5974  0.7745
19261TIP3    H279275   5.775   5.031   1.374  1.3556  0.8323  0.3299
19262TIP3   OH279276   3.402   3.067   5.520 -0.5834 -0.1009  0.6933
19262TIP3    H179277   3.443   3.067   5.433 -0.9549 -0.0702  0.5163
19262TIP3    H279278   3.309   3.080   5.502 -0.6980 -0.3978  1.0800
19263TIP3   OH279279   3.625   5.054  16.857 -0.5504 -0.1516  0.5534
19263TIP3    H179280   3.530   5.057  16.868 -0.5484 -0.4538  0.6403
19263TIP3    H279281   3.639   5.077  16.765 -0.7804 -1.3073  0.2302
19264TIP3   OH279282   1.278   0.210   2.963  0.1367  0.6014  0.1645
19264TIP3    H179283   1.279   0.304   2.981  0.4115  0.2322  2.2390
19264TIP3    H279284   1.194   0.195   2.921  0.4968  1.9202 -1.0676
19265TIP3   OH279285   0.356   5.357  15.246  0.1340  0.1711  0.5906
19265TIP3    H179286   0.446   5.386  15.236 -0.0852  0.6096 -0.0714
19265TIP3    H279287   0.360   5.262  15.230  0.2864  0.3709 -0.5653
19266TIP3   OH279288   0.873   5.693  14.668 -0.1685  0.0315  0.3861
19266TIP3    H179289   0.917   5.647  14.597 -0.7428 -0.2393  0.2021
19266TIP3    H279290   0.904   5.649  14.747  1.5399  1.2287  0.4035
19267TIP3   OH279291   2.488   6.231   4.675  0.5089 -0.1406 -0.1730
19267TIP3    H179292   2.417   6.293   4.666  1.2385  0.9031  1.0624
19267TIP3    H279293   2.542   6.243   4.597  0.7779  0.9572  0.1826
19268TIP3   OH279294   1.330   6.625   4.587  0.3987  0.1476  1.0819
19268TIP3    H179295   1.372   6.570   4.653  0.8627 -0.8604 -0.0174
19268TIP3    H279296   1.283   6.563   4.531 -1.1579  1.1195  1.2951
19269TIP3   OH279297   5.161   4.495   4.120  0.0652 -0.0201  0.2588
19269TIP3    H179298   5.116   4.444   4.188  1.9686  1.4274  2.6969
19269TIP3    H279299   5.202   4.429   4.064 -0.4663 -1.2311  1.2541
19270TIP3   OH279300   3.656   6.673   5.324  0.4102  0.3746  0.1489
19270TIP3    H179301   3.735   6.713   5.362  0.3703  0.2617  0.3541
19270TIP3    H279302   3.624   6.615   5.393 -0.8485  1.7427  0.7520
19271TIP3   OH279303   1.530   0.838   4.985 -0.3370  0.3866  0.0800
19271TIP3    H179304   1.436   0.826   4.972 -0.4651  1.5027 -0.1116
19271TIP3    H279305   1.537   0.911   5.047  0.3927  0.0775  0.3675
19272TIP3   OH279306   4.608   3.494  11.144 -0.1187 -0.6841 -0.2041
19272TIP3    H179307   4.694   3.483  11.184  0.0112 -0.8588 -0.5302
19272TIP3    H279308   4.558   3.546  11.207  0.0584 -1.0270  0.2183
19273TIP3   OH279309   6.728   1.559   2.988 -0.2005  0.0951  0.1584
19273TIP3    H179310   6.698   1.614   2.915 -3.4164  0.6226  1.7705
19273TIP3    H279311   6.757   1.622   3.055  0.7547 -0.3296  0.1526
19274TIP3   OH279312   1.996   1.827   3.347  0.2129  0.0639  0.1609
19274TIP3    H179313   2.039   1.905   3.381  2.2710 -0.1933 -1.7554
19274TIP3    H279314   2.036   1.812   3.261 -2.4635 -1.2078 -0.9516
19275TIP3   OH279315   6.289   1.241  17.043  0.0533  0.3682  0.2277
19275TIP3    H179316   6.256   1.226  17.132 -2.9046 -0.5830 -0.9697
19275TIP3    H279317   6.384   1.244  17.053 -0.1564 -1.1325  3.2168
19276TIP3   OH279318   5.720   3.132   5.993  0.1039  0.0877 -0.2756
19276TIP3    H179319   5.785   3.142   5.923  0.6456  0.8550  0.3297
19276TIP3    H279320   5.763   3.076   6.058 -0.1242 -0.0161 -0.2125
19277TIP3   OH279321   0.515   1.380  10.952  0.0674 -0.0212  0.5688
19277TIP3    H179322   0.503   1.464  10.996  1.9366 -0.1654  1.4018
19277TIP3    H279323   0.584   1.336  11.002 -0.4816 -1.8109 -0.2101
19278TIP3   OH279324   1.990   4.814   4.460 -0.0583 -0.7499  0.1647
19278TIP3    H179325   1.983   4.890   4.518 -1.5162  0.6737 -1.8099
19278TIP3    H279326   2.063   4.763   4.496  2.0280  2.3798  0.5770
19279TIP3   OH279327   2.342   6.045   0.717 -0.4997 -0.1074  0.6972
19279TIP3    H179328   2.399   6.062   0.793  1.8939  2.5227 -1.5603
19279TIP3    H279329   2.259   6.087   0.740 -0.2405 -0.4682  2.3836
19280TIP3   OH279330   3.690   1.733   5.346  0.2328 -0.1433  0.4931
19280TIP3    H179331   3.729   1.733   5.434 -0.2202  1.1786  0.7139
19280TIP3    H279332   3.643   1.650   5.341  0.0094 -0.0969  1.6215
19281TIP3   OH279333   1.132   4.165   6.196  0.4146  0.0339 -0.2714
19281TIP3    H179334   1.069   4.197   6.132  0.1799 -1.1040 -0.6140
19281TIP3    H279335   1.088   4.092   6.239  0.0765  1.5886  2.0972
19282TIP3   OH279336   0.518   3.478  13.230 -0.4160  0.2029  0.0968
19282TIP3    H179337   0.455   3.550  13.227  0.3588  0.9844  1.9883
19282TIP3    H279338   0.522   3.452  13.322  0.7511 -0.9783 -0.2663
19283TIP3   OH279339   3.923   0.289   4.457 -0.3136  0.1760  0.1607
19283TIP3    H179340   3.915   0.274   4.551  0.9587  0.2438  0.2946
19283TIP3    H279341   3.940   0.203   4.420 -0.0786  0.2537  0.0859
19284TIP3   OH279342   2.102   1.950  14.466 -0.4512  0.3336  0.7253
19284TIP3    H179343   2.015   1.969  14.500 -0.0947  0.0005  1.8379
19284TIP3    H279344   2.162   1.981  14.534  0.2471 -0.8541  0.6684
19285TIP3   OH279345   5.280   5.359  15.777  0.0984  0.1182 -0.1820
19285TIP3    H179346   5.350   5.316  15.728  0.6242 -0.2271  0.8595
19285TIP3    H279347   5.325   5.414  15.841 -0.5269 -1.9615  2.1285
19286TIP3   OH279348   1.380   0.232   2.204 -0.1339 -0.5464  0.9666
19286TIP3    H179349   1.381   0.247   2.299 -0.6764 -0.3866  0.9526
19286TIP3    H279350   1.289   0.208   2.186  0.2136 -1.6598  0.6511
19287TIP3   OH279351   1.819   1.400   5.829 -0.5186 -0.2872  0.1376
19287TIP3    H179352   1.757   1.417   5.900  1.9222 -1.7469  2.7331
19287TIP3    H279353   1.886   1.467   5.839  0.2892 -1.0292 -0.2132
19288TIP3   OH279354   5.199   5.090  17.064 -0.2505  0.1995  0.8753
19288TIP3    H179355   5.214   5.051  17.150  0.1130  1.3647  1.3530
19288TIP3    H279356   5.115   5.136  17.072 -1.0515 -1.0764  0.0906
19289TIP3   OH279357   6.265   1.130  15.550 -0.1689  0.2059 -0.0116
19289TIP3    H179358   6.266   1.086  15.465 -1.8143 -2.5935  1.3659
19289TIP3    H279359   6.172   1.138  15.571  0.1887  2.0085  1.0104
19290TIP3   OH279360   0.698   3.205  16.383  0.6282 -0.1827 -0.4287
19290TIP3    H179361   0.603   3.192  16.381  0.4369  1.2758 -2.4050
19290TIP3    H279362   0.718   3.220  16.476 -1.1339 -0.0503 -0.0494
19291TIP3   OH279363   1.448   6.149   6.243  0.4100 -0.2199  0.2724
19291TIP3    H179364   1.442   6.144   6.339 -1.2925  0.2559  0.2234
19291TIP3    H279365   1.400   6.073   6.212  0.2004  0.0995 -0.1962
19292TIP3   OH279366   4.446   6.539   1.377 -0.5881 -0.2222  0.4067
19292TIP3    H179367   4.437   6.556   1.471  0.4930 -1.2737  0.7277
19292TIP3    H279368   4.538   6.512   1.367 -0.4502  0.7749 -1.1019
19293TIP3   OH279369   1.077   0.086   5.724  0.0404  0.3119  1.1622
19293TIP3    H179370   1.123   0.170   5.737  0.1822  0.4475 -0.1080
19293TIP3    H279371   1.130   0.040   5.658 -0.8591 -0.1321  0.7375
19294TIP3   OH279372   2.641   5.215  14.641  0.1884  0.3386  0.9535
19294TIP3    H179373   2.574   5.281  14.657 -0.0797 -0.1028  1.6912
19294TIP3    H279374   2.672   5.232  14.552 -2.1028 -0.5535 -0.0302
19295TIP3   OH279375   2.257   0.104  16.894 -0.0787  0.2059  0.4356
19295TIP3    H179376   2.305   0.183  16.917  0.8801 -0.2500  0.0704
19295TIP3    H279377   2.325   0.045  16.859 -0.8366 -0.6264  0.3549
19296TIP3   OH279378   5.254   3.813  14.805 -0.0656  0.6594 -0.0263
19296TIP3    H179379   5.332   3.772  14.842  0.2802  2.4912  1.3716
19296TIP3    H279380   5.248   3.897  14.850 -3.0326  0.4195  0.1049
19297TIP3   OH279381   5.187   6.296   1.310  0.5877  0.7475 -0.1527
19297TIP3    H179382   5.275   6.258   1.306  0.3065 -0.3337  2.3869
19297TIP3    H279383   5.197   6.375   1.362  0.2239  1.1400 -0.6786
19298TIP3   OH279384   6.163   4.779  13.179 -1.0187 -0.1167 -1.1285
19298TIP3    H179385   6.188   4.695  13.143 -0.5862  0.5685 -2.4382
19298TIP3    H279386   6.243   4.832  13.177 -0.8874 -0.1534  1.1471
19299TIP3   OH279387   2.638   1.190  12.170 -0.2635 -0.3059 -0.0715
19299TIP3    H179388   2.555   1.218  12.130 -0.5906  0.7280  1.2890
19299TIP3    H279389   2.678   1.271  12.202  0.4826 -0.9863  0.7526
19300TIP3   OH279390   2.182   6.034  13.627 -0.0357 -0.7184  0.3334
19300TIP3    H179391   2.133   6.029  13.545 -0.3185 -2.9125  0.6257
19300TIP3    H279392   2.157   5.956  13.676 -0.1960  0.7605  2.7236
19301TIP3   OH279393   0.020   3.935   2.784  0.2772  0.2943 -0.4122
19301TIP3    H179394  -0.029   3.907   2.707 -0.5916 -0.3874  0.3743
19301TIP3    H279395   0.046   4.025   2.765 -1.5340  0.7739 -0.7276
19302TIP3   OH279396   4.762   6.499  14.647 -0.1721  0.1625  0.0139
19302TIP3    H179397   4.773   6.412  14.608 -1.1436 -0.2132  0.5409
19302TIP3    H279398   4.671   6.500  14.677  0.1568  0.9481  1.0193
19303TIP3   OH279399   3.067   2.168   5.796  0.3232 -0.0152 -0.5667
19303TIP3    H179400   3.124   2.100   5.831  0.4120 -1.0101 -2.6142
19303TIP3    H279401   2.984   2.156   5.844  0.5718 -1.0830 -0.3978
19304TIP3   OH279402   2.185   4.718  14.309 -0.4720 -0.3680  0.2323
19304TIP3    H179403   2.250   4.683  14.370  0.2089  0.5217  0.0474
19304TIP3    H279404   2.167   4.806  14.343  0.6605  0.5134 -1.3862
19305TIP3   OH279405   6.334   0.947   0.620  0.0171 -0.2420 -0.0912
19305TIP3    H179406   6.374   0.963   0.534  2.2418 -2.6257  0.4223
19305TIP3    H279407   6.376   1.011   0.677  1.9937 -1.7007  0.1234
19306TIP3   OH279408   6.027   5.317   1.366 -0.0081  0.1495  0.1990
19306TIP3    H179409   6.098   5.273   1.413  0.4029 -0.5763 -1.0720
19306TIP3    H279410   6.071   5.362   1.294 -1.0085 -1.9084 -1.7566
19307TIP3   OH279411   2.177   4.615  11.965  0.1357 -0.5591  0.5777
19307TIP3    H179412   2.088   4.581  11.960 -0.5724  1.0105  2.2154
19307TIP3    H279413   2.168   4.709  11.948  1.5565 -0.4857  0.1672
19308TIP3   OH279414   5.541   6.687   3.853  0.1595  0.1265 -0.7516
19308TIP3    H179415   5.464   6.737   3.826 -0.2855 -1.1856 -1.9107
19308TIP3    H279416   5.506   6.613   3.902  0.8721  1.5425  2.0532
19309TIP3   OH279417   0.439   4.870   4.710 -0.0717  0.3341 -0.0206
19309TIP3    H179418   0.345   4.892   4.711  0.0377  0.8634 -0.6331
19309TIP3    H279419   0.467   4.882   4.800 -0.4081  1.0426  0.0004
19310TIP3   OH279420   0.960   5.596   3.824 -0.0853 -0.2789  0.0917
19310TIP3    H179421   1.012   5.636   3.754 -0.6531  0.8496  0.3074
19310TIP3    H279422   0.879   5.646   3.826 -0.4251 -0.8424  1.0058
19311TIP3   OH279423   3.839   5.151  16.639  0.5961  0.2989  0.0318
19311TIP3    H179424   3.863   5.172  16.729 -1.3747 -1.6274  1.0432
19311TIP3    H279425   3.764   5.208  16.620  0.9618  0.6495 -0.3660
19312TIP3   OH279426   4.865   3.520  12.932  0.3217 -0.1140 -0.0661
19312TIP3    H179427   4.815   3.539  12.853  0.9133 -0.8119 -0.6139
19312TIP3    H279428   4.953   3.498  12.900  1.4706  2.7285  0.9694
19313TIP3   OH279429   2.883   1.691  14.784  0.2972 -0.0260 -0.0634
19313TIP3    H179430   2.848   1.709  14.872 -1.2268 -0.1891 -0.6246
19313TIP3    H279431   2.977   1.683  14.797  0.3697  2.3369  1.1882
19314TIP3   OH279432   3.014   1.738   3.359  0.0766  0.0709 -0.1580
19314TIP3    H179433   2.945   1.722   3.423 -0.3595  2.2355 -0.0478
19314TIP3    H279434   3.080   1.788   3.407  0.4492  0.4016 -1.0090
19315TIP3   OH279435   4.949   3.381  11.341 -0.1197 -0.1590  0.0455
19315TIP3    H179436   4.887   3.312  11.362  0.2615 -1.3230 -2.4382
19315TIP3    H279437   4.898   3.462  11.349 -1.8032 -1.0427 -1.2822
19316TIP3   OH279438   5.126   2.505   4.146  0.2018 -0.2524 -0.3273
19316TIP3    H179439   5.166   2.454   4.076  0.2628  1.0262 -1.2310
19316TIP3    H279440   5.062   2.561   4.102 -1.8874 -1.5322  0.9687
19317TIP3   OH279441   3.794   2.787  11.206  0.4443 -0.1230  0.3354
19317TIP3    H179442   3.816   2.700  11.173  1.2978 -0.1975  1.0742
19317TIP3    H279443   3.720   2.816  11.153 -0.5042 -1.7255  0.7595
19318TIP3   OH279444   5.165   4.944   0.497 -0.0117  0.2735 -0.0871
19318TIP3    H179445   5.133   4.908   0.580  1.2663  1.2029  0.8359
19318TIP3    H279446   5.089   4.944   0.440 -0.2706 -3.0041  0.1650
19319TIP3   OH279447   0.270   3.156   4.425 -0.3229 -0.3657 -0.3173
19319TIP3    H179448   0.338   3.152   4.492  0.8790  0.2164 -1.4687
19319TIP3    H279449   0.308   3.109   4.350 -1.2432 -0.1488 -0.9216
19320TIP3   OH279450   3.439   4.105   0.685 -0.3699  0.2659 -1.1734
19320TIP3    H179451   3.414   4.027   0.734  3.3859 -0.3434 -0.0386
19320TIP3    H279452   3.443   4.076   0.594 -1.3820 -0.2017 -1.0736
19321TIP3   OH279453   5.971   4.657   4.652  0.8510  0.0022 -0.1467
19321TIP3    H179454   6.002   4.747   4.665 -0.7819  0.6653 -0.7314
19321TIP3    H279455   5.998   4.611   4.731  3.5565  0.4758 -0.7392
19322TIP3   OH279456   1.365   3.956   4.437 -0.0487  0.0286  0.1193
19322TIP3    H179457   1.298   4.001   4.489  0.3278  0.9609 -0.1992
19322TIP3    H279458   1.316   3.895   4.383 -0.9507  2.6403 -2.1477
19323TIP3   OH279459   1.750   4.592  13.287 -0.2285 -0.0641  0.3176
19323TIP3    H179460   1.671   4.622  13.333  0.6775  1.6124  0.8217
19323TIP3    H279461   1.729   4.603  13.194 -0.3080  1.2056  0.4689
19324TIP3   OH279462   4.784   5.042  17.269 -0.1727  0.8392  0.4530
19324TIP3    H179463   4.739   4.994  17.339  0.9327 -0.8249  0.0638
19324TIP3    H279464   4.782   4.983  17.194  1.6623  1.1769  0.1053
19325TIP3   OH279465   6.808   2.961  10.424  1.2487 -0.5924  0.2644
19325TIP3    H179466   6.797   2.889  10.363 -2.5509  0.5938 -0.5864
19325TIP3    H279467   6.784   2.925  10.509 -1.8416 -0.1275 -0.3450
19326TIP3   OH279468   4.238   5.337  14.108 -0.5753  0.5138  0.1869
19326TIP3    H179469   4.184   5.415  14.117 -1.2876 -0.0768  1.1384
19326TIP3    H279470   4.243   5.321  14.014 -2.0631  0.5725  0.0885
19327TIP3   OH279471   0.579   2.647  17.209 -0.0643 -0.1849  0.0413
19327TIP3    H179472   0.672   2.634  17.227  0.0749 -0.6712 -0.9880
19327TIP3    H279473   0.534   2.607  17.283  0.5404  0.1286  0.5873
19328TIP3   OH279474   6.041   0.593  11.665 -0.2347  0.4462 -0.0001
19328TIP3    H179475   5.961   0.644  11.674  1.1792  2.6964  0.1348
19328TIP3    H279476   6.090   0.609  11.745  1.8158  1.7331 -1.4450
19329TIP3   OH279477   4.773   4.347  12.026  0.1805  0.0324 -0.0696
19329TIP3    H179478   4.759   4.355  11.931  0.3822  1.0505 -0.0257
19329TIP3    H279479   4.773   4.438  12.057 -1.0528 -0.3525  1.0811
19330TIP3   OH279480   3.250   4.955  12.258  0.6669  0.6525 -0.0453
19330TIP3    H179481   3.256   4.885  12.194 -3.2812 -1.0135  1.2587
19330TIP3    H279482   3.239   4.910  12.342 -0.4984  2.7745  0.9880
19331TIP3   OH279483   3.689   0.861  16.983 -0.0142 -0.0620 -0.3390
19331TIP3    H179484   3.719   0.886  16.895  1.4439 -0.3330  0.0711
19331TIP3    H279485   3.651   0.774  16.972 -0.6319  0.2706 -0.8573
19332TIP3   OH279486   1.011   5.835  13.106 -0.2650 -0.2975 -0.7792
19332TIP3    H179487   1.050   5.923  13.102 -0.1516 -0.3707 -1.2961
19332TIP3    H279488   0.987   5.815  13.016 -1.8679 -0.0908 -0.4139
19333TIP3   OH279489   5.775   5.177   1.651  0.1397 -0.6592  0.4820
19333TIP3    H179490   5.777   5.180   1.747  0.1295  1.1862  0.4482
19333TIP3    H279491   5.724   5.098   1.631 -1.0144 -0.3485  2.0153
19334TIP3   OH279492   2.094   6.458   2.037  0.5829  0.2603  0.2157
19334TIP3    H179493   2.177   6.411   2.034  0.5758  0.2441  0.2749
19334TIP3    H279494   2.110   6.533   2.094  0.4166 -0.0099  0.6165
19335TIP3   OH279495   6.384   4.981  13.161  1.1925  0.0558 -0.0763
19335TIP3    H179496   6.427   5.004  13.079  1.0030  0.7794  0.0293
19335TIP3    H279497   6.413   5.048  13.223  1.8133 -0.8301  0.6058
19336TIP3   OH279498   3.469   1.237   3.875 -0.9508  0.2422 -0.3672
19336TIP3    H179499   3.540   1.299   3.859 -0.0062 -1.0093 -1.1253
19336TIP3    H279500   3.462   1.187   3.793 -0.0669 -2.2855  1.0579
19337TIP3   OH279501   2.506   2.894   6.351  0.1146  0.0838 -0.9508
19337TIP3    H179502   2.414   2.918   6.363 -0.0942 -0.4279 -1.4753
19337TIP3    H279503   2.506   2.798   6.353  0.6467  0.0825 -0.8895
19338TIP3   OH279504   1.658   5.560   1.823 -0.2282 -0.4941  0.5408
19338TIP3    H179505   1.648   5.627   1.756 -0.7213 -0.4698  0.6361
19338TIP3    H279506   1.727   5.593   1.880  1.8173 -1.5854 -1.2501
19339TIP3   OH279507   2.601   2.295   2.195  0.0447  0.4224 -0.2034
19339TIP3    H179508   2.560   2.258   2.273 -0.5966  0.2102 -0.6408
19339TIP3    H279509   2.683   2.332   2.227  0.3795 -0.7694  0.3540
19340TIP3   OH279510   3.066   5.418   3.397 -0.1472  0.0441 -0.0843
19340TIP3    H179511   3.005   5.390   3.466  0.2478  0.5447  0.4676
19340TIP3    H279512   3.075   5.512   3.410  2.1073 -0.2851  0.9402
19341TIP3   OH279513   1.748   2.471  10.649  0.0169 -0.0270  0.0407
19341TIP3    H179514   1.805   2.399  10.623 -0.1725 -0.1739  0.0323
19341TIP3    H279515   1.767   2.540  10.585  1.1437  0.4038  0.8202
19342TIP3   OH279516   0.708   3.126   3.189  0.0542 -0.0768  0.3793
19342TIP3    H179517   0.721   3.155   3.279 -0.9889  1.4844  0.0555
19342TIP3    H279518   0.614   3.107   3.184 -0.4437  2.5540 -1.1102
19343TIP3   OH279519   3.469   1.835   2.539  0.3841 -0.0011 -0.1631
19343TIP3    H179520   3.412   1.824   2.616 -0.8810  2.0047 -0.7561
19343TIP3    H279521   3.436   1.772   2.475 -1.0777  0.9938 -0.4194
19344TIP3   OH279522   4.880   5.046  10.925  0.2918  0.4023  0.2748
19344TIP3    H179523   4.915   4.968  10.968 -0.9300 -0.6560 -0.6102
19344TIP3    H279524   4.838   5.095  10.996  0.5492 -0.0312  0.7330
19345TIP3   OH279525   6.054   0.316   2.910 -0.0699  0.2913 -0.4519
19345TIP3    H179526   6.019   0.247   2.853  0.1562  0.9305 -1.3842
19345TIP3    H279527   6.149   0.306   2.903 -0.0336  0.7779 -0.7007
19346TIP3   OH279528   6.574   0.671  12.352 -0.2330  0.4614  0.0122
19346TIP3    H179529   6.653   0.694  12.400 -1.1242  3.9066 -0.0568
19346TIP3    H279530   6.509   0.654  12.421 -0.7525  2.6038  0.0734
19347TIP3   OH279531   2.806   1.779   4.965  0.5149  0.1021  0.1889
19347TIP3    H179532   2.755   1.751   4.889  1.6911 -0.0909 -0.5401
19347TIP3    H279533   2.892   1.801   4.930  0.5856  1.5865  1.2364
19348TIP3   OH279534   6.355   5.254  15.931 -0.0259  0.3369 -0.0840
19348TIP3    H179535   6.370   5.254  16.026 -1.4206  0.6907  0.1529
19348TIP3    H279536   6.331   5.344  15.910  3.2631  0.9769 -1.3075
19349TIP3   OH279537   5.950   3.407   4.400  0.1724 -0.3619  0.1596
19349TIP3    H179538   6.035   3.383   4.364  0.1437 -0.4192  0.1303
19349TIP3    H279539   5.888   3.390   4.329  0.0705 -0.8205  0.3585
19350TIP3   OH279540   1.063   2.054  15.326 -0.6159  0.0422  0.1020
19350TIP3    H179541   0.987   2.007  15.290  0.3026 -0.4859 -1.1784
19350TIP3    H279542   1.073   2.131  15.269  0.1327 -0.1789 -0.0684
19351TIP3   OH279543   4.279   5.758   0.165  0.2340 -0.2839 -0.1876
19351TIP3    H179544   4.319   5.842   0.188 -1.1639  0.4658 -0.4535
19351TIP3    H279545   4.259   5.766   0.071  0.4148 -1.0411 -0.2904
19352TIP3   OH279546   5.563   6.703  14.367  0.1286  0.4449 -0.2278
19352TIP3    H179547   5.474   6.678  14.343  0.6038 -1.1649 -0.4358
19352TIP3    H279548   5.581   6.653  14.447  1.5922 -0.9734 -1.3926
19353TIP3   OH279549   6.479   6.702   1.549  0.2904 -0.0578  0.2220
19353TIP3    H179550   6.385   6.694   1.566  0.8925 -0.9301  3.6330
19353TIP3    H279551   6.493   6.795   1.534 -1.2182 -0.0364 -1.2631
19354TIP3   OH279552   0.489   5.432  13.315 -0.1237 -0.3128 -0.3674
19354TIP3    H179553   0.554   5.457  13.380  0.0034 -2.0394  0.1841
19354TIP3    H279554   0.431   5.508  13.308  0.3348  0.1804  1.1542
19355TIP3   OH279555   2.847   2.110   1.175  0.0786  0.0412 -0.1030
19355TIP3    H179556   2.927   2.125   1.125  1.1690  1.6939  2.0638
19355TIP3    H279557   2.786   2.177   1.143  0.0366 -0.2737 -0.7001
19356TIP3   OH279558   6.165   4.630   3.314  0.0936 -0.0574  0.2858
19356TIP3    H179559   6.099   4.580   3.266 -0.2135 -0.2193  0.8745
19356TIP3    H279560   6.249   4.591   3.287 -0.0557  0.0655 -0.3619
19357TIP3   OH279561   0.652   4.111  15.466 -0.5742 -0.2805 -0.6471
19357TIP3    H179562   0.582   4.092  15.529 -1.2794  1.2125 -0.9533
19357TIP3    H279563   0.645   4.205  15.451  0.7877 -0.3207 -1.5452
19358TIP3   OH279564   3.320   2.417  13.021  0.2995 -0.5947  0.3901
19358TIP3    H179565   3.374   2.447  13.093  1.5416 -0.9158 -0.4000
19358TIP3    H279566   3.339   2.478  12.949  0.4086 -1.3471 -0.2227
19359TIP3   OH279567   6.367   3.277  16.972  0.2852 -0.3421 -0.1494
19359TIP3    H179568   6.404   3.261  16.886  0.6637  0.3672 -0.1186
19359TIP3    H279569   6.293   3.336  16.956 -1.0919 -2.0639 -0.2613
19360TIP3   OH279570   3.018   5.207   2.981  0.4338 -0.1385  0.4571
19360TIP3    H179571   2.926   5.184   2.968  0.0832 -0.0458  2.6371
19360TIP3    H279572   3.063   5.169   2.905 -1.4022 -0.0521 -0.7163
19361TIP3   OH279573   4.408   6.670  13.895 -0.0704  0.5800  0.0588
19361TIP3    H179574   4.371   6.758  13.891 -0.4716  0.4450  0.7021
19361TIP3    H279575   4.425   6.647  13.804 -0.9751  0.8969 -0.1966
19362TIP3   OH279576   6.152   0.171  15.287  1.0465 -0.0970  0.4672
19362TIP3    H179577   6.233   0.150  15.239  0.1252  0.3725 -1.3243
19362TIP3    H279578   6.085   0.116  15.246  0.1584  0.6417  0.9097
19363TIP3   OH279579   1.169   0.957  11.989 -0.1713 -0.3912  0.1905
19363TIP3    H179580   1.211   0.892  12.045 -0.2132 -0.4039  0.2074
19363TIP3    H279581   1.239   0.987  11.931  0.5787  1.6465  2.0614
19364TIP3   OH279582   0.838   1.241  15.896  0.2615  0.1823 -0.2415
19364TIP3    H179583   0.924   1.232  15.938  0.1489  1.3342  0.2573
19364TIP3    H279584   0.783   1.177  15.941  0.3102  0.9603  0.9450
19365TIP3   OH279585   2.558   4.055   2.961 -0.4786 -0.0545 -0.3673
19365TIP3    H179586   2.476   4.013   2.936 -0.6922  0.7379 -1.0241
19365TIP3    H279587   2.542   4.088   3.049 -0.4883 -0.8913 -0.0597
19366TIP3   OH279588   4.821   2.534   5.912  0.1182  0.3784 -0.0892
19366TIP3    H179589   4.754   2.592   5.950  0.7707  0.9951  0.1227
19366TIP3    H279590   4.878   2.593   5.862  0.3664 -0.1823 -0.4753
19367TIP3   OH279591   5.656   5.031   3.129  0.8086  0.2074  0.4857
19367TIP3    H179592   5.599   4.992   3.064  0.1999  1.8075  0.0405
19367TIP3    H279593   5.743   5.029   3.089  0.3165  1.8925 -0.7410
19368TIP3   OH279594   0.217   0.419   1.627  0.0358 -0.1149  0.5142
19368TIP3    H179595   0.291   0.419   1.567 -0.9384  1.0806 -0.7070
19368TIP3    H279596   0.257   0.416   1.714  1.4954  0.1005 -0.1305
19369TIP3   OH279597   5.766   2.617   0.693 -0.1331  0.4556 -0.5978
19369TIP3    H179598   5.778   2.682   0.763 -3.7146 -0.9854  1.4959
19369TIP3    H279599   5.686   2.645   0.648 -0.9139 -1.6485 -0.5918
19370TIP3   OH279600   5.018   0.190  10.650  0.3700 -0.6632 -0.9004
19370TIP3    H179601   4.993   0.280  10.630 -1.6684 -1.1037 -0.3682
19370TIP3    H279602   5.009   0.143  10.567  0.9123 -0.5083 -1.0519
19371TIP3   OH279603   1.411   1.012   3.379 -0.1127  0.4678 -0.0359
19371TIP3    H179604   1.425   0.918   3.382  1.3155  0.6954  1.1685
19371TIP3    H279605   1.487   1.046   3.331 -0.7661  0.9921 -0.7220
19372TIP3   OH279606   5.703   3.611  10.391 -0.4680  0.0460 -0.3550
19372TIP3    H179607   5.656   3.557  10.454  1.5497 -0.1885  0.9922
19372TIP3    H279608   5.747   3.677  10.444  0.7560  0.2317 -1.5670
19373TIP3   OH279609   5.606   2.035  14.894  0.3769  0.1152 -0.0434
19373TIP3    H179610   5.588   1.941  14.887  1.1246 -0.0518  0.2552
19373TIP3    H279611   5.700   2.043  14.878  0.1287  0.9326 -1.1315
19374TIP3   OH279612   5.322   3.843  16.677  0.0590 -0.3653 -0.4419
19374TIP3    H179613   5.407   3.826  16.719 -0.7541  0.0993  1.4670
19374TIP3    H279614   5.340   3.912  16.614  0.9941  0.1530  0.3648
19375TIP3   OH279615   0.915   5.526   4.679  0.2506 -0.1732  0.2710
19375TIP3    H179616   0.997   5.563   4.714  0.8128 -2.8891  1.9775
19375TIP3    H279617   0.922   5.432   4.695 -3.4882 -0.4053  1.0306
19376TIP3   OH279618   2.635   4.035   0.318  0.2895  0.2838  0.2358
19376TIP3    H179619   2.688   3.991   0.385 -0.1762 -0.3865  0.1632
19376TIP3    H279620   2.547   4.040   0.357  0.2062  0.6382  0.0067
19377TIP3   OH279621   5.827   4.727   4.133 -0.1238 -0.0851 -0.7992
19377TIP3    H179622   5.859   4.639   4.113 -3.3844 -1.2144 -1.4084
19377TIP3    H279623   5.849   4.740   4.225  5.4905  0.8377 -2.1289
19378TIP3   OH279624   4.618   2.643   6.071 -0.3297  0.6225  0.0931
19378TIP3    H179625   4.611   2.565   6.126 -0.3132 -0.0543 -0.8388
19378TIP3    H279626   4.650   2.711   6.129  0.1617 -0.2082  0.8063
19379TIP3   OH279627   2.029   1.772  15.897  0.1967  0.0883 -0.2171
19379TIP3    H179628   2.045   1.781  15.803  0.6977 -2.0112 -0.3447
19379TIP3    H279629   2.046   1.680  15.916  0.7981  0.6368  2.0717
19380TIP3   OH279630   2.376   5.821   3.855 -0.4544 -0.6607 -0.2341
19380TIP3    H179631   2.328   5.742   3.830 -1.4046 -0.3354  0.4995
19380TIP3    H279632   2.341   5.889   3.798 -1.8991 -0.1307  1.2457
19381TIP3   OH279633   2.485   5.087  16.646  0.0854  0.1338 -0.0361
19381TIP3    H179634   2.454   5.005  16.684  0.5682  0.1316  0.3642
19381TIP3    H279635   2.415   5.150  16.665  0.5873  0.2784  1.4266
19382TIP3   OH279636   6.211   6.437  16.086 -0.0694 -0.0565 -0.1771
19382TIP3    H179637   6.126   6.395  16.076  0.2384 -0.7337  0.0374
19382TIP3    H279638   6.219   6.453  16.181  0.2895 -0.5189 -0.1269
19383TIP3   OH279639   3.609   4.244  16.588 -0.4519 -1.0265  0.1446
19383TIP3    H179640   3.633   4.335  16.607  0.8014 -0.6988 -2.7252
19383TIP3    H279641   3.632   4.196  16.667 -1.0597  1.1204  1.6800
19384TIP3   OH279642   6.229   0.544  16.674 -0.0565 -0.1589 -0.1432
19384TIP3    H179643   6.314   0.545  16.629 -0.9992 -1.0966 -2.0308
19384TIP3    H279644   6.166   0.527  16.604 -1.7880  0.3535  1.2629
19385TIP3   OH279645   1.800   0.065   4.711  0.2518 -0.1512 -0.1767
19385TIP3    H179646   1.783   0.037   4.622 -1.2189  1.0043 -0.2761
19385TIP3    H279647   1.825   0.157   4.703 -1.1325  0.3178  0.7052
19386TIP3   OH279648   5.700   6.296  15.739 -0.0606  0.1805 -0.3751
19386TIP3    H179649   5.646   6.273  15.664 -1.4550  0.0292  0.6442
19386TIP3    H279650   5.642   6.283  15.815  0.6198  2.4391  0.5768
19387TIP3   OH279651   5.268   3.928  13.731  0.1717  0.6547 -0.4723
19387TIP3    H179652   5.327   3.882  13.671 -0.4593  0.0738 -0.6492
19387TIP3    H279653   5.323   3.996  13.771  0.3501  1.7461 -2.4931
19388TIP3   OH279654   3.890   6.243  10.706 -0.1731  0.0917  0.6421
19388TIP3    H179655   3.851   6.161  10.676 -0.8075 -0.2643  2.3956
19388TIP3    H279656   3.817   6.291  10.746 -0.0736  2.0218 -1.3967
19389TIP3   OH279657   5.529   5.416  17.137  0.4987 -0.2692 -0.2145
19389TIP3    H179658   5.589   5.356  17.094  0.5814 -0.1625 -0.2499
19389TIP3    H279659   5.572   5.502  17.130 -0.0375 -0.0575 -0.9679
19390TIP3   OH279660   1.931   0.468   3.041  0.2033  0.6712  0.8152
19390TIP3    H179661   2.024   0.486   3.028  0.3317  1.8587  3.0328
19390TIP3    H279662   1.926   0.434   3.131 -1.1513 -2.2679 -0.3150
19391TIP3   OH279663   4.328   5.252  13.859 -0.0454  0.1481 -0.5974
19391TIP3    H179664   4.247   5.279  13.815 -0.6601 -0.1366  0.3421
19391TIP3    H279665   4.382   5.215  13.789 -2.0668 -2.7342 -0.7371
19392TIP3   OH279666   3.912   5.588   1.932 -0.4979 -0.8691 -0.5368
19392TIP3    H179667   3.989   5.540   1.963  0.7072 -0.6491 -3.0734
19392TIP3    H279668   3.948   5.669   1.894 -2.2047  0.4003  0.4785
19393TIP3   OH279669   5.903   5.775   4.201 -0.6624 -0.0689 -0.4953
19393TIP3    H179670   5.966   5.846   4.215 -2.0875  1.0288  0.4831
19393TIP3    H279671   5.918   5.748   4.111 -0.3959  1.7884 -1.0402
19394TIP3   OH279672   4.684   4.535  14.754 -0.1351 -0.3333 -0.3112
19394TIP3    H179673   4.601   4.534  14.801 -1.0147  2.2874 -1.7041
19394TIP3    H279674   4.667   4.488  14.672  0.9389 -3.4143  1.1489
19395TIP3   OH279675   2.522   5.962   2.609 -0.2020  0.3126  0.3369
19395TIP3    H179676   2.572   6.041   2.590 -0.0714  0.1699  0.0811
19395TIP3    H279677   2.443   5.970   2.555  0.4950 -0.4255 -0.8172
19396TIP3   OH279678   3.818   4.164  16.027  0.0785  0.2253 -0.1768
19396TIP3    H179679   3.832   4.213  16.108 -0.5281  0.9804 -0.5264
19396TIP3    H279680   3.778   4.081  16.055 -1.9299  1.2729  0.1343
19397TIP3   OH279681   5.033   2.030  17.223 -0.2440  0.4464  0.1416
19397TIP3    H179682   5.103   1.989  17.173  0.1779 -0.4181  1.4097
19397TIP3    H279683   4.980   2.076  17.158 -0.7797 -2.1909 -1.3451
19398TIP3   OH279684   6.388   5.273  11.864 -0.7496  0.1514  0.2040
19398TIP3    H179685   6.314   5.291  11.806 -0.6752  2.6910  0.8190
19398TIP3    H279686   6.387   5.345  11.927  1.2695 -0.6571  1.2151
19399TIP3   OH279687   1.703   2.238   1.911 -0.7813  0.2505 -0.4795
19399TIP3    H179688   1.706   2.315   1.854 -1.8082 -0.6777 -1.8075
19399TIP3    H279689   1.653   2.268   1.988 -1.8472  0.7088 -1.3311
19400TIP3   OH279690   6.044   1.310  12.205 -0.0712  0.2471  0.1500
19400TIP3    H179691   5.986   1.386  12.216  1.8217  2.3211 -3.3206
19400TIP3    H279692   6.007   1.262  12.130  0.8019 -0.2417  0.0255
19401TIP3   OH279693   6.192   2.251   2.554  0.1709 -0.2315 -0.0739
19401TIP3    H179694   6.177   2.244   2.648 -1.6797  1.1122 -0.2265
19401TIP3    H279695   6.274   2.204   2.539  0.4088 -0.6075  2.1725
19402TIP3   OH279696   1.554   3.478   4.330 -0.1363  0.3017  0.0583
19402TIP3    H179697   1.519   3.435   4.408 -1.1334  0.4854 -0.2892
19402TIP3    H279698   1.612   3.412   4.291 -0.3474 -0.1197  0.4536
19403TIP3   OH279699   6.604   4.437   4.703 -0.2502  0.5996  0.0198
19403TIP3    H179700   6.699   4.431   4.718 -0.5905  0.4840  2.2287
19403TIP3    H279701   6.587   4.371   4.635  1.0352 -0.4005  0.6370
19404TIP3   OH279702   6.532   4.419   4.990  0.2416  0.1184 -0.5842
19404TIP3    H179703   6.601   4.353   4.996  1.2256  1.1138 -0.7203
19404TIP3    H279704   6.538   4.452   4.900 -0.4219  0.2076 -0.5978
19405TIP3   OH279705   5.881   2.383   1.893 -0.8007  0.3121 -0.0259
19405TIP3    H179706   5.907   2.453   1.954  1.3898 -1.0874  0.7440
19405TIP3    H279707   5.811   2.336   1.939  0.1620 -0.1279  1.0422
19406TIP3   OH279708   5.139   4.803   2.926  0.3084  0.1241 -0.3831
19406TIP3    H179709   5.199   4.796   2.852  0.3464  1.3480 -0.4798
19406TIP3    H279710   5.172   4.877   2.976 -2.4227  2.2765 -1.6392
19407TIP3   OH279711   3.252   4.938  13.287 -0.0820 -0.6791 -0.5270
19407TIP3    H179712   3.338   4.933  13.245 -0.1118  0.4476 -0.7294
19407TIP3    H279713   3.222   5.027  13.269 -0.0771 -0.1519  1.9208
19408TIP3   OH279714   0.419   5.547  14.931 -0.4418  0.0221 -0.6584
19408TIP3    H179715   0.344   5.503  14.971 -1.1065  1.0334 -0.7876
19408TIP3    H279716   0.493   5.488  14.948 -1.2280 -0.9017 -0.3909
19409TIP3   OH279717   1.289   0.545   2.080 -0.1922 -0.0802 -0.1050
19409TIP3    H179718   1.367   0.493   2.062 -0.6209 -0.4662 -0.8505
19409TIP3    H279719   1.280   0.543   2.175  0.7283  0.0008 -0.0146
19410TIP3   OH279720   3.097   2.634  15.294  0.0119 -0.1921 -0.0413
19410TIP3    H179721   3.015   2.606  15.333  0.4803 -1.2155  0.2366
19410TIP3    H279722   3.155   2.648  15.369 -0.1194  1.2050 -0.2006
19411TIP3   OH279723   6.510   6.479  12.702 -0.6610 -0.5210  0.0211
19411TIP3    H179724   6.576   6.423  12.660 -0.7760  0.0100 -0.8694
19411TIP3    H279725   6.445   6.417  12.736  1.4186 -1.2221  2.9612
19412TIP3   OH279726   1.507   2.476   0.075  0.4542 -0.7536  0.7861
19412TIP3    H179727   1.453   2.481  -0.004 -0.0084  0.0373  1.1407
19412TIP3    H279728   1.559   2.397   0.064 -2.4597 -2.8340  1.5023
19413TIP3   OH279729   5.413   0.751   1.222 -0.2837 -0.4431 -0.6366
19413TIP3    H179730   5.443   0.703   1.300 -0.1976  0.4661 -0.1040
19413TIP3    H279731   5.488   0.804   1.196 -1.1186  1.1194  0.1349
19414TIP3   OH279732   4.353   4.727   2.148 -0.2270  0.1655 -0.3068
19414TIP3    H179733   4.291   4.704   2.217 -2.5136  1.0665 -1.9999
19414TIP3    H279734   4.312   4.694   2.067  0.6563  2.3042 -1.6718
19415TIP3   OH279735   1.114   0.501  11.988 -0.5183  0.0169  0.1634
19415TIP3    H179736   1.111   0.482  11.895 -2.2479 -2.1508  0.5992
19415TIP3    H279737   1.171   0.434  12.025 -3.6625 -2.1608  1.2445
19416TIP3   OH279738   3.963   0.598   2.410  0.0058  0.3095 -0.6711
19416TIP3    H179739   3.886   0.656   2.410  0.5761  1.0778  0.1076
19416TIP3    H279740   3.939   0.527   2.351 -2.3901 -0.9002  1.6370
19417TIP3   OH279741   6.424   6.607   5.284  0.0042 -0.2465  0.0170
19417TIP3    H179742   6.503   6.578   5.330 -0.4574 -0.1539  0.8843
19417TIP3    H279743   6.389   6.678   5.338 -0.8861 -0.5536 -0.1379
19418TIP3   OH279744   6.423   3.309  12.641 -0.3548 -0.0809  0.7875
19418TIP3    H179745   6.420   3.261  12.724  0.4976 -0.1744  0.7752
19418TIP3    H279746   6.431   3.401  12.667  0.6042 -0.1634  0.8225
19419TIP3   OH279747   5.786   0.178  12.253 -0.2370 -0.4204  0.7556
19419TIP3    H179748   5.712   0.205  12.307 -0.1284  0.1482  0.6232
19419TIP3    H279749   5.856   0.239  12.275 -0.1678 -0.2265  0.0228
19420TIP3   OH279750   6.596   4.444   1.682 -0.3753  0.0264 -0.0783
19420TIP3    H179751   6.567   4.451   1.773 -2.8302 -0.5196 -0.7894
19420TIP3    H279752   6.556   4.363   1.650  1.7287 -0.6065 -1.2139
19421TIP3   OH279753   5.976   2.838  10.640 -0.4264  0.0908 -0.3009
19421TIP3    H179754   6.008   2.760  10.685  0.5341  0.3443 -0.5346
19421TIP3    H279755   6.039   2.907  10.662 -1.7847  1.0492  0.6848
19422TIP3   OH279756   3.981   2.308  14.704  0.6460 -0.0105  0.2115
19422TIP3    H179757   3.905   2.295  14.647  0.4810  0.8151  0.2403
19422TIP3    H279758   3.985   2.403  14.718  0.3787 -0.2472  1.9999
19423TIP3   OH279759   2.632   1.106  14.809  0.1314  0.1355 -0.3019
19423TIP3    H179760   2.576   1.038  14.848 -1.4181  1.7601  0.3562
19423TIP3    H279761   2.571   1.171  14.776  1.6520  2.3105  1.0750
19424TIP3   OH279762   4.056   4.281  15.567 -0.1822  0.7098 -0.3035
19424TIP3    H179763   3.995   4.240  15.629 -1.1745  1.8914 -0.4770
19424TIP3    H279764   4.119   4.327  15.622 -0.1656  0.4830 -0.1339
19425TIP3   OH279765   1.457   4.077  13.877 -0.2819 -0.2664 -0.5886
19425TIP3    H179766   1.499   4.162  13.868  0.4136 -0.6768 -1.2795
19425TIP3    H279767   1.486   4.027  13.800 -0.7537 -1.0970 -0.2414
19426TIP3   OH279768   3.820   4.475   4.756  0.6794  0.2374 -0.2970
19426TIP3    H179769   3.732   4.462   4.792  0.6308 -0.8631 -0.7933
19426TIP3    H279770   3.811   4.548   4.696  0.3362  0.8286  0.4634
19427TIP3   OH279771   0.980   6.281   6.627  0.1986  0.3430 -0.2097
19427TIP3    H179772   0.963   6.199   6.580  1.2218  0.8269 -1.4246
19427TIP3    H279773   1.063   6.266   6.672 -1.2252 -0.4718  2.3030
19428TIP3   OH279774   3.232   0.716  15.142 -0.0693 -0.3977 -0.3745
19428TIP3    H179775   3.216   0.632  15.099  1.5996 -0.7674 -0.3050
19428TIP3    H279776   3.145   0.749  15.163 -0.7308 -2.2637 -0.0992
19429TIP3   OH279777   1.188   3.219   5.377  0.4091  0.1759 -0.1663
19429TIP3    H179778   1.175   3.312   5.391 -0.3820 -0.0675  0.8276
19429TIP3    H279779   1.154   3.202   5.289 -0.9510  0.5447  0.2715
19430TIP3   OH279780   5.769   1.914   1.274 -0.0115 -0.0588  0.1012
19430TIP3    H179781   5.758   1.825   1.307 -0.7235 -0.4157 -1.1008
19430TIP3    H279782   5.743   1.970   1.348 -1.5398 -0.8565  0.1814
19431TIP3   OH279783   4.820   4.811  10.711  0.0794  0.0298 -0.0361
19431TIP3    H179784   4.855   4.890  10.753  0.3998  0.4543 -1.0945
19431TIP3    H279785   4.743   4.789  10.764  0.9525  0.0673  1.2794
19432TIP3   OH279786   1.164   2.676  12.643 -0.1468 -0.3675  0.1414
19432TIP3    H179787   1.070   2.676  12.622 -0.2653 -0.8352  0.6673
19432TIP3    H279788   1.168   2.656  12.736  0.3553  2.3732  0.7303
19433TIP3   OH279789   2.055   4.389   2.203  0.0619  0.1536  0.1208
19433TIP3    H179790   2.145   4.370   2.178  0.2738  0.4280  0.6656
19433TIP3    H279791   2.010   4.409   2.121  0.0812 -1.7017 -0.3598
19434TIP3   OH279792   4.589   6.002   1.233 -1.0277  0.3467 -0.2079
19434TIP3    H179793   4.525   5.935   1.208  0.9197 -1.1000 -1.4669
19434TIP3    H279794   4.612   6.045   1.151  1.2479 -0.6593 -0.1383
19435TIP3   OH279795   4.101   2.352   1.104 -0.8154  0.1575  0.0290
19435TIP3    H179796   4.031   2.297   1.070 -0.0316 -0.2834 -0.8716
19435TIP3    H279797   4.177   2.295   1.110 -0.6210  0.5457  1.3503
19436TIP3   OH279798   5.045   6.409  15.890 -0.6756  0.3867  0.3590
19436TIP3    H179799   5.024   6.446  15.804 -0.7729  0.5571  0.4548
19436TIP3    H279800   5.105   6.336  15.871 -0.2572  0.7720  0.1897
19437TIP3   OH279801   5.871   3.894   3.996 -0.0146 -0.6079 -0.4605
19437TIP3    H179802   5.902   3.942   3.919  0.6800  0.0649  0.2362
19437TIP3    H279803   5.777   3.912   3.999  0.1537  0.2928 -0.4989
19438TIP3   OH279804   6.554   1.802  13.014  0.2465 -0.2083 -0.0779
19438TIP3    H179805   6.499   1.725  13.023  0.9079 -0.6009  0.5768
19438TIP3    H279806   6.642   1.768  12.996  0.2183  0.4199 -1.4823
19439TIP3   OH279807   0.313   4.307  16.822 -0.1178 -0.3550  0.2426
19439TIP3    H179808   0.228   4.272  16.850 -0.5672  0.3610 -0.2210
19439TIP3    H279809   0.376   4.267  16.883 -0.7773 -0.9201  0.5676
19440TIP3   OH279810   3.110   0.617  15.764  0.2268 -0.7054  0.7155
19440TIP3    H179811   3.178   0.633  15.829  0.5498  2.0244 -0.2425
19440TIP3    H279812   3.029   0.614  15.814  0.5654  0.5862  1.3502
19441TIP3   OH279813   2.963   0.700  16.688 -0.3569  0.5759 -0.1633
19441TIP3    H179814   2.978   0.749  16.769  1.4333  0.8441 -0.6347
19441TIP3    H279815   2.880   0.654  16.703  0.2713  0.0835  2.0943
19442TIP3   OH279816   5.872   2.620  16.078 -0.2430  0.1012 -0.2962
19442TIP3    H179817   5.806   2.683  16.106  0.3095  0.3752  0.3922
19442TIP3    H279818   5.825   2.561  16.019 -0.7524  1.1877 -0.9944
19443TIP3   OH279819   5.547   6.259  12.793 -0.0071 -0.2598 -0.3389
19443TIP3    H179820   5.478   6.325  12.783 -0.2547 -0.5485 -0.5216
19443TIP3    H279821   5.519   6.186  12.738  1.3538  0.3483 -1.8655
19444TIP3   OH279822   2.256   0.635  11.186  0.5007  0.0659 -0.3515
19444TIP3    H179823   2.275   0.552  11.230 -1.5493  1.0803  2.6102
19444TIP3    H279824   2.290   0.702  11.245 -0.3509  1.4016 -1.3616
19445TIP3   OH279825   2.551   3.983  12.561 -0.1615  0.3509  0.0740
19445TIP3    H179826   2.532   3.993  12.467 -1.3957  1.6459  0.4473
19445TIP3    H279827   2.469   3.951  12.599  0.1579  0.3849  0.8029
19446TIP3   OH279828   1.673   3.545  16.479  0.3382 -0.3955 -0.1382
19446TIP3    H179829   1.693   3.480  16.547  1.8365  0.9805  0.7957
19446TIP3    H279830   1.757   3.560  16.436  0.3537  1.9723  0.6386
19447TIP3   OH279831   1.259   6.784   5.556 -0.0367  0.1227  0.4193
19447TIP3    H179832   1.355   6.784   5.550  0.0598 -0.9597  1.8190
19447TIP3    H279833   1.230   6.754   5.470  0.9202 -1.2205  0.5520
19448TIP3   OH279834   3.051   1.222   2.037  1.0414 -0.2793 -0.7436
19448TIP3    H179835   2.988   1.225   2.109  2.7477  1.4830  0.7557
19448TIP3    H279836   2.997   1.223   1.958 -0.8492 -1.1571  0.4878
19449TIP3   OH279837   0.809   5.362  13.277 -0.5382  0.3850 -0.2589
19449TIP3    H179838   0.762   5.377  13.196 -0.5070  1.7563 -0.0235
19449TIP3    H279839   0.882   5.305  13.252  0.5874  2.3353 -1.5732
19450TIP3   OH279840   5.044   2.107  14.176 -0.8551 -0.0276  0.3332
19450TIP3    H179841   4.956   2.075  14.157 -0.0412 -2.3007  0.1749
19450TIP3    H279842   5.035   2.155  14.258 -1.9730 -1.6299  1.1781
19451TIP3   OH279843   0.352   0.962   2.215 -0.5759 -0.4098 -0.0490
19451TIP3    H179844   0.305   1.029   2.265 -1.4378 -0.4771 -0.7589
19451TIP3    H279845   0.313   0.965   2.128 -1.2233 -2.4343  0.1396
19452TIP3   OH279846   0.025   1.300   4.671  0.6840 -0.0172 -0.0041
19452TIP3    H179847  -0.040   1.230   4.670  0.6258  0.0392 -0.5438
19452TIP3    H279848  -0.011   1.367   4.614  1.5075 -0.2571 -0.8259
19453TIP3   OH279849   0.779   3.445  16.260  0.0506 -0.4158 -0.2877
19453TIP3    H179850   0.775   3.359  16.302  1.3251  0.8404  2.5686
19453TIP3    H279851   0.872   3.458  16.241 -0.0809  0.5086 -0.3121
19454TIP3   OH279852   6.407   3.766  15.165  0.6451  0.6413 -0.1012
19454TIP3    H179853   6.453   3.683  15.147 -0.0412  0.2081  0.1090
19454TIP3    H279854   6.329   3.762  15.110 -0.3941  0.2575  1.3689
19455TIP3   OH279855   4.091   6.477   4.568  0.3371 -0.0829  0.2150
19455TIP3    H179856   4.025   6.486   4.499  0.7028  1.0431 -0.0074
19455TIP3    H279857   4.168   6.441   4.523  0.4520  0.3004  0.0986
19456TIP3   OH279858   3.464   0.040   5.315 -0.5261 -0.1568 -0.0388
19456TIP3    H179859   3.433   0.037   5.406 -0.6754 -0.1280 -0.0884
19456TIP3    H279860   3.550  -0.002   5.317  1.8718  4.4342  1.1164
19457TIP3   OH279861   5.912   0.947   0.830 -0.1019 -0.2795 -0.5597
19457TIP3    H179862   5.968   0.940   0.752 -1.2669  0.1675 -1.4534
19457TIP3    H279863   5.837   0.892   0.810  0.5098 -1.7614  1.0990
19458TIP3   OH279864   3.186   1.629  15.125 -0.5367 -0.0533  0.1631
19458TIP3    H179865   3.176   1.667  15.038  1.3419 -0.8802 -0.4502
19458TIP3    H279866   3.120   1.560  15.130 -2.0127  1.3476  0.1776
19459TIP3   OH279867   2.850   1.299   1.259  0.4153 -0.7199 -0.1602
19459TIP3    H179868   2.933   1.331   1.294  1.7713 -1.9835 -2.1403
19459TIP3    H279869   2.804   1.265   1.336 -0.1217  3.7234  1.6692
19460TIP3   OH279870   5.356   1.136  12.815  0.7398 -0.3371  0.1998
19460TIP3    H179871   5.282   1.110  12.759 -0.0165  1.1448  0.4922
19460TIP3    H279872   5.371   1.060  12.871  0.3203 -1.1583 -0.7685
19461TIP3   OH279873   4.134   0.392   4.811 -0.3103  0.5786 -0.4177
19461TIP3    H179874   4.098   0.472   4.774 -1.4721  0.9027  1.3422
19461TIP3    H279875   4.063   0.357   4.865  0.7498 -0.7724  0.1232
19462TIP3   OH279876   6.204   6.448   1.806 -0.0982 -0.1364 -0.1737
19462TIP3    H179877   6.276   6.404   1.851  1.2318  3.2219  1.1522
19462TIP3    H279878   6.131   6.443   1.867  0.2920  0.2028  0.3270
19463TIP3   OH279879   4.936   4.124   0.524  0.7947 -0.0384 -0.3951
19463TIP3    H179880   4.910   4.075   0.601  0.5997 -0.9111 -1.0022
19463TIP3    H279881   4.987   4.197   0.557  1.3038 -0.7968  0.5112
19464TIP3   OH279882   6.336   4.221  16.144 -0.8628  0.6027 -0.2772
19464TIP3    H179883   6.427   4.242  16.164 -0.7657 -0.1342  0.0818
19464TIP3    H279884   6.301   4.300  16.102 -1.0535  2.1655  2.6629
19465TIP3   OH279885   4.566   1.438   2.182  0.1057  0.2014  0.6221
19465TIP3    H179886   4.486   1.414   2.137  0.3703  0.4383  0.0164
19465TIP3    H279887   4.564   1.534   2.186  1.7826  0.4086 -2.1026
19466TIP3   OH279888   4.907   2.872  13.352 -0.3176 -0.1573 -0.3224
19466TIP3    H179889   4.875   2.802  13.409  0.7349 -0.5139 -0.1609
19466TIP3    H279890   4.888   2.843  13.263  0.4120 -0.8086 -0.2706
19467TIP3   OH279891   4.472   4.238  16.560  1.0987  0.0804  1.1276
19467TIP3    H179892   4.409   4.169  16.582 -1.4907  1.9268 -0.2113
19467TIP3    H279893   4.507   4.265  16.645 -1.2643  0.2200  2.0991
19468TIP3   OH279894   1.397   4.010   1.053  0.0297  0.2179  0.4054
19468TIP3    H179895   1.314   4.005   1.100  0.1947  2.5197  0.9997
19468TIP3    H279896   1.418   3.919   1.033 -1.2589 -0.6467  2.6946
19469TIP3   OH279897   0.639   6.702   0.597 -0.1673 -0.3359 -0.3953
19469TIP3    H179898   0.551   6.733   0.577  0.3642  0.1507 -2.0069
19469TIP3    H279899   0.651   6.626   0.541  0.9190  0.3791 -1.1494
19470TIP3   OH279900   1.318   0.141  15.301  0.0730  0.3665 -0.6006
19470TIP3    H179901   1.396   0.183  15.337 -0.1326  0.3600 -0.1453
19470TIP3    H279902   1.315   0.055  15.344 -0.5734  0.6404 -0.0913
19471TIP3   OH279903   3.918   2.352   3.356 -0.1378  0.2042  0.4029
19471TIP3    H179904   3.953   2.430   3.313 -0.5035 -0.6580 -1.5334
19471TIP3    H279905   3.994   2.311   3.397  0.6673 -0.1235 -1.3313
19472TIP3   OH279906   4.494   5.529   3.810  0.5829  0.3238 -0.0165
19472TIP3    H179907   4.483   5.489   3.724  0.0839 -1.6979  0.9520
19472TIP3    H279908   4.579   5.572   3.806  1.1202 -0.8190 -1.1064
19473TIP3   OH279909   6.215   3.553   1.331 -0.1982 -0.1256 -0.7529
19473TIP3    H179910   6.248   3.507   1.408  0.1853  1.2642 -0.0806
19473TIP3    H279911   6.292   3.563   1.274 -0.0557  0.6018 -0.4366
19474TIP3   OH279912   5.211   2.522  15.329  0.5900  0.3519  0.2295
19474TIP3    H179913   5.264   2.600  15.311  1.7988 -0.2215  1.2835
19474TIP3    H279914   5.181   2.533  15.419 -1.1663  0.6879 -0.3596
19475TIP3   OH279915   6.226   5.496   1.813 -0.9958  0.7853  0.5745
19475TIP3    H179916   6.203   5.540   1.731 -1.0463 -0.5858 -0.1516
19475TIP3    H279917   6.224   5.403   1.792 -1.1852  0.4133  2.1809
19476TIP3   OH279918   1.599   4.823  13.976  0.6304 -0.2715  0.0137
19476TIP3    H179919   1.557   4.744  14.008  1.3936 -1.4267 -1.7533
19476TIP3    H279920   1.610   4.809  13.882  2.8596  0.9445  0.0356
19477TIP3   OH279921   3.700   6.817   5.930  0.5505 -0.1148 -0.2302
19477TIP3    H179922   3.650   6.899   5.927 -1.0983 -1.0596  0.8938
19477TIP3    H279923   3.666   6.771   6.007  1.2719 -1.9904 -1.0084
19478TIP3   OH279924   2.909   1.519  15.683  0.1271 -0.4856 -0.3233
19478TIP3    H179925   2.824   1.536  15.642  1.2584  1.0085 -2.1647
19478TIP3    H279926   2.969   1.508  15.609  1.8199  0.0152  0.9351
19479TIP3   OH279927   0.336   0.996  10.712 -0.1188 -0.1739  0.1816
19479TIP3    H179928   0.262   1.015  10.770  0.2040 -0.9450  0.8464
19479TIP3    H279929   0.391   0.935  10.761  0.6038 -0.1590 -0.5901
19480TIP3   OH279930   0.056   1.829   4.261 -0.0113  0.5693  0.9106
19480TIP3    H179931   0.036   1.779   4.182 -2.6054 -0.3350  2.0811
19480TIP3    H279932  -0.002   1.905   4.257 -2.4868 -1.0865  3.4277
19481TIP3   OH279933   2.400   5.559  12.577 -0.5226  0.1423 -0.1631
19481TIP3    H179934   2.398   5.463  12.588  0.9803  0.0292 -0.7130
19481TIP3    H279935   2.370   5.593  12.661 -0.4101 -0.8075  0.2803
19482TIP3   OH279936   5.419   4.804   5.188 -0.6023  0.0869 -0.6094
19482TIP3    H179937   5.481   4.734   5.169 -1.7882 -0.5833 -2.1859
19482TIP3    H279938   5.336   4.773   5.151 -1.1920  2.2064 -1.1635
19483TIP3   OH279939   4.145   6.763  11.652 -0.0820 -0.1950 -0.2000
19483TIP3    H179940   4.182   6.810  11.578 -2.7573  1.2020 -0.7080
19483TIP3    H279941   4.064   6.724  11.618 -0.1675 -1.4535  1.3849
19484TIP3   OH279942   3.990   4.339   0.889  0.1098 -0.3915 -0.1510
19484TIP3    H179943   4.072   4.388   0.887 -0.3628  0.4542  0.8451
19484TIP3    H279944   3.960   4.337   0.798  0.5552  0.4357 -0.3148
19485TIP3   OH279945   5.211   1.931  15.525 -0.6022  0.0102  0.6239
19485TIP3    H179946   5.129   1.930  15.476 -1.0328  1.0750  1.2992
19485TIP3    H279947   5.183   1.939  15.617  0.2483  0.0458  0.8801
19486TIP3   OH279948   4.480   0.466  16.845  0.0114 -0.2636  0.9199
19486TIP3    H179949   4.513   0.378  16.862 -1.2357 -0.9008  0.1182
19486TIP3    H279950   4.410   0.478  16.910 -0.9351 -0.5089 -0.0437
19487TIP3   OH279951   0.271   5.015  11.709  0.2366 -0.0474  1.0129
19487TIP3    H179952   0.362   5.013  11.738  0.4002  0.6100  0.5646
19487TIP3    H279953   0.252   5.108  11.696  0.0029 -0.2942 -0.4611
19488TIP3   OH279954   0.241   1.198   2.704  0.0034  0.9041  0.2956
19488TIP3    H179955   0.256   1.248   2.785  0.0894  0.9285  0.2645
19488TIP3    H279956   0.195   1.119   2.733 -2.0791  2.0018  0.0987
19489TIP3   OH279957   3.093   4.255   1.996 -0.3887  0.3312 -0.3629
19489TIP3    H179958   3.047   4.329   1.956  0.5937  0.5913 -1.0380
19489TIP3    H279959   3.124   4.289   2.080  1.6977  1.3279 -1.4755
19490TIP3   OH279960   5.291   3.236  14.934 -0.3887 -0.1031 -0.3246
19490TIP3    H179961   5.244   3.303  14.885 -1.2603 -0.3425  0.1730
19490TIP3    H279962   5.363   3.283  14.977 -1.1521  0.5629  0.2271
19491TIP3   OH279963   0.642   4.959  16.019  0.0042  0.1572 -0.3925
19491TIP3    H179964   0.658   5.047  15.985 -0.0690 -0.6605 -2.6052
19491TIP3    H279965   0.717   4.908  15.989  0.2105 -0.4877  1.1531
19492TIP3   OH279966   5.592   3.798   5.306  0.0632 -0.0310 -0.7206
19492TIP3    H179967   5.564   3.707   5.303 -0.9998  0.2814 -0.6289
19492TIP3    H279968   5.664   3.803   5.243  0.2053 -0.9539 -0.6407
19493TIP3   OH279969   5.510   1.435  16.569  0.4258  0.2054  0.4877
19493TIP3    H179970   5.447   1.426  16.641  0.0256 -1.8371 -0.0743
19493TIP3    H279971   5.551   1.349  16.563  1.7561  0.9052 -0.5424
19494TIP3   OH279972   1.972   0.310  12.945  0.4132  0.5737 -0.3423
19494TIP3    H179973   1.970   0.334  13.037  2.0310 -0.1098 -0.1071
19494TIP3    H279974   1.887   0.337  12.911 -0.8293 -0.6150  1.7133
19495TIP3   OH279975   6.237   3.064   4.650 -0.0947 -0.6484 -0.6008
19495TIP3    H179976   6.144   3.043   4.642  0.3311 -2.3451 -1.3665
19495TIP3    H279977   6.272   2.997   4.708  0.8150 -0.5396 -1.0192
19496TIP3   OH279978   6.732   1.534  16.039 -0.9784  0.1076  0.0033
19496TIP3    H179979   6.669   1.473  16.078 -1.7853  0.6838 -0.3843
19496TIP3    H279980   6.722   1.522  15.945  0.2691 -0.5689 -0.0545
19497TIP3   OH279981   3.375   0.616  13.457  0.1870 -0.5771 -0.5257
19497TIP3    H179982   3.417   0.676  13.518  0.4615 -1.2625 -0.0275
19497TIP3    H279983   3.315   0.565  13.511  1.4063 -2.1043 -0.5651
19498TIP3   OH279984   1.985   3.615  12.250 -0.3312  0.0115 -0.3174
19498TIP3    H179985   2.038   3.694  12.236 -2.0697  1.2806  0.1465
19498TIP3    H279986   2.048   3.549  12.280  1.0772  1.3129 -0.3404
19499TIP3   OH279987   5.491   4.760   3.013  0.4904 -0.3819  0.2857
19499TIP3    H179988   5.485   4.830   2.947 -1.0969  0.8173  1.6507
19499TIP3    H279989   5.470   4.680   2.965 -2.6458  0.7145 -0.3307
19500TIP3   OH279990   1.597   4.042   1.386  0.2805  0.0332  0.0697
19500TIP3    H179991   1.574   3.952   1.361 -1.5341  0.2781  0.8105
19500TIP3    H279992   1.687   4.034   1.419  0.2154 -1.4836 -0.0581
19501TIP3   OH279993   6.541   3.064   6.829  0.0730  0.0749 -0.2672
19501TIP3    H179994   6.446   3.068   6.844  0.2049  1.3119  0.2276
19501TIP3    H279995   6.564   3.150   6.796  0.7732 -0.7410 -2.0117
19502TIP3   OH279996   0.915   4.781  10.514 -0.3765 -0.3863 -0.1266
19502TIP3    H179997   0.917   4.727  10.435  0.0584 -1.1544  0.4105
19502TIP3    H279998   0.841   4.749  10.564 -1.3740  0.8735 -0.7504
19503TIP3   OH279999   4.539   6.190  16.933  0.3456  0.2495 -0.2193
19503TIP3    H180000   4.620   6.212  16.980  0.0099  0.3505  0.3222
19503TIP3    H280001   4.544   6.096  16.919  0.5936  0.2668 -0.2579
19504TIP3   OH280002   5.770   3.685   1.274  0.1547  0.7481  0.4909
19504TIP3    H180003   5.841   3.628   1.244  0.9240  1.4182  1.0195
19504TIP3    H280004   5.776   3.681   1.370  0.4250  1.9691  0.5293
19505TIP3   OH280005   3.704   2.514   1.469  0.7373  0.2075 -0.3673
19505TIP3    H180006   3.781   2.461   1.490 -0.8578 -0.8661  3.2081
19505TIP3    H280007   3.679   2.486   1.381  3.5568 -0.4714 -1.0052
19506TIP3   OH280008   5.245   2.252  15.488  0.4575  0.1839 -0.0392
19506TIP3    H180009   5.262   2.160  15.466 -0.3572  0.2266 -0.8740
19506TIP3    H280010   5.296   2.302  15.426  0.6863  0.2991  0.2423
19507TIP3   OH280011   0.789   1.332  12.345 -0.3526  0.4751  0.3184
19507TIP3    H180012   0.779   1.242  12.377  1.1489  0.2095  0.0303
19507TIP3    H280013   0.733   1.336  12.267 -0.4650 -0.1803  0.3639
19508TIP3   OH280014   2.797   3.606   0.804  0.3279  0.4686  0.1395
19508TIP3    H180015   2.755   3.634   0.722 -0.2083 -0.5328  0.0705
19508TIP3    H280016   2.755   3.523   0.826 -0.1938  1.1781  1.9339
19509TIP3   OH280017   0.442   1.355  12.895 -0.7966 -1.0410 -0.4146
19509TIP3    H180018   0.476   1.274  12.855 -1.1209 -1.1633 -0.4465
19509TIP3    H280019   0.349   1.353  12.876 -0.5283  0.1926 -1.8834
19510TIP3   OH280020   3.103   4.595  15.276 -0.7315  0.3565  0.1316
19510TIP3    H180021   3.041   4.632  15.338  2.2912  0.4841  3.1906
19510TIP3    H280022   3.178   4.654  15.278  1.2737 -2.0910 -0.2089
19511TIP3   OH280023   3.943   0.587  14.648  0.0472  0.4890 -0.2288
19511TIP3    H180024   4.013   0.579  14.713  1.5602 -1.3919 -2.0170
19511TIP3    H280025   3.865   0.554  14.693  0.8759  0.0398  0.9193
19512TIP3   OH280026   6.526   3.270   3.413 -0.0129  0.1578  0.7615
19512TIP3    H180027   6.581   3.315   3.478 -0.4577  1.6747  0.1138
19512TIP3    H280028   6.466   3.338   3.382 -0.6217 -0.8742 -0.3412
19513TIP3   OH280029   0.366   0.272  12.609  0.1411 -0.7178  0.3269
19513TIP3    H180030   0.341   0.232  12.692  0.9184  0.7635  1.2752
19513TIP3    H280031   0.462   0.274  12.611  0.1222  1.1219  0.2681
19514TIP3   OH280032   1.997   1.542   3.588 -0.1831  0.5190  0.7090
19514TIP3    H180033   2.044   1.563   3.507  0.4504 -3.2977 -0.0225
19514TIP3    H280034   2.055   1.573   3.658  0.2219  1.9792 -0.2532
19515TIP3   OH280035   2.329   3.491  16.744  0.1335 -0.1624 -0.0029
19515TIP3    H180036   2.259   3.506  16.807 -0.7859  0.3339 -1.1223
19515TIP3    H280037   2.384   3.424  16.784 -0.6123 -0.0784  1.1828
19516TIP3   OH280038   2.449   4.742   4.139  0.4310  1.0306  0.4102
19516TIP3    H180039   2.460   4.728   4.045  2.1775  1.9449  0.4615
19516TIP3    H280040   2.438   4.837   4.148 -0.6764  0.8535  1.0527
19517TIP3   OH280041   5.369   4.037   5.327 -0.0669 -0.1455  0.1643
19517TIP3    H180042   5.394   3.969   5.389  0.2041  0.2591  0.4964
19517TIP3    H280043   5.387   3.999   5.241  1.7605  0.1649  0.3967
19518TIP3   OH280044   6.293   3.926   0.788  0.3902  0.0620  0.4550
19518TIP3    H180045   6.324   3.857   0.847  0.0012 -0.1909  0.3685
19518TIP3    H280046   6.320   4.008   0.830  1.5034 -0.1578  0.1887
19519TIP3   OH280047   3.538   0.671   0.289  0.0199 -0.1576 -0.1324
19519TIP3    H180048   3.577   0.629   0.366  0.1768  0.7256  0.2804
19519TIP3    H280049   3.612   0.697   0.234  0.0037  0.7992  0.2726
19520TIP3   OH280050   1.856   6.361  14.407 -0.0189  0.3866 -0.1762
19520TIP3    H180051   1.764   6.349  14.431 -0.1761  2.4069  0.3007
19520TIP3    H280052   1.863   6.324  14.319 -0.3797 -3.2763  1.2389
19521TIP3   OH280053   6.079   1.497  15.168 -0.4042  0.0782  0.3611
19521TIP3    H180054   6.158   1.457  15.204 -0.9784 -0.4502  1.0747
19521TIP3    H280055   6.018   1.500  15.243 -1.0453  0.4934 -0.1701
19522TIP3   OH280056   1.682   3.388   1.206 -0.0146  0.0290  0.0200
19522TIP3    H180057   1.627   3.310   1.206 -0.2565  0.1930 -1.0055
19522TIP3    H280058   1.680   3.419   1.297 -2.1271  0.3827 -0.1202
19523TIP3   OH280059   6.370   4.264  11.616 -0.2080  0.2778  0.1971
19523TIP3    H180060   6.362   4.187  11.560 -3.8547  0.8461 -0.2203
19523TIP3    H280061   6.298   4.321  11.588 -0.6741  1.6139  3.8366
19524TIP3   OH280062   0.236   2.311   3.943  0.3386 -0.7818 -0.1422
19524TIP3    H180063   0.283   2.363   3.878  1.4026 -1.1913  0.3003
19524TIP3    H280064   0.203   2.236   3.893 -1.2466  0.3056 -0.7927
19525TIP3   OH280065   0.066   5.242   4.912  0.2722  0.0149  0.3417
19525TIP3    H180066   0.138   5.285   4.957 -0.9910  0.5239  1.9524
19525TIP3    H280067  -0.007   5.304   4.918 -0.7360 -1.1191  0.0970
19526TIP3   OH280068   4.056   1.413   3.213  0.1450  0.5582 -0.3551
19526TIP3    H180069   3.981   1.381   3.164  0.0034  0.8804 -0.3506
19526TIP3    H280070   4.123   1.430   3.146  0.3655 -0.1437 -0.3148
19527TIP3   OH280071   3.320   2.773   5.443  0.2554  0.1067 -0.2886
19527TIP3    H180072   3.321   2.758   5.348  0.9243  0.7405 -0.3849
19527TIP3    H280073   3.352   2.863   5.453 -1.1285  0.5319  0.4490
19528TIP3   OH280074   0.542   0.455   4.866 -0.2433 -0.0577  0.1340
19528TIP3    H180075   0.596   0.458   4.945  0.3269  1.1248 -0.2786
19528TIP3    H280076   0.520   0.363   4.855  3.8858 -1.0106 -1.1359
19529TIP3   OH280077   4.582   4.181  15.191 -0.7621 -0.1396  0.7643
19529TIP3    H180078   4.532   4.109  15.155 -1.7067  1.2825 -0.8513
19529TIP3    H280079   4.627   4.220  15.115  0.3997  0.4514  1.7273
19530TIP3   OH280080   2.663   5.672   3.346 -0.2232 -0.3878 -0.1725
19530TIP3    H180081   2.691   5.581   3.334  0.7011 -0.1712  0.2657
19530TIP3    H280082   2.622   5.672   3.433  0.0308 -0.3356 -0.0500
19531TIP3   OH280083   3.064   4.494  15.708  0.1137  0.3135 -0.2971
19531TIP3    H180084   3.027   4.418  15.754  0.4605  0.1350 -0.3187
19531TIP3    H280085   3.096   4.551  15.778 -0.8804  0.8225 -0.2389
19532TIP3   OH280086   1.380   1.028   3.002  0.0195 -0.9108 -0.3682
19532TIP3    H180087   1.317   1.100   3.004 -0.0352 -0.9650 -0.1010
19532TIP3    H280088   1.463   1.069   2.980  0.1514 -0.6394  0.6176
19533TIP3   OH280089   4.804   3.997   1.835 -0.0435  0.7075  0.9749
19533TIP3    H180090   4.855   4.058   1.782 -0.4555  0.0493 -0.1905
19533TIP3    H280091   4.733   4.050   1.871 -0.9207  0.7337 -0.7663
19534TIP3   OH280092   4.776   0.647  12.218  0.4955 -0.0834  0.0650
19534TIP3    H180093   4.731   0.731  12.223  0.8648  0.0756  0.8918
19534TIP3    H280094   4.819   0.647  12.133 -0.7508 -0.0767 -0.5687
19535TIP3   OH280095   6.123   1.667   0.587  0.1460 -0.1030 -0.2559
19535TIP3    H180096   6.127   1.585   0.637  0.8578 -0.5007 -0.9622
19535TIP3    H280097   6.032   1.697   0.597 -0.7821 -2.2064 -1.9386
19536TIP3   OH280098   2.731   4.377  13.405  0.5521  0.1454  0.3310
19536TIP3    H180099   2.642   4.413  13.399  0.8525  0.6742 -1.0945
19536TIP3    H280100   2.775   4.433  13.469 -0.0608  0.0207  0.8739
19537TIP3   OH280101   0.828   4.485  12.890 -0.4026 -0.0180 -0.1182
19537TIP3    H180102   0.831   4.450  12.800 -3.3604 -2.0048  0.4575
19537TIP3    H280103   0.918   4.480  12.921  0.4258 -0.6023 -2.5150
19538TIP3   OH280104   0.345   6.798   3.050  0.4602  0.0370 -0.8083
19538TIP3    H180105   0.387   6.883   3.043 -1.0487  0.7381 -1.4757
19538TIP3    H280106   0.394   6.742   2.990  0.3326  0.8735 -1.6887
19539TIP3   OH280107   0.063   2.288  15.065  0.0470 -0.1364  0.2470
19539TIP3    H180108  -0.011   2.251  15.018 -1.1860  0.0654  1.9794
19539TIP3    H280109   0.078   2.228  15.138  0.7240  0.5346  0.6692
19540TIP3   OH280110   2.580   2.471  10.447  0.4405 -0.3407  0.1683
19540TIP3    H180111   2.572   2.559  10.484  1.4262  0.1733 -0.8247
19540TIP3    H280112   2.539   2.414  10.512 -1.5935  1.0145  0.1208
19541TIP3   OH280113   6.526   0.284   1.984 -0.4345  0.2950 -0.6446
19541TIP3    H180114   6.490   0.250   1.902  0.1883  0.6742 -1.0757
19541TIP3    H280115   6.450   0.290   2.042 -0.3947 -2.9612 -0.1441
19542TIP3   OH280116   5.067   4.433   0.932 -0.3971 -0.7879 -0.3708
19542TIP3    H180117   4.980   4.463   0.955 -0.1315 -1.0806  1.0835
19542TIP3    H280118   5.084   4.471   0.846 -2.5919 -2.0568 -1.3961
19543TIP3   OH280119   3.690   1.591  15.195 -0.3252  0.2960 -0.2315
19543TIP3    H180120   3.604   1.632  15.190 -0.8350 -0.6161  0.8678
19543TIP3    H280121   3.714   1.596  15.287 -0.4181 -1.8961 -0.0672
19544TIP3   OH280122   6.666   4.500   2.198  0.1386  0.2770  0.6277
19544TIP3    H180123   6.612   4.482   2.276  0.0386  0.8379  0.6896
19544TIP3    H280124   6.717   4.577   2.222  1.5329 -0.7031  0.8505
19545TIP3   OH280125   1.130   1.392   1.940  0.3500  0.2444 -0.0181
19545TIP3    H180126   1.183   1.407   2.018  0.5068  0.2416 -0.1233
19545TIP3    H280127   1.064   1.462   1.942 -0.4325 -0.5050  0.7866
19546TIP3   OH280128   3.347   2.067  17.107  0.0924 -0.1604  0.0216
19546TIP3    H180129   3.339   1.979  17.144 -2.3125  0.0597  0.1544
19546TIP3    H280130   3.362   2.124  17.182  0.1430 -0.2840  0.1054
19547TIP3   OH280131   3.628   6.747  14.838 -0.5885  0.3259  0.1636
19547TIP3    H180132   3.657   6.758  14.747  1.1993 -0.5773  0.6067
19547TIP3    H280133   3.552   6.689  14.831  0.6601 -1.2803 -0.6426
19548TIP3   OH280134   1.288   1.405  11.090 -0.1268 -0.3521  0.0992
19548TIP3    H180135   1.215   1.453  11.131  0.5795 -0.4457  1.5045
19548TIP3    H280136   1.250   1.366  11.012 -1.1688  1.0297 -0.1101
19549TIP3   OH280137   0.984   1.079  14.224 -0.0866  0.7793  0.4506
19549TIP3    H180138   0.905   1.025  14.225  1.1347 -1.0406  0.8580
19549TIP3    H280139   0.989   1.116  14.312 -0.2268  0.5370  0.5609
19550TIP3   OH280140   3.521   1.009  14.721 -0.3723  0.4408  0.2518
19550TIP3    H180141   3.579   1.050  14.786 -0.0840  1.1597 -0.4555
19550TIP3    H280142   3.452   1.073  14.707  0.2539  0.8222 -1.1008
19551TIP3   OH280143   6.641   3.850  14.412  0.8915  0.1146 -0.7683
19551TIP3    H180144   6.578   3.920  14.394 -0.3938 -1.5043 -2.7960
19551TIP3    H280145   6.641   3.843  14.508 -0.6854  1.3276 -0.6530
19552TIP3   OH280146   1.647   1.909  14.860  0.0678 -0.2626  0.1716
19552TIP3    H180147   1.691   1.835  14.818  0.8702  0.7697 -0.8240
19552TIP3    H280148   1.637   1.974  14.791 -3.8472 -0.7832  0.1096
19553TIP3   OH280149   5.086   5.812  16.383  0.9602 -0.8458 -0.2550
19553TIP3    H180150   5.001   5.768  16.388  1.5447 -1.8849  0.7753
19553TIP3    H280151   5.133   5.781  16.460  1.7925  0.7582 -0.0999
19554TIP3   OH280152   2.375   4.420   3.124  0.3786  0.0611  0.0972
19554TIP3    H180153   2.345   4.391   3.037  2.3525  1.0139 -0.9396
19554TIP3    H280154   2.464   4.452   3.109  0.5878  0.6469  2.4157
19555TIP3   OH280155   2.981   4.747   2.417  0.6787  0.0575  0.0435
19555TIP3    H180156   3.035   4.689   2.363 -0.9855 -0.8377 -0.6976
19555TIP3    H280157   2.960   4.821   2.360 -1.4551 -1.1040 -0.7345
19556TIP3   OH280158   3.322   2.498  11.133  0.0977 -0.2958 -0.5164
19556TIP3    H180159   3.403   2.470  11.090  1.8289  0.5176  2.1159
19556TIP3    H280160   3.323   2.454  11.218 -1.8419  0.3786 -0.1124
19557TIP3   OH280161   6.644   4.180   4.981  0.2841  0.3186  0.5384
19557TIP3    H180162   6.719   4.141   5.026  0.2551  0.6717  0.8985
19557TIP3    H280163   6.675   4.196   4.892 -0.7341 -3.5789 -0.5697
19558TIP3   OH280164   5.733   1.120  14.588 -0.0601  0.5760  0.6822
19558TIP3    H180165   5.686   1.200  14.561  0.0540 -0.4957 -3.0710
19558TIP3    H280166   5.666   1.051  14.586  0.0221  0.3864  3.1177
19559TIP3   OH280167   1.734   0.013  11.084 -0.1047 -0.4342  0.8315
19559TIP3    H180168   1.655  -0.009  11.134 -1.3253  0.4688 -0.6134
19559TIP3    H280169   1.738   0.109  11.088 -1.1447 -0.2080 -2.0361
19560TIP3   OH280170   2.881   6.425   1.975 -0.0765 -0.0371  0.3487
19560TIP3    H180171   2.785   6.431   1.976 -0.1925 -1.6501  0.1899
19560TIP3    H280172   2.906   6.447   1.886 -0.3152  0.1275  0.3215
19561TIP3   OH280173   0.675   6.811   5.886  0.6411 -0.0365  0.4849
19561TIP3    H180174   0.709   6.810   5.976  1.0964  0.1113  0.3154
19561TIP3    H280175   0.748   6.782   5.832  1.0682  1.9960 -0.0744
19562TIP3   OH280176   4.031   5.249   0.205  0.1625  0.0228  0.3836
19562TIP3    H180177   4.082   5.173   0.176  0.7691 -0.0391  1.5931
19562TIP3    H280178   4.046   5.315   0.137  0.7344 -0.4719  0.0200
19563TIP3   OH280179   3.882   3.230  11.520  0.0857 -0.0162 -0.1108
19563TIP3    H180180   3.850   3.149  11.480  0.6015 -0.2437 -0.0634
19563TIP3    H280181   3.957   3.203  11.573 -2.0807 -0.0711  2.9895
19564TIP3   OH280182   1.754   3.670   0.243  0.4669  0.7715 -0.2146
19564TIP3    H180183   1.755   3.600   0.178 -0.0766 -0.8902  1.5136
19564TIP3    H280184   1.678   3.723   0.219  0.5830  0.4938 -1.2400
19565TIP3   OH280185   5.057   6.220   6.132 -0.3958  0.3648 -0.2685
19565TIP3    H180186   4.992   6.279   6.171 -1.6022  0.4617 -2.3867
19565TIP3    H280187   5.018   6.133   6.142  1.0612 -0.0735  2.2020
19566TIP3   OH280188   5.744   6.251   5.323 -0.0326 -0.0779  0.1249
19566TIP3    H180189   5.814   6.291   5.375  0.4491 -0.9373  0.1455
19566TIP3    H280190   5.663   6.290   5.358  0.3228 -0.2518  1.1593
19567TIP3   OH280191   4.822   2.986  16.817  0.2335  0.0308  0.5420
19567TIP3    H180192   4.765   2.947  16.750 -0.9941 -0.8785  2.0917
19567TIP3    H280193   4.901   2.932  16.815  0.0373 -0.2514  0.1270
19568TIP3   OH280194   6.783   5.782   5.272  0.6305 -0.1538 -0.0232
19568TIP3    H180195   6.727   5.705   5.260 -0.1365  0.4224 -0.2207
19568TIP3    H280196   6.789   5.793   5.367 -0.3693  0.3276 -0.0064
19569TIP3   OH280197   4.289   2.022  11.117  0.4250 -0.2162  0.4206
19569TIP3    H180198   4.263   1.931  11.106  1.4709 -0.7135  1.8727
19569TIP3    H280199   4.373   2.029  11.071 -0.2676  0.3561 -0.7877
19570TIP3   OH280200   3.241   5.359   2.953 -0.0267 -0.4412 -0.1663
19570TIP3    H180201   3.227   5.399   2.867 -0.6542  1.2187  0.6831
19570TIP3    H280202   3.174   5.291   2.958 -0.4289 -0.0994 -0.7363
19571TIP3   OH280203   5.239   0.206  15.015  0.1481 -0.1013  0.0362
19571TIP3    H180204   5.334   0.194  15.012  0.0099 -1.6172  1.0350
19571TIP3    H280205   5.212   0.213  14.923  1.1461 -0.3564 -0.2806
19572TIP3   OH280206   1.303   5.481   5.820 -0.2207 -0.5273  0.1169
19572TIP3    H180207   1.223   5.428   5.818  0.6599 -1.8400 -1.4939
19572TIP3    H280208   1.330   5.488   5.728  1.4139  0.0601  0.6151
19573TIP3   OH280209   1.992   4.458  13.713 -0.7661  0.8515 -0.0804
19573TIP3    H180210   1.975   4.548  13.738  0.5552  0.9802  0.3990
19573TIP3    H280211   1.910   4.428  13.673 -0.9159  2.5448 -1.0903
19574TIP3   OH280212   6.545   4.642  12.237 -0.2718 -0.1290 -0.5116
19574TIP3    H180213   6.618   4.579  12.235  0.9278  1.1551  1.5773
19574TIP3    H280214   6.472   4.593  12.275  0.4678 -0.4658  0.4892
19575TIP3   OH280215   1.793   2.794   5.097 -0.4198  0.7891  0.0073
19575TIP3    H180216   1.738   2.870   5.116 -0.3464  0.4806  1.5349
19575TIP3    H280217   1.782   2.737   5.172  1.3848  0.3715 -0.0117
19576TIP3   OH280218   2.220   2.386  16.006 -0.0244 -0.2866 -0.3739
19576TIP3    H180219   2.302   2.427  15.977  1.3616 -1.9728  0.9916
19576TIP3    H280220   2.233   2.293  15.988 -1.0671 -0.7460  1.1403
19577TIP3   OH280221   4.516   6.283  13.977 -0.0791  0.4930 -0.4501
19577TIP3    H180222   4.457   6.213  13.951 -0.2782  0.4812  0.0330
19577TIP3    H280223   4.556   6.313  13.895 -1.3264  1.0201 -0.8708
19578TIP3   OH280224   3.987   4.212  11.896  0.0670 -0.3063  0.7971
19578TIP3    H180225   3.900   4.172  11.892  0.7110 -1.6973  0.1569
19578TIP3    H280226   3.983   4.285  11.834 -0.6603 -0.3100  0.8365
19579TIP3   OH280227   5.825   3.039  14.531 -0.0434  0.1354  0.4820
19579TIP3    H180228   5.919   3.050  14.548  0.0911 -0.6012  0.2501
19579TIP3    H280229   5.791   3.128  14.524  0.7547  0.4036 -0.0656
19580TIP3   OH280230   0.240   5.362   6.346 -0.2061  0.2648  0.1010
19580TIP3    H180231   0.293   5.440   6.357 -0.4425  0.4119  0.2084
19580TIP3    H280232   0.295   5.291   6.379 -0.0715  0.4130  0.1969
19581TIP3   OH280233   1.451   2.038   6.053  0.8241  0.0513  0.0722
19581TIP3    H180234   1.499   2.039   6.136  2.1549  0.8101 -0.6808
19581TIP3    H280235   1.438   2.131   6.033 -0.2067 -0.1472 -0.1628
19582TIP3   OH280236   0.254   6.617   1.824  0.3557  0.3313 -0.0714
19582TIP3    H180237   0.212   6.534   1.800 -0.4618  0.3752  1.1667
19582TIP3    H280238   0.185   6.682   1.814  0.7968  0.7630 -0.3158
19583TIP3   OH280239   6.706   2.316   1.992  0.1226 -0.0095 -0.0416
19583TIP3    H180240   6.738   2.398   1.954  0.1036 -0.2212 -0.5211
19583TIP3    H280241   6.781   2.282   2.042 -0.7094  1.6351  2.3814
19584TIP3   OH280242   3.833   5.720   1.521 -0.0812 -0.0309  0.2250
19584TIP3    H180243   3.791   5.651   1.470 -0.9770 -0.3434  1.3567
19584TIP3    H280244   3.836   5.795   1.463  0.0150 -0.7287 -0.6908
19585TIP3   OH280245   6.099   1.353  13.548 -0.3533  0.2072  0.1019
19585TIP3    H180246   6.141   1.428  13.506 -1.4125  0.1775 -1.0527
19585TIP3    H280247   6.072   1.385  13.634  1.0745  0.5306  0.4274
19586TIP3   OH280248   3.334   6.692   3.514 -0.0344 -0.0583  0.3393
19586TIP3    H180249   3.288   6.748   3.577 -0.5531  0.0570 -0.1399
19586TIP3    H280250   3.356   6.614   3.564 -0.1418  0.1759  0.7598
19587TIP3   OH280251   4.571   2.940   2.218  0.0832 -0.0387  0.0927
19587TIP3    H180252   4.626   2.910   2.289  1.8133  0.2125 -1.1222
19587TIP3    H280253   4.573   2.868   2.154 -2.1854 -0.6542  0.6459
19588TIP3   OH280254   5.638   2.549   3.461  0.1830 -0.2906  0.6525
19588TIP3    H180255   5.675   2.630   3.495 -0.6874 -0.4649  2.0420
19588TIP3    H280256   5.617   2.568   3.369  1.3039  0.5960  0.5717
19589TIP3   OH280257   5.697   1.569  13.231  0.1565 -0.1063 -0.6426
19589TIP3    H180258   5.621   1.583  13.175  0.2906  1.4976 -0.4343
19589TIP3    H280259   5.678   1.620  13.310  0.9404 -0.6168 -0.1234
19590TIP3   OH280260   0.285   1.525   4.445  0.2195  0.9931 -0.1189
19590TIP3    H180261   0.351   1.479   4.394  0.1023  0.8274 -0.1208
19590TIP3    H280262   0.333   1.561   4.520  0.3709  1.1426 -0.2878
19591TIP3   OH280263   2.791   1.470  14.659  0.3969 -0.4158 -0.3428
19591TIP3    H180264   2.717   1.413  14.679  0.3418 -0.1673  0.1625
19591TIP3    H280265   2.795   1.531  14.733 -0.9282  1.6537 -1.9235
19592TIP3   OH280266   2.669   6.187  11.888  0.1717 -0.1856 -0.0122
19592TIP3    H180267   2.620   6.225  11.961 -1.7248 -1.5971 -0.4875
19592TIP3    H280268   2.655   6.093  11.898  0.8248 -0.4458 -1.5613
19593TIP3   OH280269   4.003   5.339   2.347 -0.2260  0.0880  0.2829
19593TIP3    H180270   4.016   5.431   2.325 -0.8365  0.4119  1.2713
19593TIP3    H280271   4.092   5.302   2.349  0.0321  0.6974  0.0590
19594TIP3   OH280272   0.647   4.560   6.490 -0.0036 -0.0757  0.3447
19594TIP3    H180273   0.666   4.547   6.583  1.2341 -2.7622 -0.2310
19594TIP3    H280274   0.704   4.497   6.445 -1.0728  0.7194 -2.1896
19595TIP3   OH280275   1.919   4.953  13.182  0.6486 -0.3541 -0.0397
19595TIP3    H180276   1.944   4.908  13.101 -1.3104 -2.3051  0.3946
19595TIP3    H280277   1.929   4.887  13.250 -0.8060  0.3312  0.8476
19596TIP3   OH280278   1.902   2.108  14.559  0.1664  0.3822  0.4036
19596TIP3    H180279   1.971   2.153  14.607  0.5086  0.5161 -0.2055
19596TIP3    H280280   1.882   2.165  14.485  1.9046 -1.2793 -1.4199
19597TIP3   OH280281   3.927   1.419  11.477  0.5255 -0.5219  0.3694
19597TIP3    H180282   3.899   1.335  11.440  1.2251  0.2061 -1.9213
19597TIP3    H280283   3.886   1.484  11.420 -0.7332  0.7524  2.6374
19598TIP3   OH280284   3.969   3.287  10.594  0.3464  0.3761 -0.3027
19598TIP3    H180285   3.882   3.248  10.590 -0.3548  2.0404 -2.5828
19598TIP3    H280286   3.953   3.378  10.622  1.4410  0.4756  0.0335
19599TIP3   OH280287   1.036   5.151   4.048  0.2557  0.4099  0.3410
19599TIP3    H180288   1.089   5.155   3.968  0.8565  1.0081  0.7653
19599TIP3    H280289   1.025   5.057   4.064  0.2969  0.2865 -0.3385
19600TIP3   OH280290   0.806   0.131   2.202 -0.2807 -0.0816  0.2695
19600TIP3    H180291   0.791   0.103   2.111  0.9838  1.3727 -0.3976
19600TIP3    H280292   0.719   0.125   2.243 -1.1426  0.5690 -1.3942
19601TIP3   OH280293   5.689   3.169   1.164 -0.2786 -0.5941 -0.3883
19601TIP3    H180294   5.741   3.132   1.093  0.0510  1.1164 -1.0725
19601TIP3    H280295   5.718   3.122   1.243  0.3649 -1.5095 -1.1703
19602TIP3   OH280296   1.219   5.401  16.839 -0.2147 -0.0066 -0.6970
19602TIP3    H180297   1.314   5.386  16.846 -0.6513 -2.3702  0.6803
19602TIP3    H280298   1.193   5.352  16.761 -0.5180 -0.4591 -0.3101
19603TIP3   OH280299   2.867   2.746  15.144 -0.0200 -0.5279 -0.6012
19603TIP3    H180300   2.817   2.688  15.201 -0.0079 -0.2029 -0.2559
19603TIP3    H280301   2.861   2.706  15.058 -1.5510 -0.0517 -0.7260
19604TIP3   OH280302   4.305   3.406   5.756  0.3099  0.0760  0.5031
19604TIP3    H180303   4.320   3.332   5.815 -0.0983 -1.4369 -1.2558
19604TIP3    H280304   4.219   3.440   5.781 -1.0041 -2.1419 -0.8439
19605TIP3   OH280305   3.658   3.814   4.800 -0.6414 -0.4448 -0.4926
19605TIP3    H180306   3.580   3.760   4.815 -0.0582 -1.0401  0.4206
19605TIP3    H280307   3.729   3.751   4.786 -0.2813  0.0963 -1.1424
19606TIP3   OH280308   2.769   4.673   0.050  0.3607  0.2075 -0.2706
19606TIP3    H180309   2.707   4.662  -0.022 -0.5686 -0.2163  0.5915
19606TIP3    H280310   2.791   4.584   0.076  2.3733  0.3275 -1.4470
19607TIP3   OH280311   1.124   5.359   1.135  0.3949  0.0287 -0.4627
19607TIP3    H180312   1.084   5.433   1.090 -0.4247 -0.9743 -1.3863
19607TIP3    H280313   1.098   5.369   1.227  0.7363  1.1748 -0.4895
19608TIP3   OH280314   1.835   4.234  11.939  0.1044  0.1151 -0.0931
19608TIP3    H180315   1.886   4.235  12.020  1.0490  1.8392 -0.7058
19608TIP3    H280316   1.895   4.197  11.873  0.4821  1.8223 -0.7342
19609TIP3   OH280317   6.042   2.378  14.647  0.1255  0.4646 -0.4652
19609TIP3    H180318   6.056   2.300  14.701  0.8930  0.8322 -0.1165
19609TIP3    H280319   5.959   2.414  14.680 -0.2105 -0.1708 -0.5978
19610TIP3   OH280320   3.127   3.836   5.983  0.3339 -0.1240 -0.3538
19610TIP3    H180321   3.217   3.860   6.004  0.9841 -1.8066 -1.1105
19610TIP3    H280322   3.112   3.875   5.897  0.6133 -0.5029 -0.5774
19611TIP3   OH280323   5.995   0.456  13.753 -0.3118  0.3112  0.4570
19611TIP3    H180324   5.912   0.437  13.797 -0.8633  0.2798 -0.5754
19611TIP3    H280325   5.978   0.536  13.704  0.3846  0.5064  0.5255
19612TIP3   OH280326   2.467   5.525   2.327 -0.1063 -0.0851  0.1525
19612TIP3    H180327   2.488   5.576   2.405 -1.1674  0.2881  0.2077
19612TIP3    H280328   2.533   5.551   2.263  0.9246 -0.5853  1.0032
19613TIP3   OH280329   4.498   2.236  14.855 -0.2390 -0.4943  0.5348
19613TIP3    H180330   4.478   2.162  14.912 -0.8544 -1.2005 -0.5766
19613TIP3    H280331   4.418   2.251  14.805  0.3393 -0.0073 -0.2662
19614TIP3   OH280332   5.365   2.972   1.375 -0.2198 -0.2683 -0.0636
19614TIP3    H180333   5.373   2.920   1.455  1.6635  0.9301  0.5647
19614TIP3    H280334   5.434   2.940   1.318 -0.4983  0.0039 -0.5589
19615TIP3   OH280335   1.117   2.191   5.010  0.2978  0.0602  0.4524
19615TIP3    H180336   1.206   2.194   5.045  0.0843  1.4045  0.9182
19615TIP3    H280337   1.107   2.102   4.976  2.4453  0.4366 -1.2801
19616TIP3   OH280338   4.338   0.417  13.833  0.0752  0.5053  0.1402
19616TIP3    H180339   4.326   0.500  13.878  1.0098 -0.7718  2.8616
19616TIP3    H280340   4.251   0.394  13.802 -0.6648  1.3291  1.5325
19617TIP3   OH280341   0.084   5.084  16.658 -0.2130  0.2109 -0.1929
19617TIP3    H180342   0.158   5.023  16.659 -0.5047 -0.1931 -1.9224
19617TIP3    H280343   0.008   5.030  16.679 -0.1267  0.5016  0.9191
19618TIP3   OH280344   2.722   4.835   5.406  0.4202  0.4982  0.2334
19618TIP3    H180345   2.786   4.770   5.433  2.1717  0.8459 -2.7903
19618TIP3    H280346   2.772   4.900   5.357 -1.9274  1.8770 -0.4576
19619TIP3   OH280347   5.141   2.826  11.406 -0.1792 -0.0756  0.1251
19619TIP3    H180348   5.079   2.893  11.378  0.2290  0.0203 -0.5438
19619TIP3    H280349   5.227   2.858  11.377  0.0955 -0.5608  0.3980
19620TIP3   OH280350   1.802   5.976  12.675 -0.1589 -0.2355 -0.2728
19620TIP3    H180351   1.798   5.969  12.770  2.1206 -1.0876 -0.2138
19620TIP3    H280352   1.877   6.033  12.659 -0.2724 -0.4462 -1.5793
19621TIP3   OH280353   6.524   2.164   4.914  0.2752 -0.2590 -0.0331
19621TIP3    H180354   6.591   2.173   4.981  0.4187 -1.6945  0.0255
19621TIP3    H280355   6.491   2.075   4.924 -0.7320  0.0007 -0.9081
19622TIP3   OH280356   0.740   0.428  15.591  0.0084  0.3525  0.2358
19622TIP3    H180357   0.811   0.365  15.590 -0.6326 -0.3750  0.0616
19622TIP3    H280358   0.771   0.498  15.648  2.0984  1.5135 -2.1946
19623TIP3   OH280359   5.250   2.708  12.509 -0.0815 -0.3295 -0.1904
19623TIP3    H180360   5.305   2.655  12.450 -2.1905 -1.3392 -1.3115
19623TIP3    H280361   5.237   2.790  12.462  1.1291  0.2634  0.4621
19624TIP3   OH280362   4.991   3.681  15.571  0.1088  0.4590  0.6740
19624TIP3    H180363   5.057   3.734  15.527 -0.4149 -1.0498 -2.0474
19624TIP3    H280364   5.030   3.593  15.576  0.2802  0.6503  3.5698
19625TIP3   OH280365   6.808   4.758   2.890  1.0385 -0.1607  0.3484
19625TIP3    H180366   6.794   4.823   2.821 -0.0124 -0.4889  0.2455
19625TIP3    H280367   6.874   4.698   2.854  1.4257  0.3932  0.1330
19626TIP3   OH280368   1.568   1.238  16.083 -0.2664  0.2544  0.0811
19626TIP3    H180369   1.621   1.173  16.128  0.2229  0.5223 -0.1020
19626TIP3    H280370   1.555   1.308  16.147 -1.4281 -0.3437  0.5338
19627TIP3   OH280371   2.560   5.350  13.752  0.0394  0.0533 -0.2229
19627TIP3    H180372   2.637   5.403  13.770 -1.2121  1.9281 -0.2579
19627TIP3    H280373   2.495   5.379  13.816 -0.7460 -1.2572 -0.4091
19628TIP3   OH280374   2.333   3.640   4.817 -0.0208 -0.4272  0.6883
19628TIP3    H180375   2.306   3.732   4.808 -0.8550 -0.7981 -0.7287
19628TIP3    H280376   2.271   3.604   4.881  0.0127 -0.1162  0.8972
19629TIP3   OH280377   0.467   6.561   5.465 -0.2215  0.4208  0.0073
19629TIP3    H180378   0.495   6.486   5.517 -0.2448  0.3392 -0.0971
19629TIP3    H280379   0.418   6.616   5.527  1.3267  1.2429  0.5315
19630TIP3   OH280380   1.636   6.576   0.681  0.3738 -0.5999  0.0997
19630TIP3    H180381   1.699   6.506   0.661  1.2463 -0.4046  2.0383
19630TIP3    H280382   1.661   6.605   0.769 -0.0696  2.0651 -0.6388
19631TIP3   OH280383   4.566   6.416  12.982  0.3659  0.3138  0.5986
19631TIP3    H180384   4.486   6.386  12.939  0.1959  0.1199  1.0502
19631TIP3    H280385   4.636   6.368  12.937  0.2543  0.6750  0.0333
19632TIP3   OH280386   3.252   3.205  14.526  0.1508  0.0103  0.7708
19632TIP3    H180387   3.321   3.226  14.588  1.3825 -0.6736 -0.3413
19632TIP3    H280388   3.232   3.288  14.483  1.0786 -0.0049  0.3001
19633TIP3   OH280389   2.080   2.072  16.781  0.2203 -0.1803 -0.2560
19633TIP3    H180390   2.028   2.153  16.779  0.9416  0.3714  1.9604
19633TIP3    H280391   2.051   2.023  16.704 -2.0304  1.0719 -0.2550
19634TIP3   OH280392   3.313   4.697   4.861  0.0136  0.0798 -0.7739
19634TIP3    H180393   3.289   4.696   4.768  0.5799 -0.8896 -0.9213
19634TIP3    H280394   3.256   4.631   4.901  0.4436 -0.1968 -0.6127
19635TIP3   OH280395   6.033   3.344  13.673 -0.3001  0.0139 -0.4918
19635TIP3    H180396   6.092   3.383  13.608 -1.8670 -0.9774 -2.5721
19635TIP3    H280397   6.021   3.253  13.645 -3.8353  0.5177 -0.9357
19636TIP3   OH280398   4.546   0.435  12.254  0.3446  0.4487 -0.2586
19636TIP3    H180399   4.523   0.446  12.347  0.6687  2.5724 -0.3882
19636TIP3    H280400   4.618   0.498  12.240 -0.1996  0.6835 -2.1168
19637TIP3   OH280401   1.623   0.615   5.611 -0.6134 -0.2660 -0.9063
19637TIP3    H180402   1.602   0.705   5.584  0.1551  0.5724  1.2391
19637TIP3    H280403   1.713   0.619   5.640 -0.3661 -1.8977 -1.3897
19638TIP3   OH280404   0.029   1.140  12.066 -0.1364  0.0544  0.4854
19638TIP3    H180405   0.031   1.227  12.105 -0.7534  0.8688 -1.2418
19638TIP3    H280406  -0.030   1.148  11.991  1.5915 -1.2270 -1.0779
19639TIP3   OH280407   1.157   1.380   5.909  0.6539  0.1295  0.1406
19639TIP3    H180408   1.102   1.405   5.835 -0.1139  0.5899  0.8603
19639TIP3    H280409   1.247   1.396   5.879  0.3644  0.0443 -0.7855
19640TIP3   OH280410   6.302   6.609   4.888  0.0935 -0.4359 -0.0067
19640TIP3    H180411   6.308   6.542   4.955  0.5337 -1.3641 -0.9593
19640TIP3    H280412   6.320   6.563   4.806 -1.8825  0.3719 -0.9405
19641TIP3   OH280413   3.009   5.262   1.546 -0.1743  0.1410 -0.7145
19641TIP3    H180414   2.966   5.287   1.628  0.4046 -1.3003  0.0587
19641TIP3    H280415   2.940   5.220   1.494 -0.3289  0.2185 -0.5712
19642TIP3   OH280416   0.695   4.088  12.245  0.9072 -0.3161 -0.5354
19642TIP3    H180417   0.616   4.115  12.292  1.1066 -0.7545  0.0551
19642TIP3    H280418   0.664   4.063  12.158  0.3388 -0.8625 -0.1803
19643TIP3   OH280419   6.518   5.438  12.617 -0.3512  0.1428 -0.0072
19643TIP3    H180420   6.594   5.389  12.586 -0.8926 -2.8232  3.0050
19643TIP3    H280421   6.447   5.412  12.558 -0.0381 -0.7851  0.0113
19644TIP3   OH280422   1.731   5.305  16.600 -0.7222 -0.0015  0.3351
19644TIP3    H180423   1.715   5.214  16.574  0.1469 -0.4253  1.2470
19644TIP3    H280424   1.763   5.299  16.690  1.8790  0.9958 -0.4929
19645TIP3   OH280425   2.667   2.814   3.658  0.1656  0.2628  0.0404
19645TIP3    H180426   2.711   2.778   3.735 -1.6091 -2.5406 -0.1582
19645TIP3    H280427   2.602   2.874   3.693  1.1529  1.0339  0.5636
19646TIP3   OH280428   0.050   0.841  13.785  0.3732 -0.6790  0.4950
19646TIP3    H180429  -0.040   0.854  13.817  0.2349 -2.1832  0.7852
19646TIP3    H280430   0.063   0.909  13.719 -1.6068 -1.5401 -0.8248
19647TIP3   OH280431   0.236   4.253   4.792  0.0314 -0.4061  0.0790
19647TIP3    H180432   0.285   4.248   4.873  3.7637 -1.9427 -2.1487
19647TIP3    H280433   0.234   4.346   4.770  2.3820 -0.3529  0.0074
19648TIP3   OH280434   3.111   1.254   3.333 -0.4102  0.1262  0.1332
19648TIP3    H180435   3.068   1.179   3.292 -1.9172  1.3945 -0.6707
19648TIP3    H280436   3.084   1.329   3.280  3.0853  0.9443 -0.5686
19649TIP3   OH280437   0.623   2.148   5.155  0.0535 -0.1468 -0.0109
19649TIP3    H180438   0.572   2.150   5.236 -1.7061  0.0662 -1.0939
19649TIP3    H280439   0.699   2.095   5.176 -0.5170 -0.3124  1.7170
19650TIP3   OH280440   2.167   2.047  12.703  0.5028  0.8749  0.0114
19650TIP3    H180441   2.166   2.113  12.773  1.9797 -0.5124  1.3791
19650TIP3    H280442   2.111   1.976  12.735  0.8520  0.4141 -0.3932
19651TIP3   OH280443   1.837   1.918   3.743 -0.2648 -0.2638  0.0861
19651TIP3    H180444   1.898   1.891   3.812  0.5639  0.9034 -0.1743
19651TIP3    H280445   1.751   1.902   3.781  0.1853 -0.9727  0.8498
19652TIP3   OH280446   1.462   3.904  13.630 -0.0675 -0.1896  0.3212
19652TIP3    H180447   1.478   3.826  13.577  0.7204 -0.2315  0.6196
19652TIP3    H280448   1.368   3.920  13.620 -0.0956 -0.7320 -0.3480
19653TIP3   OH280449   2.009   5.690  15.895  0.7934  0.2365 -0.0025
19653TIP3    H180450   2.049   5.687  15.808  0.1862  0.5833 -0.2927
19653TIP3    H280451   2.008   5.598  15.923  1.3602  0.1709 -0.1911
19654TIP3   OH280452   3.496   5.053  15.136  0.2517  0.3685  0.6819
19654TIP3    H180453   3.554   5.108  15.189  0.2376  0.3973  0.6662
19654TIP3    H280454   3.551   5.026  15.062  0.7823 -1.0579  1.5809
19655TIP3   OH280455   3.687   0.087  16.284  0.1099  0.5661  0.2404
19655TIP3    H180456   3.731   0.006  16.257 -2.9080 -1.0136 -0.1384
19655TIP3    H280457   3.710   0.150  16.216  1.0135 -0.4608 -0.4373
19656TIP3   OH280458   1.118   5.984  16.922 -0.0262  0.5080  0.1683
19656TIP3    H180459   1.066   6.063  16.933 -1.1315 -0.2300  0.3855
19656TIP3    H280460   1.125   5.974  16.827  0.0165  0.8046  0.1388
19657TIP3   OH280461   4.429   5.207  15.939 -0.0051 -0.5969  0.4856
19657TIP3    H180462   4.503   5.266  15.925 -1.4246  1.0727 -0.0367
19657TIP3    H280463   4.406   5.177  15.851  0.3710 -1.5564  0.6991
19658TIP3   OH280464   5.885   4.583  11.610  0.4661 -0.4750  0.0977
19658TIP3    H180465   5.812   4.644  11.623 -0.3417 -1.2477 -0.7624
19658TIP3    H280466   5.862   4.506  11.662  1.2382 -0.2651  0.7665
19659TIP3   OH280467   0.024   5.077   6.316  0.4409  0.0623  0.0185
19659TIP3    H180468   0.074   5.079   6.235  0.1509  0.0450 -0.1612
19659TIP3    H280469  -0.022   4.993   6.313  0.0571  0.2730 -0.0260
19660TIP3   OH280470   5.946   1.308  14.369 -0.5245 -0.4633  0.2861
19660TIP3    H180471   5.871   1.329  14.313 -1.4364  0.2985  1.7635
19660TIP3    H280472   5.962   1.215  14.354 -2.4067 -0.8698  0.6949
19661TIP3   OH280473   2.888   4.719  13.053 -0.3763 -0.1543 -0.3907
19661TIP3    H180474   2.867   4.634  13.014 -1.5790 -0.9092  1.8041
19661TIP3    H280475   2.860   4.783  12.989 -0.9031 -1.3835 -1.4009
19662TIP3   OH280476   2.341   2.434   3.459  0.1731  0.5362  0.1682
19662TIP3    H180477   2.247   2.441   3.478 -0.0309  0.9583 -0.9755
19662TIP3    H280478   2.379   2.513   3.498 -0.1114  0.9408 -0.3689
19663TIP3   OH280479   3.020   3.612  11.786  0.1186 -0.6289  0.2027
19663TIP3    H180480   2.927   3.612  11.764  0.4290 -1.5887 -1.1430
19663TIP3    H280481   3.052   3.698  11.758 -0.5914  0.1588  1.7420
19664TIP3   OH280482   2.096   1.700  17.055 -0.1101  0.0212 -0.0347
19664TIP3    H180483   2.084   1.722  17.147 -1.3215  0.4667 -0.2916
19664TIP3    H280484   2.145   1.774  17.019  2.9961 -1.4940  0.8688
19665TIP3   OH280485   0.468   2.903  16.454  0.2695  0.0570 -0.1242
19665TIP3    H180486   0.421   2.902  16.371  0.2313 -0.5484 -0.0992
19665TIP3    H280487   0.555   2.871  16.433  0.6080  0.9763 -0.1346
19666TIP3   OH280488   2.855   1.473   5.039  0.1001  0.1385 -0.6293
19666TIP3    H180489   2.814   1.396   4.999  0.7485  0.3676 -1.7616
19666TIP3    H280490   2.904   1.514   4.967  2.9734 -0.5961  0.8349
19667TIP3   OH280491   5.220   2.134  13.961 -0.0087 -0.0680 -0.3888
19667TIP3    H180492   5.156   2.100  14.024 -0.8221 -0.0952 -1.2086
19667TIP3    H280493   5.220   2.228  13.975 -0.6358 -0.0103 -0.7478
19668TIP3   OH280494   5.462   2.375  16.107 -0.3425  0.5129  0.2730
19668TIP3    H180495   5.439   2.285  16.084 -0.9003  0.8724 -0.5895
19668TIP3    H280496   5.557   2.372  16.119 -0.2654 -0.0510 -0.4264
19669TIP3   OH280497   3.106   4.227   0.583 -0.0330 -0.1248 -0.6584
19669TIP3    H180498   3.019   4.268   0.575  0.3473  0.8351  0.0349
19669TIP3    H280499   3.159   4.273   0.518  0.4436  0.6384  0.2515
19670TIP3   OH280500   2.933   2.482  16.517  0.1723 -0.2961  0.4503
19670TIP3    H180501   2.889   2.498  16.600  0.2992  3.4567 -0.1173
19670TIP3    H280502   2.867   2.440  16.462 -0.5820 -0.8122  1.7290
19671TIP3   OH280503   0.527   1.840  16.847  0.7296  0.1059  0.0874
19671TIP3    H180504   0.518   1.753  16.806  1.6030  0.2047 -0.3221
19671TIP3    H280505   0.588   1.826  16.919 -1.5312 -0.2729  2.0040
19672TIP3   OH280506   1.520   3.360  11.320 -0.2941  0.0198  0.7171
19672TIP3    H180507   1.573   3.321  11.251 -0.3223  2.0943 -0.5182
19672TIP3    H280508   1.558   3.327  11.402  1.5987 -0.1314 -0.2006
19673TIP3   OH280509   3.106   2.543   0.657 -0.1031 -0.1827 -0.4248
19673TIP3    H180510   3.113   2.448   0.670 -1.1098 -0.2882 -0.6110
19673TIP3    H280511   3.050   2.573   0.728 -0.6196  0.1286 -0.9642
19674TIP3   OH280512   6.349   5.558  15.853 -0.0285  0.3866  0.4469
19674TIP3    H180513   6.383   5.556  15.942 -0.1795  1.0130  0.5255
19674TIP3    H280514   6.351   5.651  15.829  1.6285  0.0500 -0.8245
19675TIP3   OH280515   4.648   6.508  15.879 -0.2560 -0.0321  0.0842
19675TIP3    H180516   4.598   6.536  15.955  2.5208  2.1042  1.2144
19675TIP3    H280517   4.602   6.547  15.804 -0.5419  1.5670  1.0617
19676TIP3   OH280518   0.596   5.742  12.331  0.4893  0.2970 -0.1168
19676TIP3    H180519   0.622   5.656  12.298 -0.5170  0.1777 -0.6221
19676TIP3    H280520   0.520   5.724  12.387 -0.6778  1.0249 -1.4398
19677TIP3   OH280521   6.811   3.634  11.630 -0.2441  0.7167  0.5475
19677TIP3    H180522   6.775   3.554  11.667  0.7662  0.8992  1.9595
19677TIP3    H280523   6.861   3.606  11.554 -0.8709  0.1470  0.3402
19678TIP3   OH280524   3.296   4.359   6.747 -0.4823 -0.1169  0.5033
19678TIP3    H180525   3.251   4.300   6.808  0.3187  0.0050  1.2141
19678TIP3    H280526   3.385   4.364   6.780 -0.7816  2.2627  1.0225
19679TIP3   OH280527   4.186   2.207   3.221 -0.1872  0.1045 -0.0102
19679TIP3    H180528   4.224   2.121   3.237  1.8373  0.9479 -0.0031
19679TIP3    H280529   4.178   2.247   3.308  0.0813  0.3928 -0.1149
19680TIP3   OH280530   0.986   2.472  13.471 -0.1154  0.6345  0.0591
19680TIP3    H180531   1.013   2.518  13.551  1.6535  1.2458 -0.8620
19680TIP3    H280532   0.914   2.416  13.499 -0.5060  1.9524  1.7658
19681TIP3   OH280533   4.032   4.038  12.991  0.1103  0.2889 -0.2267
19681TIP3    H180534   4.099   3.982  13.030 -1.0101 -0.3527  0.7996
19681TIP3    H280535   3.983   3.981  12.932  1.0781  0.9946 -1.7740
19682TIP3   OH280536   6.222   5.172   4.452 -0.3873  0.2040  0.3373
19682TIP3    H180537   6.166   5.098   4.427 -0.8658  0.6036  0.2251
19682TIP3    H280538   6.161   5.242   4.474  0.0433  1.2857 -1.7261
19683TIP3   OH280539   0.562   5.922   3.827  0.2715 -0.1910 -0.7612
19683TIP3    H180540   0.619   5.999   3.815  0.6529 -0.6307 -1.7896
19683TIP3    H280541   0.527   5.904   3.740  1.5293 -2.2318 -0.8756
19684TIP3   OH280542   1.797   2.316  12.379 -0.0759  0.2802  0.3687
19684TIP3    H180543   1.791   2.386  12.444  0.0017  1.8930 -1.3582
19684TIP3    H280544   1.732   2.252  12.408 -0.4318  1.2411  1.7268
19685TIP3   OH280545   4.949   2.284   3.978  0.3069  0.2500  0.1395
19685TIP3    H180546   5.036   2.296   3.941  0.5528  1.6718  1.1308
19685TIP3    H280547   4.963   2.227   4.054  0.2015 -0.4170 -0.3347
19686TIP3   OH280548   2.444   1.996   4.965  0.2000 -0.1829 -0.0569
19686TIP3    H180549   2.507   1.999   4.893 -0.9795  0.4176 -1.0681
19686TIP3    H280550   2.420   1.904   4.972  1.3039 -0.4368  0.4332
19687TIP3   OH280551   6.553   6.482  13.678  0.2190 -0.1256  0.0732
19687TIP3    H180552   6.585   6.482  13.769  2.4749 -2.3446 -0.6649
19687TIP3    H280553   6.547   6.390  13.655  1.5538  0.4238 -2.6564
19688TIP3   OH280554   5.487   0.136  13.574  0.1419  0.4021  0.0565
19688TIP3    H180555   5.474   0.128  13.479 -0.5556 -2.4092  0.3198
19688TIP3    H280556   5.445   0.057  13.610 -0.3455  1.8351  2.7817
19689TIP3   OH280557   3.378   3.461  12.268  0.4710 -0.6071 -0.5083
19689TIP3    H180558   3.298   3.485  12.221  0.4434  0.7318  0.1841
19689TIP3    H280559   3.392   3.534  12.329  1.2561 -1.6588  0.5919
19690TIP3   OH280560   6.658   6.584   0.105  0.2342 -0.1166 -0.3302
19690TIP3    H180561   6.751   6.604   0.095  0.0482 -0.0954 -2.2079
19690TIP3    H280562   6.655   6.508   0.162  1.4411 -0.4996 -0.7746
19691TIP3   OH280563   4.728   3.018  11.513  0.1544 -0.4161 -0.7371
19691TIP3    H180564   4.672   3.096  11.509  1.6663  0.6877 -0.9137
19691TIP3    H280565   4.774   3.026  11.596  1.6219 -0.1764 -1.5444
19692TIP3   OH280566   0.677   4.160   6.387 -0.5041  0.1985 -0.0648
19692TIP3    H180567   0.659   4.087   6.446 -0.1923  0.5004  0.4051
19692TIP3    H280568   0.608   4.154   6.320 -0.6991 -0.3021  0.1786
19693TIP3   OH280569   3.362   1.672   0.204  0.0683  0.4993  0.2660
19693TIP3    H180570   3.404   1.587   0.221  1.5151  1.0768 -0.2965
19693TIP3    H280571   3.305   1.655   0.129  1.6623  0.3989 -0.9543
19694TIP3   OH280572   4.780   1.130  14.735  0.1435  0.3769  0.1795
19694TIP3    H180573   4.684   1.123  14.742  0.1423  0.3160  0.0912
19694TIP3    H280574   4.795   1.209  14.683  0.1268 -0.0954 -0.5384
19695TIP3   OH280575   3.936   0.195  14.973  0.2358 -0.3603  0.2083
19695TIP3    H180576   3.857   0.186  15.026  0.0385 -0.8677 -0.1691
19695TIP3    H280577   3.961   0.287  14.983 -1.3778  0.2377 -1.0474
19696TIP3   OH280578   2.778   6.120   0.654  0.0190  0.0634 -0.5467
19696TIP3    H180579   2.848   6.111   0.589  0.4128 -2.8365  0.2120
19696TIP3    H280580   2.700   6.139   0.603  0.5125 -1.1700 -1.7789
19697TIP3   OH280581   3.504   4.618   2.097 -0.6416 -0.2435  0.1943
19697TIP3    H180582   3.558   4.655   2.026  0.8050 -0.9902  0.8803
19697TIP3    H280583   3.479   4.531   2.065 -0.6090 -0.2915  0.3012
19698TIP3   OH280584   0.646   6.760  16.664  0.4482 -0.0259  0.4228
19698TIP3    H180585   0.635   6.721  16.578 -1.5484 -0.0599  0.6686
19698TIP3    H280586   0.583   6.715  16.719  2.4593 -0.7878  2.1968
19699TIP3   OH280587   6.738   0.655   5.394 -0.1395 -0.7019 -0.0325
19699TIP3    H180588   6.697   0.620   5.473  0.1043 -0.4960  0.1877
19699TIP3    H280589   6.668   0.703   5.351  0.4028  1.5374  1.4820
19700TIP3   OH280590   4.481   0.229  14.386 -0.2590 -1.0557  0.6868
19700TIP3    H180591   4.574   0.250  14.393 -0.1433 -1.6598  1.0282
19700TIP3    H280592   4.468   0.206  14.295 -0.5013  1.0089  0.1720
19701TIP3   OH280593   2.364   2.517   5.621  0.1952  0.0683  0.3285
19701TIP3    H180594   2.404   2.459   5.556  0.7163  0.1870  0.5453
19701TIP3    H280595   2.329   2.590   5.569 -0.7765 -0.6090  0.0187
19702TIP3   OH280596   1.581   1.499  11.246 -0.0905  0.3892  0.6755
19702TIP3    H180597   1.514   1.473  11.309  1.6357  0.2693  2.4879
19702TIP3    H280598   1.550   1.583  11.212 -0.8258  0.6761  2.0155
19703TIP3   OH280599   5.152   3.130   1.555  0.1790 -0.2074  0.2071
19703TIP3    H180600   5.207   3.063   1.514  0.1273  0.0066 -0.2179
19703TIP3    H280601   5.186   3.138   1.644 -0.8063 -1.8916  0.7428
19704TIP3   OH280602   5.621   4.361  14.921  0.6763  0.2702  0.5074
19704TIP3    H180603   5.696   4.382  14.865 -0.3728 -0.0382 -1.0420
19704TIP3    H280604   5.562   4.435  14.909  0.2172 -0.0484  0.8062
19705TIP3   OH280605   6.593   0.063   6.481 -0.2781 -0.2377 -0.3572
19705TIP3    H180606   6.523   0.051   6.417  0.4374  1.5180 -1.5063
19705TIP3    H280607   6.555   0.122   6.546 -0.3829 -0.5280 -0.1554
19706TIP3   OH280608   3.773   6.385   3.377 -0.0864  0.1376 -0.2578
19706TIP3    H180609   3.790   6.292   3.396 -0.5606 -0.5187 -2.7932
19706TIP3    H280610   3.784   6.429   3.461  0.2572 -2.2044  0.9797
19707TIP3   OH280611   6.615   4.921  17.246  0.4136  0.0087  0.3512
19707TIP3    H180612   6.591   4.856  17.312  0.5518  0.5138  0.9016
19707TIP3    H280613   6.561   4.900  17.170  0.2513 -0.5721  0.6293
19708TIP3   OH280614   3.136   2.681  12.511  0.9674  0.8393 -0.0157
19708TIP3    H180615   3.090   2.650  12.589  0.7372  1.3338  0.0422
19708TIP3    H280616   3.210   2.731  12.545  1.1596  0.6278 -0.1145
19709TIP3   OH280617   3.331   1.545   3.156  0.1348 -0.3176 -0.0277
19709TIP3    H180618   3.373   1.627   3.129 -0.6743 -0.0815 -0.5878
19709TIP3    H280619   3.237   1.562   3.148 -0.0355 -1.4480 -0.5847
19710TIP3   OH280620   6.003   6.425  13.038  0.5237 -0.6150 -0.1215
19710TIP3    H180621   6.039   6.340  13.013 -2.0919 -1.3646 -1.5119
19710TIP3    H280622   5.998   6.475  12.957 -0.5581 -0.1651  0.2014
19711TIP3   OH280623   6.639   2.908  16.127  0.0671  0.4926 -0.5028
19711TIP3    H180624   6.597   2.928  16.211  0.8746  0.3917 -0.0727
19711TIP3    H280625   6.610   2.820  16.105  1.3361 -0.2184  0.5991
19712TIP3   OH280626   3.275   4.068   6.504  0.3283  0.5591 -0.1904
19712TIP3    H180627   3.213   4.100   6.439  0.8190  1.0242 -0.4308
19712TIP3    H280628   3.316   3.992   6.463 -0.8919 -0.4312  0.4101
19713TIP3   OH280629   0.039   0.510  16.284  0.2119 -0.1782  0.4014
19713TIP3    H180630  -0.041   0.480  16.242  0.3835  0.4023 -0.3568
19713TIP3    H280631   0.032   0.481  16.375 -1.4418  1.0052  0.6650
19714TIP3   OH280632   4.739   5.943   6.323  0.1772 -0.1203 -0.1847
19714TIP3    H180633   4.727   5.968   6.415  1.1530  1.5153 -0.4777
19714TIP3    H280634   4.693   5.859   6.314  0.2784 -0.4066  1.8451
19715TIP3   OH280635   3.512   1.591  16.661 -0.2717 -0.0033 -0.3131
19715TIP3    H180636   3.590   1.641  16.684 -1.0008  0.7616  0.5326
19715TIP3    H280637   3.503   1.526  16.731 -0.4343 -0.0326 -0.3591
19716TIP3   OH280638   3.069   5.370  15.516  0.1925  0.2872 -0.5976
19716TIP3    H180639   3.025   5.455  15.521  0.7835  0.5814 -0.4219
19716TIP3    H280640   3.155   5.389  15.479  0.8282 -0.0635  0.6981
19717TIP3   OH280641   1.583   5.914   0.185  0.6344 -0.4018 -0.6217
19717TIP3    H180642   1.488   5.923   0.195  0.9234  2.2080  0.0488
19717TIP3    H280643   1.615   5.892   0.272  0.9750  2.0301 -0.1073
19718TIP3   OH280644   0.054   6.426  14.414 -0.1350  0.0129  0.3517
19718TIP3    H180645   0.035   6.512  14.453 -0.0827  0.8444 -1.4309
19718TIP3    H280646  -0.029   6.379  14.419 -0.4911  0.6225  0.1869
19719TIP3   OH280647   2.603   3.917  16.686 -0.2742  0.2691  0.4376
19719TIP3    H180648   2.574   3.937  16.597 -3.3755 -1.6400  0.9469
19719TIP3    H280649   2.636   3.828  16.682  2.3414  1.1808  0.6473
19720TIP3   OH280650   6.071   1.976  13.997 -0.5117  0.2146 -0.0808
19720TIP3    H180651   6.066   2.068  13.974 -0.8915  0.3428  0.5036
19720TIP3    H280652   6.064   1.974  14.093  0.4429 -0.3476 -0.0039
19721TIP3   OH280653   3.686   2.690  15.637 -0.0972 -0.2973  0.0895
19721TIP3    H180654   3.760   2.658  15.584 -0.9490 -0.3646 -1.0797
19721TIP3    H280655   3.621   2.718  15.572 -0.6801  0.7398  1.1068
19722TIP3   OH280656   1.785   0.414  11.732 -0.3174 -0.1624  0.0027
19722TIP3    H180657   1.801   0.344  11.796 -0.4551  1.1926  1.5424
19722TIP3    H280658   1.767   0.367  11.650 -0.3465 -1.9296  0.9842
19723TIP3   OH280659   0.608   5.332   3.843 -0.0115 -0.0056  0.5324
19723TIP3    H180660   0.668   5.338   3.918  1.2978 -1.0840 -0.3932
19723TIP3    H280661   0.618   5.242   3.812 -1.6490 -0.0036 -0.0439
19724TIP3   OH280662   5.739   2.280  13.215 -0.0048  0.0931 -0.3983
19724TIP3    H180663   5.713   2.196  13.177 -2.6899  0.5572  0.3353
19724TIP3    H280664   5.753   2.337  13.140 -1.3582 -0.1192 -0.8232
19725TIP3   OH280665   6.276   4.157  11.147 -0.2051  0.4167 -0.5496
19725TIP3    H180666   6.199   4.185  11.097  0.1906  1.4329 -0.5956
19725TIP3    H280667   6.240   4.103  11.217 -1.0152  1.3628 -0.2287
19726TIP3   OH280668   5.669   2.740  17.250 -0.0382  0.2777 -0.1227
19726TIP3    H180669   5.645   2.754  17.342 -0.9375 -0.5348 -0.2308
19726TIP3    H280670   5.683   2.645  17.243 -1.7087  0.0880 -1.2324
19727TIP3   OH280671   2.655   6.448  13.706 -0.0454 -0.1249 -0.5215
19727TIP3    H180672   2.560   6.459  13.709 -0.0462 -0.2131 -0.2233
19727TIP3    H280673   2.690   6.529  13.744 -0.0197 -0.4717  0.1957
19728TIP3   OH280674   5.350   2.421  13.680 -0.7479  0.0855 -0.4531
19728TIP3    H180675   5.325   2.473  13.604  1.4310 -2.3142 -2.9053
19728TIP3    H280676   5.310   2.335  13.666 -0.0048 -0.5129  0.9251
19729TIP3   OH280677   5.892   3.568   2.811  0.0266 -0.4793  0.3649
19729TIP3    H180678   5.821   3.527   2.761 -0.8120  0.8691  0.3912
19729TIP3    H280679   5.957   3.592   2.745  0.1780 -1.1734  0.2615
19730TIP3   OH280680   5.238   0.576  14.817  0.2543  0.1726  0.0529
19730TIP3    H180681   5.311   0.575  14.755 -1.2059 -0.0797 -1.6745
19730TIP3    H280682   5.204   0.666  14.813 -0.9979 -0.3267 -0.9097
19731TIP3   OH280683   3.252   6.181  16.887  0.1452  0.0514 -0.1723
19731TIP3    H180684   3.334   6.178  16.936 -0.0969 -2.4160  0.1379
19731TIP3    H280685   3.272   6.143  16.802 -0.4872  0.1434 -0.3650
19732TIP3   OH280686   6.329   0.730   4.195  0.5664  0.1644  0.0183
19732TIP3    H180687   6.253   0.671   4.184 -0.3288  1.0570  1.3035
19732TIP3    H280688   6.332   0.779   4.113 -0.5860  0.4990  0.1584
19733TIP3   OH280689   2.895   5.163   4.847 -0.1428  0.3790  0.2376
19733TIP3    H180690   2.845   5.175   4.766 -0.5435 -2.2783  0.0621
19733TIP3    H280691   2.872   5.239   4.901  0.1785  2.2352 -2.1322
19734TIP3   OH280692   5.114   0.950   5.993  0.2187 -0.1752 -0.1907
19734TIP3    H180693   5.059   1.023   5.963 -0.4412 -0.3060  0.6770
19734TIP3    H280694   5.078   0.927   6.078  1.3510 -0.5625  0.1879
19735TIP3   OH280695   6.418   2.443  12.770 -0.2101 -0.1586  0.1735
19735TIP3    H180696   6.417   2.360  12.817 -0.3861 -0.7240 -0.8147
19735TIP3    H280697   6.487   2.433  12.704  0.1338  0.6738  0.3965
19736TIP3   OH280698   1.141   4.184   5.304 -0.3277  0.2257 -0.0856
19736TIP3    H180699   1.122   4.121   5.234 -0.4584 -0.3480  0.4663
19736TIP3    H280700   1.229   4.161   5.333 -1.1036 -0.9286  1.4079
19737TIP3   OH280701   3.669   6.180  10.561  0.4323  0.0553  0.4607
19737TIP3    H180702   3.589   6.132  10.581 -0.7718  1.0061 -1.8185
19737TIP3    H280703   3.654   6.268  10.596  0.9628 -0.0851  1.0468
19738TIP3   OH280704   4.552   1.395  10.822 -0.3326 -0.5019 -0.2139
19738TIP3    H180705   4.595   1.478  10.805 -1.7333  0.5995  1.4284
19738TIP3    H280706   4.478   1.393  10.761 -2.0693  0.8823  1.7736
19739TIP3   OH280707   2.742   2.090  16.575 -0.1314  0.0519  0.2687
19739TIP3    H180708   2.832   2.095  16.608 -0.2441  2.3030  0.3622
19739TIP3    H280709   2.700   2.023  16.628  1.0284  0.2123  1.4174
19740TIP3   OH280710   1.413   0.554  11.787  0.7297  0.2172  0.0916
19740TIP3    H180711   1.347   0.493  11.754 -0.2988 -0.1352  2.7211
19740TIP3    H280712   1.483   0.498  11.820  2.3288  0.5897 -2.5787
19741TIP3   OH280713   1.929   0.666   5.638  0.0532 -0.3069 -0.0783
19741TIP3    H180714   1.904   0.718   5.714 -1.5380  0.5729 -1.1569
19741TIP3    H280715   2.023   0.679   5.630 -0.2978  2.6081 -0.3741
19742TIP3   OH280716   4.527   3.473  15.440 -0.4174  0.6692 -0.8785
19742TIP3    H180717   4.479   3.553  15.416  1.6266  2.4351  0.6616
19742TIP3    H280718   4.598   3.504  15.496 -1.3052 -2.5794  2.2354
19743TIP3   OH280719   1.471   6.057   1.543  0.4908  0.5055  0.1460
19743TIP3    H180720   1.489   6.131   1.486 -0.2117  0.3663 -0.2707
19743TIP3    H280721   1.507   6.082   1.628 -1.9455  2.4130  0.6718
19744TIP3   OH280722   3.500   2.112   5.687  0.2787  0.2082  0.3331
19744TIP3    H180723   3.445   2.053   5.636 -1.6744  1.3581  1.0584
19744TIP3    H280724   3.577   2.126   5.633 -0.1219 -1.4426 -0.6973
19745TIP3   OH280725   3.970   3.524   2.031 -0.4108 -0.2538 -0.5188
19745TIP3    H180726   3.978   3.449   2.090  1.6647 -0.8790 -1.5578
19745TIP3    H280727   4.057   3.535   1.993 -1.5478  0.4575 -3.0775
19746TIP3   OH280728   5.216   1.947  16.982 -0.8093 -0.0440 -0.7071
19746TIP3    H180729   5.211   1.856  17.011  3.0218  0.0563  0.4969
19746TIP3    H280730   5.211   1.943  16.887  1.7502 -1.7510 -0.7940
19747TIP3   OH280731   0.394   6.566  16.034 -0.1806  0.3177 -0.2654
19747TIP3    H180732   0.345   6.627  15.979 -0.3297 -0.0128 -0.4957
19747TIP3    H280733   0.391   6.483  15.986 -0.8028 -0.1161  0.5163
19748TIP3   OH280734   2.264   6.481  12.494 -0.1767 -0.7412 -0.5283
19748TIP3    H180735   2.181   6.527  12.509 -0.1842 -1.1542  0.7153
19748TIP3    H280736   2.242   6.389  12.504  0.3280 -0.8804 -0.7002
19749TIP3   OH280737   0.474   2.648  11.236 -0.3233 -0.1272 -0.1627
19749TIP3    H180738   0.542   2.698  11.191 -1.3890  0.5158 -1.0800
19749TIP3    H280739   0.413   2.623  11.167 -1.6327  0.2947  0.8302
19750TIP3   OH280740   4.619   5.468   0.491 -0.2565  0.1002  0.1928
19750TIP3    H180741   4.631   5.383   0.447  1.4827 -0.0645  0.9277
19750TIP3    H280742   4.533   5.498   0.462 -0.5433 -1.5334 -0.7315
19751TIP3   OH280743   1.030   6.113  15.850  0.4490 -0.0114  0.1083
19751TIP3    H180744   0.952   6.094  15.798  0.7817  0.8027 -0.7199
19751TIP3    H280745   1.056   6.029  15.887  0.5901 -0.7492 -1.6076
19752TIP3   OH280746   4.475   2.907   6.033  0.1448  0.5187 -0.2523
19752TIP3    H180747   4.471   2.815   6.060  0.8309  0.0973 -1.5444
19752TIP3    H280748   4.511   2.953   6.109 -1.6868 -0.0210  0.9796
19753TIP3   OH280749   1.983   0.748  12.550 -0.1294  0.2672 -0.1884
19753TIP3    H180750   2.055   0.726  12.610 -1.3161 -1.9359  0.4490
19753TIP3    H280751   2.018   0.730  12.463  0.4615  0.3111  0.0320
19754TIP3   OH280752   1.512   5.526   1.383  0.3998  0.1906 -0.3572
19754TIP3    H180753   1.489   5.495   1.295  1.3515  2.4265 -1.4582
19754TIP3    H280754   1.511   5.622   1.375  1.1354  0.4156  1.9082
19755TIP3   OH280755   5.675   0.942   2.236  0.4888  0.5522  0.6771
19755TIP3    H180756   5.583   0.940   2.211  1.2914 -0.4086 -2.4989
19755TIP3    H280757   5.692   0.857   2.275  0.1746  0.4911  0.6813
19756TIP3   OH280758   4.227   1.007  16.701  0.1097 -0.5936 -0.3605
19756TIP3    H180759   4.165   0.969  16.763  0.0999  1.1052  0.6925
19756TIP3    H280760   4.308   1.015  16.750 -0.1036  1.4643 -0.3198
19757TIP3   OH280761   1.052   5.141   0.982 -0.1235  0.1116  0.5275
19757TIP3    H180762   1.089   5.210   1.037 -0.7577 -0.3315  1.5308
19757TIP3    H280763   0.958   5.146   0.997 -0.2092 -0.7151  0.3169
19758TIP3   OH280764   0.701   2.892  14.041  0.3404 -0.3120  0.6241
19758TIP3    H180765   0.687   2.861  13.952  1.9350 -0.6736  0.4784
19758TIP3    H280766   0.613   2.900  14.078 -0.3179 -0.4407 -0.8772
19759TIP3   OH280767   6.736   1.293  15.518 -0.3613 -0.4186 -0.5632
19759TIP3    H180768   6.800   1.337  15.462  0.5262  0.5610  1.1634
19759TIP3    H280769   6.784   1.221  15.558 -0.4364  0.0625  0.4120
19760TIP3   OH280770   4.769   1.739   4.822 -0.8744 -0.2837 -0.0626
19760TIP3    H180771   4.742   1.755   4.913  0.9958  0.8037  0.3089
19760TIP3    H280772   4.708   1.672   4.791 -3.2239  1.2238  1.1450
19761TIP3   OH280773   1.745   5.091  12.612 -0.0104 -0.0110 -0.2880
19761TIP3    H180774   1.662   5.098  12.566  0.4107 -0.0146 -1.0647
19761TIP3    H280775   1.797   5.164  12.577  0.7109 -0.6944 -0.6499
19762TIP3   OH280776   4.023   6.425  16.660 -0.4718  0.4006  0.8186
19762TIP3    H180777   3.932   6.450  16.679 -0.7778 -0.7587  0.9151
19762TIP3    H280778   4.075   6.475  16.722 -1.0552  0.9929  0.8356
19763TIP3   OH280779   6.767   2.593  12.766 -0.0204 -0.4060  0.1714
19763TIP3    H180780   6.707   2.576  12.838 -2.1168 -1.8187 -1.8747
19763TIP3    H280781   6.719   2.651  12.707  0.8685 -0.9521 -1.1234
19764TIP3   OH280782   5.468   6.734  10.921  0.7253  0.5009  0.0852
19764TIP3    H180783   5.510   6.795  10.982 -0.8268  0.1207  1.5813
19764TIP3    H280784   5.416   6.790  10.863  2.7378  0.9188 -1.3537
19765TIP3   OH280785   1.691   1.155  12.384  0.2197  0.0856 -0.2802
19765TIP3    H180786   1.764   1.140  12.443 -0.1936 -0.3795  0.1133
19765TIP3    H280787   1.617   1.174  12.441  0.3861  2.2223 -0.7017
19766TIP3   OH280788   6.683   0.809  12.577  0.5192  0.1398  0.0404
19766TIP3    H180789   6.766   0.793  12.532  0.4924  0.2585 -0.0530
19766TIP3    H280790   6.669   0.903  12.566 -0.2379 -0.0823 -1.0010
19767TIP3   OH280791   4.631   6.734   2.400 -0.1670  0.0125  0.5580
19767TIP3    H180792   4.641   6.696   2.488 -0.9071  3.0338  2.0066
19767TIP3    H280793   4.538   6.758   2.396  0.3402  1.8415 -0.2451
19768TIP3   OH280794   3.065   2.778   6.145 -0.1016  0.1963 -0.2672
19768TIP3    H180795   3.044   2.853   6.201 -0.0262 -0.7301  1.0228
19768TIP3    H280796   3.079   2.816   6.058 -3.3324  1.2793 -0.3666
19769TIP3   OH280797   1.851   5.043  17.198  0.3233  0.0835  0.6903
19769TIP3    H180798   1.802   4.963  17.219  1.2947 -0.6118  0.3718
19769TIP3    H280799   1.803   5.113  17.242  0.3808 -0.8834  2.3535
19770TIP3   OH280800   4.984   3.147  10.558 -0.0182 -0.4729 -0.1901
19770TIP3    H180801   4.946   3.070  10.599  1.8953 -2.5218 -2.1203
19770TIP3    H280802   4.961   3.138  10.466  1.9315  0.1760 -0.7623
19771TIP3   OH280803   5.162   1.052   3.134  0.7082 -0.2334 -0.0021
19771TIP3    H180804   5.077   1.064   3.092  0.0720 -4.2382 -0.0423
19771TIP3    H280805   5.222   1.105   3.081 -1.0339 -0.7504 -2.5862
19772TIP3   OH280806   3.998   0.145  13.030 -0.1872 -0.1205 -0.1346
19772TIP3    H180807   4.054   0.213  13.067  2.6752 -2.7812  0.5570
19772TIP3    H280808   4.053   0.101  12.966 -2.5545 -0.7756 -1.8061
19773TIP3   OH280809   4.288   0.478  17.058  0.5880 -0.0132  0.0251
19773TIP3    H180810   4.314   0.400  17.106 -0.1313 -0.2692  0.0025
19773TIP3    H280811   4.195   0.464  17.037  0.2284  1.2221  0.7597
19774TIP3   OH280812   4.902   4.902  12.257 -0.4737  0.0342  0.2448
19774TIP3    H180813   4.996   4.889  12.269 -0.7538  0.2283  2.8213
19774TIP3    H280814   4.884   4.869  12.169  2.2348  1.2212 -0.8070
19775TIP3   OH280815   4.876   4.690   6.142  0.2036  0.1706  0.0084
19775TIP3    H180816   4.833   4.611   6.109  0.2688  0.1239  0.0342
19775TIP3    H280817   4.970   4.673   6.129  0.1817  0.5779 -0.7347
19776TIP3   OH280818   0.755   0.510  16.568  0.2357  0.2952  0.2068
19776TIP3    H180819   0.749   0.598  16.531  1.8874 -0.0816 -1.0428
19776TIP3    H280820   0.713   0.454  16.503  2.3573 -0.2574 -0.7426
19777TIP3   OH280821   6.780   3.813   3.110  0.3738 -0.2188 -0.0647
19777TIP3    H180822   6.748   3.870   3.180  2.1587 -1.1158  1.5236
19777TIP3    H280823   6.831   3.871   3.054 -0.8502  0.4509 -0.5190
19778TIP3   OH280824   0.428   2.082  13.330  0.3808 -1.0863 -0.3759
19778TIP3    H180825   0.422   2.082  13.235  2.0366  2.7491 -0.5759
19778TIP3    H280826   0.522   2.075  13.349  0.2322 -0.0330  0.8797
19779TIP3   OH280827   0.235   0.262  10.825  0.1405 -0.1268 -0.0104
19779TIP3    H180828   0.144   0.231  10.823 -0.6647  2.0805  0.6230
19779TIP3    H280829   0.258   0.263  10.917  0.5668  0.0289 -0.1173
19780TIP3   OH280830   5.724   5.349   5.185  0.9761 -0.0199  0.5019
19780TIP3    H180831   5.637   5.309   5.195 -0.5751  3.3793  1.2885
19780TIP3    H280832   5.777   5.310   5.254 -0.6151 -0.4043  1.5295
19781TIP3   OH280833   6.409   3.955   2.681 -0.3664 -0.1218  0.4814
19781TIP3    H180834   6.440   4.035   2.638 -1.9124 -1.3524 -3.0716
19781TIP3    H280835   6.470   3.887   2.653 -0.4369 -0.6628  1.5961
19782TIP3   OH280836   5.873   0.045  16.886 -0.0963  0.2489  1.0574
19782TIP3    H180837   5.799   0.048  16.825  0.3836 -2.9837  0.2534
19782TIP3    H280838   5.852   0.110  16.952 -1.2191  3.0062 -1.8730
19783TIP3   OH280839   5.610   1.551  11.642 -0.7225 -0.0280 -0.5624
19783TIP3    H180840   5.605   1.579  11.550  2.1868  1.7584 -0.2253
19783TIP3    H280841   5.553   1.611  11.689 -0.3073  0.6163 -0.8771
19784TIP3   OH280842   4.494   1.443   5.684 -0.1447  0.5029 -0.1641
19784TIP3    H180843   4.479   1.536   5.669 -2.3989  0.2927  0.5260
19784TIP3    H280844   4.436   1.400   5.621 -1.8179 -0.3983  1.9376
19785TIP3   OH280845   2.325   2.792  16.321 -0.2351 -0.2068 -0.4493
19785TIP3    H180846   2.344   2.720  16.381  1.5986  0.6149 -0.0017
19785TIP3    H280847   2.317   2.869  16.378  1.8496  0.6380 -1.2687
19786TIP3   OH280848   4.377   0.187   1.766  0.5047  0.1109 -0.1762
19786TIP3    H180849   4.350   0.278   1.773  0.7639  0.2383 -0.7921
19786TIP3    H280850   4.374   0.168   1.672  1.3464 -0.2406 -0.1324
19787TIP3   OH280851   5.032   1.396   5.885 -0.2142 -0.0361 -0.1882
19787TIP3    H180852   5.041   1.421   5.977  1.0877  0.5596 -0.4709
19787TIP3    H280853   5.093   1.453   5.838 -0.5010 -0.6750 -1.3720
19788TIP3   OH280854   6.580   6.063  13.417 -0.6404 -0.1141 -0.6266
19788TIP3    H180855   6.638   5.996  13.454  0.7498  0.5818 -1.5167
19788TIP3    H280856   6.626   6.094  13.339 -1.0075  2.2983  0.0800
19789TIP3   OH280857   5.954   6.806  15.191  0.1271  0.3692 -0.2500
19789TIP3    H180858   5.913   6.748  15.255  0.2805  1.2123  0.6227
19789TIP3    H280859   5.891   6.811  15.120 -0.8840  0.9333  0.6765
19790TIP3   OH280860   2.459   5.294  11.301  0.5998  0.1873  0.0970
19790TIP3    H180861   2.371   5.258  11.288 -0.0424  0.9201  2.1533
19790TIP3    H280862   2.515   5.217  11.314 -0.2887 -0.2052  1.7833
19791TIP3   OH280863   5.678   2.573  11.463 -0.0345  0.4503  0.0620
19791TIP3    H180864   5.672   2.565  11.368  1.1391 -0.0876  0.0194
19791TIP3    H280865   5.729   2.496  11.490  0.0700  0.8724  1.0729
19792TIP3   OH280866   3.191   1.908  15.000 -0.1685  0.5318 -0.2511
19792TIP3    H180867   3.134   1.876  14.930 -0.4073 -0.1735  0.2515
19792TIP3    H280868   3.131   1.951  15.061 -0.0760  0.3828 -0.0548
19793TIP3   OH280869   1.589   1.712   1.102 -0.0957  0.3593  0.3777
19793TIP3    H180870   1.607   1.636   1.047 -2.5726  0.0232 -0.0462
19793TIP3    H280871   1.666   1.768   1.093  0.8802 -1.1723 -0.9224
19794TIP3   OH280872   1.369   2.040  11.539  0.2629  0.4261  0.5915
19794TIP3    H180873   1.283   2.077  11.522  0.2976  0.5675  0.7260
19794TIP3    H280874   1.356   1.977  11.609 -0.3364 -1.9651 -1.6064
19795TIP3   OH280875   2.671   4.144  12.974 -0.1954 -0.3216  0.1507
19795TIP3    H180876   2.733   4.185  13.034 -0.4838  1.9363 -1.0483
19795TIP3    H280877   2.725   4.087  12.919  0.7361  1.1276 -0.4516
19796TIP3   OH280878   6.135   6.242  15.312 -0.0782  0.3865  0.1490
19796TIP3    H180879   6.192   6.195  15.251 -0.9390  0.3478 -0.6337
19796TIP3    H280880   6.093   6.173  15.364  0.9277  0.4366  1.0346
19797TIP3   OH280881   6.327   4.002   1.692  0.4088  1.2107 -0.0551
19797TIP3    H180882   6.329   3.934   1.625  0.0664  1.9552 -0.8257
19797TIP3    H280883   6.357   3.958   1.772  0.4794  0.2362 -0.6138
19798TIP3   OH280884   4.223   5.614   4.139 -0.8684 -0.4548  0.1893
19798TIP3    H180885   4.274   5.695   4.134 -2.1105  0.4070  1.1505
19798TIP3    H280886   4.132   5.643   4.135 -1.3292 -1.8111  0.6725
19799TIP3   OH280887   3.185   3.135   5.794  0.6437 -0.0208 -0.3752
19799TIP3    H180888   3.237   3.213   5.809  1.5942 -0.8000  0.4821
19799TIP3    H280889   3.111   3.143   5.854  1.2624 -0.2512  0.4204
19800TIP3   OH280890   0.279   2.546  15.371 -0.5514  0.4077  0.0955
19800TIP3    H180891   0.359   2.509  15.408  0.5532  0.8534 -1.7667
19800TIP3    H280892   0.309   2.593  15.292 -2.5430  1.2166 -0.1996
19801TIP3   OH280893   5.440   4.126   1.395  1.1663 -0.0609 -0.2675
19801TIP3    H180894   5.502   4.179   1.445  0.4889 -0.8479  1.4502
19801TIP3    H280895   5.479   4.119   1.308  2.0732  1.8401 -0.0276
19802TIP3   OH280896   4.436   1.813   1.640 -0.2884 -0.1249 -0.6892
19802TIP3    H180897   4.496   1.868   1.690  0.4752  0.2541 -2.0174
19802TIP3    H280898   4.356   1.813   1.692  0.9055 -0.8371  1.2456
19803TIP3   OH280899   1.782   4.226   3.723 -0.0012  0.5776  0.2407
19803TIP3    H180900   1.806   4.318   3.731 -1.3530  1.0661 -1.0825
19803TIP3    H280901   1.861   4.178   3.749 -0.0529  2.0534  3.2516
19804TIP3   OH280902   1.997   1.794  11.652  0.5918  0.7375  0.1282
19804TIP3    H180903   2.040   1.709  11.639 -1.6076 -0.5453  0.9633
19804TIP3    H280904   1.958   1.814  11.567 -1.6096 -0.6907  0.7560
19805TIP3   OH280905   0.813   5.988  10.387  0.3009  0.0436  0.1239
19805TIP3    H180906   0.902   5.996  10.353  0.6789  0.5153  1.2087
19805TIP3    H280907   0.804   6.061  10.448  0.4801 -2.1420  2.9023
19806TIP3   OH280908   2.243   4.698  14.708 -0.2010  0.0052 -0.8601
19806TIP3    H180909   2.175   4.643  14.747 -1.7634  1.2775 -1.6883
19806TIP3    H280910   2.323   4.674  14.754 -1.1781 -1.6205  0.0679
19807TIP3   OH280911   5.365   6.796   5.047  0.1394  0.2954 -0.2844
19807TIP3    H180912   5.334   6.718   5.094  2.5107 -1.0878 -0.9396
19807TIP3    H280913   5.407   6.762   4.968  1.6939  2.1913 -0.3134
19808TIP3   OH280914   3.992   2.521  14.381 -0.1796 -0.1127  0.4222
19808TIP3    H180915   3.902   2.489  14.369 -0.3024  0.0415  0.9112
19808TIP3    H280916   4.042   2.479  14.311 -0.2893 -1.5684  1.2048
19809TIP3   OH280917   6.035   5.976  14.630  0.3543  0.1394 -0.1954
19809TIP3    H180918   6.047   5.901  14.687 -0.2269  0.1135 -0.1065
19809TIP3    H280919   6.090   5.958  14.554 -0.8051 -0.9938 -0.7711
19810TIP3   OH280920   2.848   4.459  12.897  0.0152 -0.5740 -0.2063
19810TIP3    H180921   2.919   4.404  12.930 -0.1517 -0.4204  0.4215
19810TIP3    H280922   2.769   4.419  12.932 -0.3376 -1.6820 -2.2110
19811TIP3   OH280923   2.513   3.400  12.336  0.2180  0.3721  0.2528
19811TIP3    H180924   2.511   3.395  12.240  0.0113  0.4924  0.2523
19811TIP3    H280925   2.601   3.369  12.359 -0.2489 -1.1339  0.1082
19812TIP3   OH280926   4.049   3.154   0.771  0.5494 -0.8544 -0.0038
19812TIP3    H180927   4.087   3.068   0.750 -0.5249 -1.4392  0.3848
19812TIP3    H280928   3.965   3.133   0.813 -0.3900  0.4275 -1.2193
19813TIP3   OH280929   3.906   2.949   5.248 -0.5918 -0.1588 -0.0640
19813TIP3    H180930   3.969   2.933   5.178 -0.1005 -1.8168  0.7250
19813TIP3    H280931   3.830   2.895   5.226 -0.3606 -0.8356  0.7586
19814TIP3   OH280932   3.314   1.844  16.624 -0.2480  0.3578  0.0579
19814TIP3    H180933   3.297   1.882  16.711  1.0604 -0.3935  0.6442
19814TIP3    H280934   3.406   1.864  16.607 -0.1381 -0.6898 -0.5654
19815TIP3   OH280935   2.882   1.719  11.546  0.0513  0.4166  0.1691
19815TIP3    H180936   2.824   1.795  11.538  0.0166  0.4062  0.3129
19815TIP3    H280937   2.856   1.662  11.474  2.0099  1.8142 -1.7167
19816TIP3   OH280938   4.063   2.766  13.801 -0.0487 -0.5786  0.3527
19816TIP3    H180939   4.075   2.732  13.713  2.0110  1.1651 -0.0900
19816TIP3    H280940   3.998   2.836  13.792  1.2208  0.5729 -0.0752
19817TIP3   OH280941   1.172   6.586   1.856 -0.7306 -0.0991 -0.1398
19817TIP3    H180942   1.104   6.575   1.790 -0.4048  1.9194 -0.8543
19817TIP3    H280943   1.139   6.656   1.912  1.2051  1.6861 -1.1579
19818TIP3   OH280944   2.500   6.560   0.698  0.0363  0.1155 -0.3553
19818TIP3    H180945   2.545   6.515   0.769 -1.1908 -0.7194 -0.0799
19818TIP3    H280946   2.529   6.515   0.618 -1.3515 -1.3754 -0.0675
19819TIP3   OH280947   2.730   5.293   1.450  0.0679  0.0249  0.4650
19819TIP3    H180948   2.779   5.375   1.453 -2.6151  1.6628  1.5175
19819TIP3    H280949   2.677   5.299   1.371  0.8007 -1.2699 -0.1349
19820TIP3   OH280950   0.062   5.015   2.348 -0.2608 -0.0523  0.1108
19820TIP3    H180951   0.092   5.027   2.258 -0.7131 -0.3699 -0.0882
19820TIP3    H280952   0.141   4.998   2.398 -0.0783 -0.6192 -0.3597
19821TIP3   OH280953   6.635   1.235   6.454  0.1239  0.1854 -0.4623
19821TIP3    H180954   6.700   1.236   6.524 -0.8310  0.0510  0.4448
19821TIP3    H280955   6.560   1.189   6.492 -1.0222  1.5738 -1.0236
19822TIP3   OH280956   3.950   5.040   5.469 -0.5602  0.4900  0.8196
19822TIP3    H180957   3.885   5.034   5.539 -0.6117  0.1417  0.7443
19822TIP3    H280958   3.993   5.124   5.483 -0.5470  0.4054  1.2889
19823TIP3   OH280959   0.304   2.789   5.286  0.7389 -0.4170  0.2877
19823TIP3    H180960   0.286   2.740   5.206  1.6039 -1.3862  0.6637
19823TIP3    H280961   0.226   2.842   5.301  0.9018  0.3936 -1.6471
19824TIP3   OH280962   6.097   2.277   2.819  0.5227  0.4716  0.4272
19824TIP3    H180963   6.043   2.280   2.899 -0.4516  2.7517 -0.2744
19824TIP3    H280964   6.180   2.316   2.846 -0.4567  3.0373 -0.0928
19825TIP3   OH280965   1.367   5.521   4.941  0.3192 -0.0957  0.4015
19825TIP3    H180966   1.318   5.439   4.952  1.3995 -0.6842  0.9110
19825TIP3    H280967   1.443   5.512   4.999  0.2823  1.4113  0.7034
19826TIP3   OH280968   2.390   4.524  15.759  0.9090 -0.7035  0.0210
19826TIP3    H180969   2.380   4.536  15.665  0.9213 -2.4636 -0.2237
19826TIP3    H280970   2.425   4.607  15.791 -0.3400  0.3603 -1.3268
19827TIP3   OH280971   6.635   0.183   6.007 -0.1872 -0.0802  0.9664
19827TIP3    H180972   6.597   0.190   6.095  1.2725  0.8875  1.5434
19827TIP3    H280973   6.586   0.247   5.955 -0.4013  0.0423  1.3157
19828TIP3   OH280974   5.994   2.907   4.574 -0.7595 -0.2202 -1.1467
19828TIP3    H180975   6.033   2.856   4.503 -2.0354  0.1351 -2.1265
19828TIP3    H280976   5.930   2.848   4.613  2.6421 -1.8612  2.3567
19829TIP3   OH280977   1.594   5.579   3.662  0.3130 -0.2383 -0.6468
19829TIP3    H180978   1.586   5.570   3.567 -0.9361 -1.7689 -0.4112
19829TIP3    H280979   1.516   5.628   3.687  0.0729 -0.8024 -0.2877
19830TIP3   OH280980   2.089   2.256   5.134  0.4337 -0.3079  0.2668
19830TIP3    H180981   2.177   2.248   5.169 -0.1458  0.0269  1.8194
19830TIP3    H280982   2.051   2.169   5.144  0.4331 -0.3416 -0.0110
19831TIP3   OH280983   0.214   3.089  16.984 -0.0307 -0.3129  0.3073
19831TIP3    H180984   0.259   3.157  16.933  0.5331  0.4900  1.8614
19831TIP3    H280985   0.135   3.132  17.016  0.5443 -0.2457  1.6597
19832TIP3   OH280986   3.753   3.864  14.579 -0.0158  0.1292  0.4972
19832TIP3    H180987   3.723   3.853  14.669  1.1453  1.3203  1.0554
19832TIP3    H280988   3.841   3.826  14.578 -0.6202 -1.2815 -0.5364
19833TIP3   OH280989   1.080   4.574  14.959  0.2503  0.4163 -0.0398
19833TIP3    H180990   1.174   4.559  14.971  0.2280  0.4511  0.1831
19833TIP3    H280991   1.072   4.668  14.943  0.4162  0.1456 -1.7055
19834TIP3   OH280992   2.381   3.151   3.524 -0.0691 -0.0680 -0.1092
19834TIP3    H180993   2.333   3.195   3.595  0.5217 -0.2681  0.4197
19834TIP3    H280994   2.472   3.155   3.551  0.1661 -0.0912 -0.9008
19835TIP3   OH280995   4.986   6.253  14.845 -0.0440 -0.0695  0.8863
19835TIP3    H180996   5.028   6.270  14.761  1.1581 -1.4707  1.1670
19835TIP3    H280997   4.914   6.316  14.850 -0.8813 -0.7722 -1.7090
19836TIP3   OH280998   3.650   2.210  14.689  0.1273 -0.3870 -0.4459
19836TIP3    H180999   3.731   2.212  14.739 -0.2505 -0.9575  0.1996
19836TIP3    H281000   3.639   2.299  14.656  0.7369 -0.1830 -0.0926
19837TIP3   OH281001   6.003   2.848  13.502 -0.1462  0.0046  0.1591
19837TIP3    H181002   5.951   2.853  13.422  0.3062 -0.6650 -0.1805
19837TIP3    H281003   6.063   2.775  13.487 -0.2591 -0.3183  1.2139
19838TIP3   OH281004   6.704   1.059   4.781  0.1392 -0.1158 -0.4912
19838TIP3    H181005   6.675   0.991   4.841  0.4286 -0.6152 -0.9128
19838TIP3    H281006   6.623   1.105   4.756 -0.0048 -0.0421  0.1113
19839TIP3   OH281007   1.811   4.174  16.287  0.4265  0.6607 -0.6685
19839TIP3    H181008   1.717   4.196  16.289  0.4785  0.8329 -0.0151
19839TIP3    H281009   1.818   4.107  16.219 -0.1449  0.7729 -0.8450
19840TIP3   OH281010   0.390   1.370  14.819  0.0453 -0.4022 -0.0370
19840TIP3    H181011   0.345   1.454  14.831  0.4171  0.0411 -1.5521
19840TIP3    H281012   0.327   1.316  14.772  0.4229 -0.3908 -0.5640
19841TIP3   OH281013   2.227   2.732   0.361  0.2186 -0.1718  1.0246
19841TIP3    H181014   2.184   2.647   0.362 -0.7447  0.2526 -1.6568
19841TIP3    H281015   2.157   2.795   0.380  0.9280  0.0535  3.0226
19842TIP3   OH281016   0.239   3.508   3.915  0.2094  0.4391 -0.3032
19842TIP3    H181017   0.306   3.496   3.983 -0.9560 -1.5767  0.5102
19842TIP3    H281018   0.289   3.513   3.833  1.4599  0.5360  0.4476
19843TIP3   OH281019   2.306   5.975   1.391 -0.0631  0.5634 -0.2223
19843TIP3    H181020   2.394   5.952   1.420 -0.6838  0.7732  1.9703
19843TIP3    H281021   2.279   5.903   1.333  0.9445 -0.2946  0.3675
19844TIP3   OH281022   1.095   5.590  10.724 -0.1828  0.2671 -0.1675
19844TIP3    H181023   1.170   5.636  10.686  0.0865 -0.3591 -0.4126
19844TIP3    H281024   1.118   5.579  10.817  0.6492 -1.1117 -0.5137
19845TIP3   OH281025   5.555   5.054  11.570  0.2079 -0.5127  0.2830
19845TIP3    H181026   5.564   5.075  11.663  0.5972 -0.6055  0.2686
19845TIP3    H281027   5.556   5.138  11.526  1.1896 -0.5295  0.2704
19846TIP3   OH281028   3.844   6.478   5.592 -0.5033  0.0007  0.2721
19846TIP3    H181029   3.900   6.514   5.661 -0.5951  0.0270  0.3329
19846TIP3    H281030   3.766   6.448   5.638 -0.6078  0.1088  0.1656
19847TIP3   OH281031   6.237   1.986   2.089 -0.2286 -0.3499 -0.0534
19847TIP3    H181032   6.225   1.907   2.037  0.3135 -0.8774  0.6090
19847TIP3    H281033   6.194   1.967   2.172  1.6511 -0.7291  0.8572
19848TIP3   OH281034   2.183   0.119   0.019  0.0220 -0.2765  0.0566
19848TIP3    H181035   2.271   0.118  -0.020  0.8123  0.0097  1.8050
19848TIP3    H281036   2.162   0.026   0.033 -0.5193 -0.4174 -1.5641
19849TIP3   OH281037   1.880   0.115   6.415 -0.0393 -0.5284 -0.4712
19849TIP3    H181038   1.956   0.085   6.465 -0.5468  1.0708  1.3134
19849TIP3    H281039   1.805   0.101   6.474 -1.1867 -2.2790 -2.2813
19850TIP3   OH281040   5.844   0.941  12.625  0.3310  0.2549 -0.4517
19850TIP3    H181041   5.842   0.979  12.537 -2.7185  1.9295  0.2763
19850TIP3    H281042   5.753   0.917  12.643  1.0879 -1.0706  1.8480
19851TIP3   OH281043   5.294   5.933   0.595  0.3029  0.1837 -0.4267
19851TIP3    H181044   5.280   5.996   0.524 -0.9066  1.5678  1.0021
19851TIP3    H281045   5.387   5.943   0.617  0.0355  1.8036  0.0717
19852TIP3   OH281046   2.695   1.873   3.144 -0.1789  0.8316 -0.4636
19852TIP3    H181047   2.637   1.815   3.094  1.8879 -1.0830 -0.6907
19852TIP3    H281048   2.676   1.854   3.235 -0.3407  0.6730 -0.5305
19853TIP3   OH281049   6.105   4.702  16.180 -0.0940 -0.3732  0.1628
19853TIP3    H181050   6.183   4.751  16.208 -0.5003  0.1763  0.3510
19853TIP3    H281051   6.032   4.760  16.201 -0.4380 -0.0810 -1.7489
19854TIP3   OH281052   5.544   6.686  11.852  0.2435  0.1644 -0.3215
19854TIP3    H181053   5.486   6.618  11.885 -2.2697  2.4822  0.2230
19854TIP3    H281054   5.592   6.644  11.781 -2.2797 -1.7522 -0.9609
19855TIP3   OH281055   0.810   3.047  13.339 -0.0492 -0.6716 -0.1855
19855TIP3    H181056   0.764   3.056  13.256  0.0953 -0.4711 -0.2445
19855TIP3    H281057   0.866   2.971  13.328 -1.0548 -1.4758  0.2072
19856TIP3   OH281058   0.865   3.339  13.767 -1.3206  0.3882  0.5282
19856TIP3    H181059   0.831   3.309  13.851  0.7230  0.4101  1.3816
19856TIP3    H281060   0.860   3.262  13.710 -0.8569 -0.1711  1.2395
19857TIP3   OH281061   2.924   0.416  10.875  0.2648  0.3532 -0.5554
19857TIP3    H181062   2.923   0.511  10.883  0.9371  0.2133  1.8046
19857TIP3    H281063   3.016   0.392  10.888 -0.3631 -0.8016  2.1472
19858TIP3   OH281064   4.796   5.874   0.535 -0.4968 -0.0183 -0.1760
19858TIP3    H181065   4.878   5.888   0.582 -0.9091  1.4031  0.1610
19858TIP3    H281066   4.730   5.867   0.603 -0.7860 -0.2355 -0.4777
19859TIP3   OH281067   1.468   0.456   3.897  0.0583 -0.1465 -0.3253
19859TIP3    H181068   1.453   0.533   3.842  2.4591  0.2209 -0.5156
19859TIP3    H281069   1.456   0.382   3.839  1.4618  0.2038 -1.0596
19860TIP3   OH281070   4.256   5.376  16.055  0.2432 -0.3888 -0.5959
19860TIP3    H181071   4.314   5.307  16.023  0.4982 -0.0028 -0.9692
19860TIP3    H281072   4.229   5.424  15.976  0.4524  0.2363 -0.2894
19861TIP3   OH281073   0.218   0.104  14.938  0.1376  0.0502 -0.4648
19861TIP3    H181074   0.155   0.075  15.003  1.4468 -0.1415  0.7381
19861TIP3    H281075   0.242   0.025  14.890  1.2967 -0.3257  0.7035
19862TIP3   OH281076   4.031   4.299   5.251 -0.3128  0.4936  0.0841
19862TIP3    H181077   4.048   4.356   5.175 -1.1651 -0.4138 -0.8062
19862TIP3    H281078   3.939   4.276   5.243  0.3122 -2.0436 -0.3214
19863TIP3   OH281079   4.408   5.437   2.611  0.3613  0.0380 -0.2779
19863TIP3    H181080   4.325   5.454   2.657  0.3677 -0.8217  0.0500
19863TIP3    H281081   4.463   5.393   2.676  1.0169  0.4368 -0.5543
19864TIP3   OH281082   6.333   6.377   2.796 -0.2670 -0.8666  0.0910
19864TIP3    H181083   6.238   6.379   2.798 -0.2463 -0.8413  1.0600
19864TIP3    H281084   6.356   6.403   2.706 -1.1154  0.9557  0.3788
19865TIP3   OH281085   2.519   0.723   1.306  0.2581  0.8626  0.2312
19865TIP3    H181086   2.488   0.661   1.372 -0.6285 -0.3423 -1.2865
19865TIP3    H281087   2.610   0.696   1.288  0.0934  0.4135  0.0618
19866TIP3   OH281088   6.264   1.878  13.852 -0.6445  0.7332  0.0577
19866TIP3    H181089   6.189   1.931  13.880 -2.1593 -1.3599  0.1361
19866TIP3    H281090   6.318   1.870  13.930  0.4622  3.5039 -0.3833
19867TIP3   OH281091   6.001   6.090  17.088 -0.4407 -0.4533 -0.1967
19867TIP3    H181092   6.036   6.134  17.010  1.0953  1.1011  1.3292
19867TIP3    H281093   6.056   6.012  17.097  0.0431 -0.1092 -0.1089
19868TIP3   OH281094   1.805   1.506  12.931  0.2126  0.0007  0.3112
19868TIP3    H181095   1.851   1.430  12.965 -0.3497 -0.1298  0.7767
19868TIP3    H281096   1.713   1.490  12.952  0.4532  2.4373  3.5724
19869TIP3   OH281097   1.069   1.838  14.095 -0.0598 -0.3957  0.9822
19869TIP3    H181098   1.018   1.915  14.120 -0.4189 -0.0717 -0.6992
19869TIP3    H281099   1.058   1.778  14.169 -1.6434  0.2644  1.3137
19870TIP3   OH281100   2.703   5.923  14.299 -0.1526  0.3120  0.0367
19870TIP3    H181101   2.689   5.930  14.205 -2.2577 -1.2239  0.1949
19870TIP3    H281102   2.729   5.832  14.313 -1.1368  0.1759  1.0773
19871TIP3   OH281103   3.244   4.004   2.498  0.3672  0.0392  0.1241
19871TIP3    H181104   3.204   4.082   2.537  1.3429  1.4020 -1.5433
19871TIP3    H281105   3.173   3.962   2.449  0.2187  0.7211 -0.2405
19872TIP3   OH281106   3.451   4.064  17.227  0.1773 -0.6723  0.2471
19872TIP3    H181107   3.452   4.146  17.277  0.9297 -0.9011  0.6115
19872TIP3    H281108   3.510   4.079  17.154 -0.1889 -0.6673 -0.0496
19873TIP3   OH281109   1.301   4.587   3.882 -0.4620 -0.2396 -0.0496
19873TIP3    H181110   1.352   4.509   3.902 -0.4337  0.4111  2.5380
19873TIP3    H281111   1.212   4.555   3.868 -0.3614 -0.7752  0.5245
19874TIP3   OH281112   4.535   5.967   0.731  0.3141 -0.0939  0.4128
19874TIP3    H181113   4.570   5.882   0.704  0.3806  0.2261 -0.5196
19874TIP3    H281114   4.499   5.952   0.819 -0.0556 -1.1781  0.0766
19875TIP3   OH281115   2.690   3.437  16.367  0.1222  0.0801 -0.0008
19875TIP3    H181116   2.751   3.370  16.401  1.0997  0.6198 -0.6796
19875TIP3    H281117   2.632   3.455  16.441  2.8556  1.9816  1.8086
19876TIP3   OH281118   5.622   1.639  14.671 -0.0736 -1.1977 -0.2055
19876TIP3    H181119   5.591   1.657  14.582  1.1734 -2.4079 -0.8993
19876TIP3    H281120   5.694   1.578  14.660  1.4158  0.1943  1.5114
19877TIP3   OH281121   1.118   5.204   4.895  1.0095 -0.9975 -0.1851
19877TIP3    H181122   1.205   5.183   4.927  2.0476 -1.4212 -3.0873
19877TIP3    H281123   1.083   5.120   4.863 -1.1979 -1.1703  2.5330
19878TIP3   OH281124   4.009   4.716  12.792  0.0574  0.1529 -0.8005
19878TIP3    H181125   4.004   4.677  12.704 -0.8834  1.4668 -1.3416
19878TIP3    H281126   3.936   4.678  12.840 -0.6477  0.9654 -1.2187
19879TIP3   OH281127   3.354   6.727  14.258 -0.3130  0.0772  0.3523
19879TIP3    H181128   3.412   6.651  14.257 -0.4990 -0.0802  1.4110
19879TIP3    H281129   3.270   6.692  14.289 -0.3480  0.7501  1.0248
19880TIP3   OH281130   6.545   1.324  17.137 -0.1300  0.5107 -0.0240
19880TIP3    H181131   6.625   1.302  17.184  0.1429  4.2227  1.4239
19880TIP3    H281132   6.487   1.361  17.203 -0.0831  4.9978 -2.2742
19881TIP3   OH281133   4.802   4.678  17.025 -0.3566  0.7266 -0.8554
19881TIP3    H181134   4.733   4.744  17.011  1.2662  2.4406 -0.9707
19881TIP3    H281135   4.780   4.608  16.964 -1.8718  1.3632 -1.0686
19882TIP3   OH281136   0.957   4.495  12.069 -0.1514 -0.4686 -0.0776
19882TIP3    H181137   0.971   4.433  11.997  1.4525 -0.4145  0.1792
19882TIP3    H281138   1.045   4.518  12.099 -0.8147 -1.2094  2.5570
19883TIP3   OH281139   1.162   2.158  13.942 -0.0958 -0.1238  0.1562
19883TIP3    H181140   1.080   2.132  13.984 -0.2270 -0.3087 -0.2189
19883TIP3    H281141   1.179   2.089  13.878  0.2190  0.0498  0.0538
19884TIP3   OH281142   2.604   2.501  12.306  0.5364 -0.5844 -0.0029
19884TIP3    H181143   2.601   2.513  12.400 -1.6799 -1.6006  0.1055
19884TIP3    H281144   2.568   2.582  12.270  1.0230 -0.3494  0.0413
19885TIP3   OH281145   1.547   0.552  15.391 -0.4553  0.0323 -0.0831
19885TIP3    H181146   1.554   0.457  15.391  1.6209  0.1527 -1.4870
19885TIP3    H281147   1.563   0.577  15.482  1.7053 -0.8194 -0.2032
19886TIP3   OH281148   1.686   3.602  17.015 -0.4089  0.2044  0.0828
19886TIP3    H181149   1.654   3.692  17.027  0.0024  0.3833 -0.1554
19886TIP3    H281150   1.625   3.563  16.953 -0.3023  0.4766 -0.1958
19887TIP3   OH281151   2.239   3.316  10.119  0.4561  0.2878  0.8730
19887TIP3    H181152   2.160   3.357  10.083  0.2282  1.0800  2.2156
19887TIP3    H281153   2.297   3.389  10.139  1.0841 -0.2202  0.9206
19888TIP3   OH281154   3.880   5.552   0.667 -0.5758  0.1559 -0.2542
19888TIP3    H181155   3.850   5.537   0.578  0.4282  1.1937 -0.7859
19888TIP3    H281156   3.848   5.640   0.689 -0.2901  0.1562  0.1711
19889TIP3   OH281157   4.282   1.193   5.815  0.0398 -0.0742 -0.0012
19889TIP3    H181158   4.212   1.255   5.794  0.3997  0.5706  0.6769
19889TIP3    H281159   4.294   1.203   5.910  0.0291 -1.2511  0.1317
19890TIP3   OH281160   5.170   0.500   2.704 -0.2722 -0.5713 -0.1214
19890TIP3    H181161   5.224   0.421   2.709 -0.3660 -0.6175  0.1937
19890TIP3    H281162   5.203   0.548   2.628 -0.4443 -1.0827 -0.5149
19891TIP3   OH281163   3.509   0.577   1.107 -0.1517  0.1829  0.2096
19891TIP3    H181164   3.568   0.643   1.071 -0.1074  0.6758  1.1801
19891TIP3    H281165   3.436   0.627   1.144 -1.4196 -0.4332 -1.3776
19892TIP3   OH281166   0.338   1.936   3.200 -0.6030 -0.3260  0.1363
19892TIP3    H181167   0.394   1.873   3.155 -0.3321  0.0146 -0.0010
19892TIP3    H281168   0.362   2.021   3.163  0.1176  0.0458  1.4225
19893TIP3   OH281169   2.237   0.627  13.204 -0.6500  0.0061 -0.2056
19893TIP3    H181170   2.257   0.536  13.182 -1.7962 -0.7408  1.7556
19893TIP3    H281171   2.265   0.636  13.296 -0.8312  1.5451 -0.2890
19894TIP3   OH281172   4.152   2.871   5.127  0.3123 -0.4972  0.3156
19894TIP3    H181173   4.152   2.875   5.031 -1.6170  0.3488  0.3342
19894TIP3    H281174   4.207   2.945   5.154  0.7128 -0.6274 -0.1224
19895TIP3   OH281175   2.123   1.123  15.951  0.4274  0.6108 -0.2440
19895TIP3    H181176   2.118   1.072  15.870  0.1623  1.3882 -0.7330
19895TIP3    H281177   2.169   1.203  15.925  0.7663  0.6535  0.4896
19896TIP3   OH281178   2.852   1.790  13.661 -0.3091 -0.5456  0.4156
19896TIP3    H181179   2.797   1.856  13.616 -1.7446 -0.0106  2.8727
19896TIP3    H281180   2.798   1.760  13.734  1.3643 -2.5936  0.8495
19897TIP3   OH281181   5.117   1.849  14.306  0.3462 -0.4156 -0.0277
19897TIP3    H181182   5.039   1.905  14.315  0.4789 -0.4909  1.8797
19897TIP3    H281183   5.188   1.900  14.344  0.8110 -1.2025  0.1834
19898TIP3   OH281184   5.442   4.457   0.724 -0.6326 -0.5654  0.0497
19898TIP3    H181185   5.408   4.504   0.647  0.1527  0.4907  0.3380
19898TIP3    H281186   5.414   4.510   0.799 -2.3110 -2.1535  0.5743
19899TIP3   OH281187   6.593   4.043  12.089 -0.7343  0.6664 -0.0668
19899TIP3    H181188   6.640   4.052  12.006 -0.9611 -1.2855 -0.4146
19899TIP3    H281189   6.589   4.133  12.123 -0.7856  1.5146 -2.2273
19900TIP3   OH281190   2.129   4.978  14.910  0.1338  0.5149 -0.2034
19900TIP3    H181191   2.197   4.966  14.843  0.5256 -0.3245  0.3227
19900TIP3    H281192   2.063   4.912  14.889  0.8099 -0.5345  0.8992
19901TIP3   OH281193   0.099   5.973   1.709  0.3297 -0.5552 -0.4144
19901TIP3    H181194   0.091   5.957   1.803  2.4670 -2.2833 -0.4693
19901TIP3    H281195   0.188   5.943   1.688  0.2497  0.7761 -2.7941
19902TIP3   OH281196   0.965   4.698  13.138 -0.1555 -0.3920 -0.0826
19902TIP3    H181197   0.954   4.641  13.214  0.6551  0.8565  0.9663
19902TIP3    H281198   0.939   4.785  13.168  1.7590  0.4406 -0.7541
19903TIP3   OH281199   6.413   0.909  13.425 -0.0950 -0.4232  0.1056
19903TIP3    H181200   6.435   0.985  13.478 -0.0622 -0.8615  0.7291
19903TIP3    H281201   6.450   0.835  13.473 -0.9020 -0.9218 -0.0295
19904TIP3   OH281202   4.564   1.748  17.200  0.4994 -0.3300  0.0769
19904TIP3    H181203   4.570   1.839  17.228  0.2011  0.6329 -2.8601
19904TIP3    H281204   4.645   1.708  17.233  1.2246  1.2960  0.3293
19905TIP3   OH281205   2.710   6.275  16.863 -0.0387 -0.1234  0.1232
19905TIP3    H181206   2.788   6.255  16.914  0.8457  0.7087 -0.8713
19905TIP3    H281207   2.691   6.367  16.882 -0.1855 -0.0417 -0.3882
19906TIP3   OH281208   2.672   3.296  11.793  0.4928 -0.0750  0.9327
19906TIP3    H181209   2.609   3.230  11.823 -1.1458  1.2777  0.5210
19906TIP3    H281210   2.700   3.341  11.872  0.2328 -0.0404  1.0028
19907TIP3   OH281211   3.816   6.122  12.193  0.1582 -0.1054  0.0208
19907TIP3    H181212   3.858   6.161  12.269  0.4888  0.3183 -0.3775
19907TIP3    H281213   3.852   6.170  12.118  1.3235 -1.8319 -0.5461
19908TIP3   OH281214   1.952   4.624  11.392  0.1425  0.0051  0.0947
19908TIP3    H181215   2.013   4.581  11.332 -2.0010  1.8845 -3.5862
19908TIP3    H281216   1.876   4.565  11.395  0.4487 -0.3572  1.5155
19909TIP3   OH281217   6.636   1.297  14.041 -0.0490 -0.5775  0.1278
19909TIP3    H181218   6.610   1.378  13.998 -1.3835 -0.6208  0.8252
19909TIP3    H281219   6.724   1.313  14.073  0.5496 -0.1753 -1.6924
19910TIP3   OH281220   3.522   1.102  17.102  0.2280  0.0846 -0.4652
19910TIP3    H181221   3.498   1.035  17.038  1.2317 -1.1464  0.4092
19910TIP3    H281222   3.616   1.115  17.090  0.6100 -0.7973  1.2984
19911TIP3   OH281223   2.045   3.493   0.485 -0.0738  0.0040 -0.4210
19911TIP3    H181224   1.981   3.474   0.554 -0.5102  0.7510 -0.6129
19911TIP3    H281225   2.095   3.567   0.519 -0.0221  0.1122 -0.7327
19912TIP3   OH281226   0.910   4.918  13.277 -0.0537  0.7702  0.5640
19912TIP3    H181227   0.817   4.906  13.295  0.2949 -2.0099  0.7528
19912TIP3    H281228   0.953   4.904  13.362  0.6271  0.8950  0.2431
19913TIP3   OH281229   1.802   5.911   3.859  0.2613  0.6323  0.0687
19913TIP3    H181230   1.780   5.820   3.877  0.0028  0.4037 -1.2983
19913TIP3    H281231   1.732   5.963   3.899 -2.1991 -0.0124 -3.1733
19914TIP3   OH281232   0.525   3.620  13.580 -0.1932 -0.0481  0.0108
19914TIP3    H181233   0.513   3.526  13.580  0.4826 -0.1390  0.4221
19914TIP3    H281234   0.584   3.637  13.506 -0.4647  0.0708 -0.1793
19915TIP3   OH281235   6.819   1.817   2.473  0.3997 -0.1210 -0.0561
19915TIP3    H181236   6.867   1.899   2.476 -1.4311  0.9511  1.5174
19915TIP3    H281237   6.880   1.752   2.507  1.3444  0.8801  0.1835
19916TIP3   OH281238   3.816   4.983   0.156 -0.3220 -0.3440 -0.3724
19916TIP3    H181239   3.873   4.973   0.080 -1.3793  0.8584 -1.3738
19916TIP3    H281240   3.731   5.007   0.118 -0.3084  2.6065  1.2720
19917TIP3   OH281241   2.560   4.103  13.920 -0.3097 -0.2738  0.2050
19917TIP3    H181242   2.510   4.174  13.959 -1.5632 -0.4037 -1.1165
19917TIP3    H281243   2.569   4.127  13.827 -0.0460 -1.4268 -0.0831
19918TIP3   OH281244   2.467   5.661  12.976  0.1450  0.6421 -0.2875
19918TIP3    H181245   2.414   5.621  12.907  1.1626  1.7879 -1.7639
19918TIP3    H281246   2.405   5.712  13.028 -0.7307 -0.7342  0.0394
19919TIP3   OH281247   4.561   1.027  13.503  0.2342 -0.3481  0.3608
19919TIP3    H181248   4.565   0.998  13.412  1.6913 -2.4516  1.0511
19919TIP3    H281249   4.594   1.116  13.501  0.1773 -0.3474 -1.1932
19920TIP3   OH281250   5.537   3.133   3.114 -0.0380 -0.4617  0.2525
19920TIP3    H181251   5.528   3.161   3.023 -0.3743  2.0359  0.9976
19920TIP3    H281252   5.630   3.111   3.123  1.0903  3.8807  0.4406
19921TIP3   OH281253   5.422   3.475   2.929  0.3942  0.6882 -0.8421
19921TIP3    H181254   5.477   3.509   3.000 -0.7343 -1.3357  1.0633
19921TIP3    H281255   5.345   3.532   2.930 -0.1302 -0.0188  0.3452
19922TIP3   OH281256   0.780   5.783   5.310 -0.4551  0.0773  0.1378
19922TIP3    H181257   0.821   5.800   5.225 -0.1786  1.5593  0.5439
19922TIP3    H281258   0.690   5.812   5.300 -0.6561 -0.5594  0.0911
19923TIP3   OH281259   3.028   2.130   0.073  0.4389  0.3663 -0.0885
19923TIP3    H181260   3.065   2.169  -0.006  0.3651  0.3360 -0.1376
19923TIP3    H281261   3.083   2.053   0.088  0.4357  0.3559 -0.1269
19924TIP3   OH281262   0.849   0.087   0.583  0.0176  0.0937 -0.5664
19924TIP3    H181263   0.798   0.009   0.602  0.3433  0.4977  2.1727
19924TIP3    H281264   0.851   0.135   0.666  2.5990  1.3725 -1.3265
19925TIP3   OH281265   1.209   6.001   2.198  0.3450  0.1390 -0.5170
19925TIP3    H181266   1.152   5.964   2.265  4.0426 -3.8766  0.6705
19925TIP3    H281267   1.178   5.961   2.116 -1.1515  1.3499 -0.5793
19926TIP3   OH281268   6.805   3.450  16.692 -0.5239  0.0445 -0.2766
19926TIP3    H181269   6.814   3.414  16.604 -1.7805 -0.0989 -0.3605
19926TIP3    H281270   6.894   3.474  16.718 -0.1319 -0.0134 -1.5405
19927TIP3   OH281271   5.222   6.426  13.605 -0.1053  0.5087 -0.2786
19927TIP3    H181272   5.138   6.452  13.641 -0.9052 -0.9898 -1.0085
19927TIP3    H281273   5.218   6.454  13.513 -0.1111 -0.1999 -0.5005
19928TIP3   OH281274   4.167   4.026  13.675 -0.1598 -0.0857  0.4757
19928TIP3    H181275   4.105   3.991  13.738 -1.0418 -1.6402 -1.2037
19928TIP3    H281276   4.252   3.994  13.704 -0.5163 -0.4935  1.0620
19929TIP3   OH281277   1.868   1.666   5.058  0.4796 -0.1652  0.2355
19929TIP3    H181278   1.951   1.708   5.083  0.2060  0.5519 -0.0413
19929TIP3    H281279   1.875   1.577   5.093  0.2985  0.6620  2.4552
19930TIP3   OH281280   4.747   3.145  16.517 -0.6035  0.0941  0.1310
19930TIP3    H181281   4.773   3.063  16.475  0.6354  0.5242  0.0443
19930TIP3    H281282   4.686   3.118  16.586  1.7556 -1.1902  1.7889
19931TIP3   OH281283   6.629   5.167  16.831 -0.7027 -0.1743 -0.8430
19931TIP3    H181284   6.703   5.219  16.860 -1.8487  0.8861  0.2606
19931TIP3    H281285   6.665   5.080  16.815  0.9138  0.5170 -1.0971
19932TIP3   OH281286   0.376   6.746  14.496 -0.4739 -0.0230  0.2513
19932TIP3    H181287   0.431   6.693  14.553 -0.4895  0.2046  0.4784
19932TIP3    H281288   0.322   6.682  14.449 -0.4156 -0.2130  0.4426
19933TIP3   OH281289   5.627   1.960  15.635 -0.1959  0.1236  0.1837
19933TIP3    H181290   5.671   1.911  15.704  0.0933  0.0085 -0.0791
19933TIP3    H281291   5.557   2.007  15.680 -0.3116 -0.3247  0.4789
19934TIP3   OH281292   1.976   5.622  14.391  0.1240  0.7358 -0.0706
19934TIP3    H181293   2.050   5.679  14.370  0.3898  0.6825  0.7235
19934TIP3    H281294   1.944   5.593  14.306  0.9706  0.8254 -0.4256
19935TIP3   OH281295   5.291   4.644   2.161  0.0029 -0.1023  0.8516
19935TIP3    H181296   5.308   4.625   2.253 -0.8137  0.2074  1.0733
19935TIP3    H281297   5.320   4.565   2.114 -1.2171 -0.9989  1.5471
19936TIP3   OH281298   2.364   4.896   2.022  0.1209 -0.9540 -0.7778
19936TIP3    H181299   2.367   4.830   2.091  0.4349  0.7147  0.8260
19936TIP3    H281300   2.361   4.980   2.068 -0.0714  0.1764 -2.7828
19937TIP3   OH281301   0.116   6.768  15.941  0.0503 -0.0158 -0.1314
19937TIP3    H181302   0.137   6.761  16.034 -1.8433 -0.5467  0.2795
19937TIP3    H281303   0.035   6.718  15.931 -0.5529  1.2574 -1.8034
19938TIP3   OH281304   5.489   0.537   3.127 -0.1798 -0.6983 -0.1611
19938TIP3    H181305   5.549   0.490   3.184  0.9143 -0.2874 -0.9656
19938TIP3    H281306   5.449   0.469   3.072  4.2502 -0.4064 -4.0147
19939TIP3   OH281307   3.532   3.977   2.528  0.7415  0.2924 -0.0019
19939TIP3    H181308   3.589   3.972   2.451  0.7904 -1.1615  0.1103
19939TIP3    H281309   3.444   3.969   2.494  0.4044  4.7106 -0.3990
19940TIP3   OH281310   5.010   4.496  11.313 -0.4246  0.5744 -0.3192
19940TIP3    H181311   5.035   4.588  11.301 -0.9862  0.5258 -2.0018
19940TIP3    H281312   4.982   4.491  11.404 -2.6459  2.6643 -0.8124
19941TIP3   OH281313   6.163   1.767  15.272 -0.0680  0.1185 -0.0231
19941TIP3    H181314   6.160   1.791  15.365  0.2049  0.0079  0.0169
19941TIP3    H281315   6.081   1.721  15.256  0.7728 -1.6932  0.6902
19942TIP3   OH281316   1.582   5.405  13.917  0.2268  0.7256  0.7565
19942TIP3    H181317   1.609   5.352  13.992  0.4777  0.1215  0.2457
19942TIP3    H281318   1.556   5.489  13.955 -0.6937  0.0617  1.6310
19943TIP3   OH281319   1.919   3.732   2.456  0.3017 -0.2775 -1.0107
19943TIP3    H181320   1.937   3.649   2.411  1.7551  0.3521 -1.6260
19943TIP3    H281321   1.978   3.732   2.531 -1.0259 -0.6261  0.0552
19944TIP3   OH281322   6.424   1.728  12.116  0.4416  0.3523  0.4666
19944TIP3    H181323   6.366   1.656  12.092  1.9258 -0.3419 -1.1532
19944TIP3    H281324   6.440   1.775  12.035 -1.4598  3.2909  1.7108
19945TIP3   OH281325   5.662   1.047   3.776  0.5288 -0.3556  0.2113
19945TIP3    H181326   5.664   0.973   3.715  2.9919 -1.4452  1.5135
19945TIP3    H281327   5.606   1.018   3.848 -0.5911  0.0599 -0.4950
19946TIP3   OH281328   5.255   1.426  12.010  0.2243 -0.6429  0.4450
19946TIP3    H181329   5.335   1.461  12.048 -0.2802  0.1601  0.7914
19946TIP3    H281330   5.238   1.481  11.934 -0.1653 -0.6026  0.5571
19947TIP3   OH281331   0.147   6.683  14.017 -0.0902  0.2881  0.3456
19947TIP3    H181332   0.162   6.598  13.978 -0.3496  0.6953 -0.6511
19947TIP3    H281333   0.235   6.717  14.035 -0.0020 -0.4642  1.3629
19948TIP3   OH281334   4.912   2.517  11.937  0.4454 -0.4482  0.2927
19948TIP3    H181335   4.891   2.589  11.997  0.0798 -0.4666  0.1916
19948TIP3    H281336   4.883   2.438  11.984 -1.9568 -0.2953 -0.8150
19949TIP3   OH281337   0.173   3.776   0.332 -0.2764 -0.4346 -0.2392
19949TIP3    H181338   0.191   3.684   0.351  2.0281 -0.0992 -0.7462
19949TIP3    H281339   0.252   3.808   0.288 -1.5942  1.4277 -1.3402
19950TIP3   OH281340   3.339   6.593   2.817  1.2667  0.1813 -0.2278
19950TIP3    H181341   3.330   6.592   2.722  0.7822 -0.8613 -0.1832
19950TIP3    H281342   3.376   6.507   2.838  1.5348  0.4746  0.5142
19951TIP3   OH281343   3.791   5.553  13.316 -0.0796  0.2150  0.6051
19951TIP3    H181344   3.774   5.511  13.231  1.1324 -0.0810  0.4935
19951TIP3    H281345   3.850   5.492  13.361 -0.7481  0.3567  1.6838
19952TIP3   OH281346   2.525   2.407  15.537 -0.1326  0.1916  0.0274
19952TIP3    H181347   2.585   2.388  15.465 -1.3915 -0.2533 -0.9198
19952TIP3    H281348   2.441   2.425  15.494 -1.3198 -1.7783  1.4645
19953TIP3   OH281349   4.857   2.405  12.199  0.5123  0.2618  0.5487
19953TIP3    H181350   4.822   2.477  12.251  0.5774 -0.5021  1.6817
19953TIP3    H281351   4.806   2.329  12.228 -1.1978  0.2532 -2.3141
19954TIP3   OH281352   3.707   0.580   3.428  0.0273 -0.5851  0.4708
19954TIP3    H181353   3.794   0.601   3.462  0.5182 -1.0590 -0.4903
19954TIP3    H281354   3.711   0.601   3.335 -0.9812 -0.3226  0.4783
19955TIP3   OH281355   6.446   5.971   3.061 -1.2916 -0.1088 -0.1692
19955TIP3    H181356   6.424   5.951   3.152 -0.7853  0.9616  0.1897
19955TIP3    H281357   6.528   5.925   3.045 -2.1077 -1.4655 -0.5284
19956TIP3   OH281358   5.565   0.689  13.298  0.3471  0.1290  0.2710
19956TIP3    H181359   5.640   0.693  13.357 -1.4245  0.6441  2.5997
19956TIP3    H281360   5.586   0.749  13.227  1.9395  0.5954  1.1158
19957TIP3   OH281361   6.733   3.340  12.514 -0.4759 -0.3592 -0.4713
19957TIP3    H181362   6.712   3.409  12.576 -1.1308 -0.4653 -0.5698
19957TIP3    H281363   6.747   3.262  12.568  2.2527  0.2721 -0.1861
19958TIP3   OH281364   5.141   5.526   3.342 -0.4016 -0.1939  0.1988
19958TIP3    H181365   5.064   5.486   3.300  0.3732 -0.7332 -0.7212
19958TIP3    H281366   5.186   5.453   3.384  1.5088 -0.4554 -2.2490
19959TIP3   OH281367   2.681   0.927  12.230 -0.1736  0.3492  0.1919
19959TIP3    H181368   2.643   1.005  12.188  0.3546 -0.7236 -2.4101
19959TIP3    H281369   2.605   0.880  12.264 -0.7140  0.8361 -0.3121
19960TIP3   OH281370   1.181   1.694   1.691  0.0683 -0.2485 -0.1957
19960TIP3    H181371   1.122   1.663   1.760 -1.9225  0.5823 -1.4645
19960TIP3    H281372   1.182   1.789   1.700  0.6897 -0.2082 -0.6070
19961TIP3   OH281373   0.268   6.649  16.802 -0.2855  0.6252 -0.1879
19961TIP3    H181374   0.296   6.741  16.796  0.0271  0.4789 -1.0572
19961TIP3    H281375   0.350   6.599  16.801 -0.4767  0.3125 -0.2016
19962TIP3   OH281376   0.060   5.970   0.405 -0.1136  0.1772 -0.2033
19962TIP3    H181377   0.082   6.056   0.441  2.3140 -0.8361  0.8312
19962TIP3    H281378   0.079   5.909   0.476  0.0103 -1.3985 -1.5742
19963TIP3   OH281379   3.640   2.811   2.484  0.2757 -0.0919  0.0722
19963TIP3    H181380   3.584   2.777   2.413  1.2137  0.4903 -0.9665
19963TIP3    H281381   3.726   2.822   2.443  1.4359 -1.9673  1.9385
19964TIP3   OH281382   4.720   1.539  11.176  0.7090 -0.0871  0.4545
19964TIP3    H181383   4.637   1.566  11.136  0.8323 -0.2649  0.0821
19964TIP3    H281384   4.780   1.528  11.102  0.8239 -0.8229  0.6556
19965TIP3   OH281385   1.109   4.818  15.979 -0.0906  0.1483 -0.2387
19965TIP3    H181386   1.056   4.873  16.037  0.1653 -0.4301  0.5527
19965TIP3    H281387   1.198   4.825  16.014  0.1245  0.0711 -0.7694
19966TIP3   OH281388   1.502   2.559  14.002 -0.6224 -0.1162  0.0043
19966TIP3    H181389   1.563   2.528  14.069  0.1472  0.2871 -0.4894
19966TIP3    H281390   1.514   2.499  13.928  1.5762  1.8569 -1.3124
19967TIP3   OH281391   2.003   4.408   3.872  0.8198  0.5131 -0.1428
19967TIP3    H181392   1.966   4.410   3.960  1.6500  4.6001  0.1966
19967TIP3    H281393   1.929   4.429   3.815  1.1068  1.7659 -0.0634
19968TIP3   OH281394   6.391   4.988  16.070 -0.5319 -0.1126  0.3515
19968TIP3    H181395   6.379   5.035  15.987  0.2360 -0.2244  0.1689
19968TIP3    H281396   6.382   4.896  16.047 -3.6446 -0.0000  1.0022
19969TIP3   OH281397   0.490   2.274  16.675 -0.1657  0.3942  0.6101
19969TIP3    H181398   0.552   2.259  16.604 -0.7492 -2.3825  0.6450
19969TIP3    H281399   0.526   2.226  16.750 -2.7369 -2.0908  0.3797
19970TIP3   OH281400   0.865   1.747  11.228 -0.2776  0.6511 -0.0407
19970TIP3    H181401   0.846   1.713  11.141  0.0979 -3.0415  1.2418
19970TIP3    H281402   0.792   1.718  11.282  1.4313 -0.5688  1.6935
19971TIP3   OH281403   1.209   1.389   4.160  0.9197  0.3337  0.6381
19971TIP3    H181404   1.295   1.367   4.124  0.5823 -0.2456  0.1729
19971TIP3    H281405   1.153   1.397   4.083  0.4484  0.2183  0.9693
19972TIP3   OH281406   4.191   3.642   1.909 -0.7332 -0.4595  0.4941
19972TIP3    H181407   4.223   3.725   1.944 -0.6279 -0.4358  0.3437
19972TIP3    H281408   4.130   3.668   1.839 -0.7598 -0.5069  0.4998
19973TIP3   OH281409   0.258   2.807   3.214  0.2518 -0.3712  0.3628
19973TIP3    H181410   0.186   2.764   3.260 -2.3225  3.2683 -0.0202
19973TIP3    H281411   0.225   2.819   3.125  2.0496 -0.2078 -0.3028
19974TIP3   OH281412   2.111   1.623  15.026  0.3116 -0.3865 -0.5092
19974TIP3    H181413   2.193   1.670  15.013  0.6517 -0.9195 -0.3133
19974TIP3    H281414   2.132   1.555  15.089 -0.8202  0.8648  1.2729
19975TIP3   OH281415   3.088   2.548   3.587  0.0690  0.2171  0.1128
19975TIP3    H181416   3.105   2.628   3.635 -1.4332  0.9780 -0.5994
19975TIP3    H281417   3.007   2.514   3.624 -0.5746  0.2961 -1.2158
19976TIP3   OH281418   1.201   0.183  11.961 -0.6784 -0.2143  0.1877
19976TIP3    H181419   1.227   0.098  11.997 -0.1578  0.3779  1.2467
19976TIP3    H281420   1.125   0.209  12.013 -1.7088 -0.6594 -1.0628
19977TIP3   OH281421   5.529   1.756  12.517  0.6918  0.6392  0.2675
19977TIP3    H181422   5.498   1.821  12.580  0.8280 -0.3993  1.4244
19977TIP3    H281423   5.623   1.770  12.511  0.8883 -0.1584  1.3542
19978TIP3   OH281424   6.551   5.388   1.907  0.0928  0.5352 -0.1408
19978TIP3    H181425   6.510   5.441   1.975  0.5356 -0.2557  0.7589
19978TIP3    H281426   6.501   5.306   1.907 -1.1374  1.2448 -2.1061
19979TIP3   OH281427   2.471   2.695  12.142 -0.5163 -0.3057 -0.1475
19979TIP3    H181428   2.428   2.638  12.079 -0.6782 -0.3769  0.0278
19979TIP3    H281429   2.406   2.763  12.161 -0.1695  0.1695 -0.6730
19980TIP3   OH281430   0.526   5.812  10.722 -0.1764  0.2856 -0.1500
19980TIP3    H181431   0.524   5.826  10.628  0.3049 -2.5856 -0.6563
19980TIP3    H281432   0.436   5.825  10.751 -0.7204 -0.7416 -1.3429
19981TIP3   OH281433   6.343   4.281   0.492  0.1460  0.5146 -0.1574
19981TIP3    H181434   6.270   4.254   0.438 -0.0274 -0.4551  0.5550
19981TIP3    H281435   6.405   4.209   0.488 -0.4825 -0.1891  2.0352
19982TIP3   OH281436   3.360   5.667   0.013 -0.2923 -0.3011 -0.9902
19982TIP3    H181437   3.395   5.737  -0.042 -0.3387  1.2178  0.8642
19982TIP3    H281438   3.426   5.598   0.009  1.4216  1.2294 -0.1348
19983TIP3   OH281439   2.931   0.606   5.371 -0.6145 -0.2941 -0.0778
19983TIP3    H181440   2.963   0.677   5.427 -0.6723 -0.9106  0.7512
19983TIP3    H281441   2.997   0.598   5.302 -0.0043 -0.2240  0.4920
19984TIP3   OH281442   4.530   3.129   1.251 -0.1569 -0.3232  0.4119
19984TIP3    H181443   4.511   3.183   1.175 -0.6531  0.0059  0.7687
19984TIP3    H281444   4.605   3.172   1.293  0.4098 -0.7565 -0.1314
19985TIP3   OH281445   5.606   2.721   4.462  0.5534  0.4184  0.1637
19985TIP3    H181446   5.625   2.808   4.427 -1.9315  0.9054 -0.0522
19985TIP3    H281447   5.607   2.663   4.385  0.1777  0.6166  0.0081
19986TIP3   OH281448   5.164   4.521  14.802  0.4722 -0.7031 -0.3834
19986TIP3    H181449   5.143   4.580  14.874  0.6034  0.0319 -0.9443
19986TIP3    H281450   5.260   4.517  14.802  0.5221  0.4542 -1.4470
19987TIP3   OH281451   6.555   0.215  16.338 -0.0554  0.0936  0.0989
19987TIP3    H181452   6.560   0.170  16.423 -2.3072  1.0056  0.7468
19987TIP3    H281453   6.519   0.149  16.278 -0.0699 -0.0388  0.2534
19988TIP3   OH281454   1.522   5.171   3.903  0.2261  0.2545  0.7427
19988TIP3    H181455   1.492   5.249   3.948  0.6483  0.3434  0.8670
19988TIP3    H281456   1.555   5.203   3.819  0.4450  0.2117  0.8145
19989TIP3   OH281457   5.830   5.811  13.468 -0.0872 -0.2019 -0.5784
19989TIP3    H181458   5.875   5.785  13.549 -0.9797 -0.4260 -0.1572
19989TIP3    H281459   5.873   5.893  13.443  1.0408 -0.7677 -0.5608
19990TIP3   OH281460   3.642   4.249   0.769 -0.1204  0.5949 -0.4634
19990TIP3    H181461   3.679   4.222   0.852  2.9268  2.7723 -1.0586
19990TIP3    H281462   3.564   4.194   0.759  0.3777 -0.8594  2.9899
19991TIP3   OH281463   1.560   6.011   0.751  0.0031  0.0689 -0.0538
19991TIP3    H181464   1.470   6.041   0.736  0.1256  1.6311  2.0194
19991TIP3    H281465   1.570   5.935   0.694 -2.1622  0.7263 -1.3803
19992TIP3   OH281466   6.095   3.496  11.026 -0.5101  0.0385 -0.1633
19992TIP3    H181467   6.090   3.492  11.122  0.6330 -0.3716 -0.1168
19992TIP3    H281468   6.026   3.558  11.002 -0.6233  0.3670  0.9423
19993TIP3   OH281469   1.642   1.882  11.586  0.8441 -0.0658  0.0024
19993TIP3    H181470   1.570   1.941  11.610  0.5617  0.0360 -1.0757
19993TIP3    H281471   1.719   1.921  11.627  0.3506  0.0165  0.8726
19994TIP3   OH281472   4.779   1.023  16.181 -0.2828 -0.4972  0.3838
19994TIP3    H181473   4.717   1.083  16.139  0.7404  0.0401 -0.3904
19994TIP3    H281474   4.841   1.000  16.111 -0.8423 -2.7368  0.5807
19995TIP3   OH281475   4.526   1.056  14.814  0.5220 -0.2272  0.4428
19995TIP3    H181476   4.492   0.984  14.761  1.9494 -0.2027 -0.5281
19995TIP3    H281477   4.489   1.040  14.901 -2.4268  0.1207 -0.6707
19996TIP3   OH281478   6.053   6.582   2.508  0.2903  0.0166  0.1316
19996TIP3    H181479   5.962   6.555   2.495 -0.7931  3.3472  0.3491
19996TIP3    H281480   6.079   6.618   2.423  1.3688 -0.7286  0.1375
19997TIP3   OH281481   2.671   3.408  15.842  0.9145  0.0327 -0.0397
19997TIP3    H181482   2.740   3.415  15.907  0.2467  1.4493  0.5429
19997TIP3    H281483   2.677   3.318  15.810  0.9318 -0.8441  2.3347
19998TIP3   OH281484   2.514   6.310  16.193  0.6751  0.6238 -0.1309
19998TIP3    H181485   2.562   6.242  16.240  0.7717  1.1994  0.6075
19998TIP3    H281486   2.476   6.264  16.118  0.0603 -0.4195  0.8053
19999TIP3   OH281487   4.459   6.653   4.217 -0.3579 -0.4842  0.0063
19999TIP3    H181488   4.392   6.642   4.284 -0.1592 -1.8189 -0.0023
19999TIP3    H281489   4.519   6.717   4.254 -0.8291 -0.3986  0.6458
20000TIP3   OH281490   3.614   4.609  15.834  0.0993 -0.4923  0.2661
20000TIP3    H181491   3.667   4.689  15.842 -1.7956  0.7135  1.1049
20000TIP3    H281492   3.656   4.546  15.892  0.1681  0.7057  1.5369
20001TIP3   OH281493   0.217   6.467  15.644 -0.1918 -0.8139 -0.0841
20001TIP3    H181494   0.309   6.476  15.620 -0.3234 -2.6995 -1.3639
20001TIP3    H281495   0.217   6.404  15.716 -0.5537 -1.5381 -0.7113
20002TIP3   OH281496   1.241   1.183  14.809 -0.4028 -0.0616  0.3011
20002TIP3    H181497   1.287   1.232  14.877 -0.1654  1.1180 -0.6723
20002TIP3    H281498   1.301   1.112  14.786  0.2573  0.5228  0.1674
20003TIP3   OH281499   5.437   4.613   3.496 -0.3797 -0.4606 -0.3604
20003TIP3    H181500   5.435   4.663   3.414 -0.7135 -0.9255 -0.6411
20003TIP3    H281501   5.351   4.571   3.500 -0.5884  0.0359  0.5296
20004TIP3   OH281502   1.822   3.313   4.914 -0.5312  0.1424 -0.6716
20004TIP3    H181503   1.789   3.357   4.836  1.1533 -0.9702 -2.0719
20004TIP3    H281504   1.764   3.238   4.926 -0.4131 -0.0403 -1.2388
20005TIP3   OH281505   5.332   6.202  16.525 -0.4508  0.1161  0.3315
20005TIP3    H181506   5.327   6.297  16.517 -0.6867  0.0839  0.1070
20005TIP3    H281507   5.255   6.169  16.479  0.1754 -0.2280 -0.4932
20006TIP3   OH281508   5.248   0.574  15.743  0.4873 -0.6895 -0.4794
20006TIP3    H181509   5.326   0.574  15.688 -0.0844  1.6869 -1.3557
20006TIP3    H281510   5.258   0.651  15.800 -1.1346 -0.4385 -0.5080
20007TIP3   OH281511   2.283   6.073   1.903 -0.7606 -0.0241  0.1492
20007TIP3    H181512   2.208   6.049   1.957 -0.3616 -0.6663  0.4090
20007TIP3    H281513   2.308   5.992   1.859 -0.8442  0.4087 -0.7049
20008TIP3   OH281514   2.978   5.409  14.430 -0.2626 -0.7119  0.6259
20008TIP3    H181515   2.976   5.497  14.393 -1.2467 -0.0959  2.1229
20008TIP3    H281516   3.060   5.405  14.479 -0.0269 -0.7834  0.2364
20009TIP3   OH281517   0.033   5.143  15.996  0.3117  0.4965 -0.1548
20009TIP3    H181518   0.006   5.220  15.946 -1.3894 -0.4637 -0.7742
20009TIP3    H281519  -0.044   5.122  16.050  1.6944  0.8133  2.0178
20010TIP3   OH281520   6.472   3.775   4.612 -0.0215  0.4827 -0.3809
20010TIP3    H181521   6.474   3.682   4.590  0.3526  0.8342 -1.8912
20010TIP3    H281522   6.442   3.778   4.703  1.5921 -1.1881  0.2284
20011TIP3   OH281523   4.120   0.170   4.091  0.5486  0.3181  0.0632
20011TIP3    H181524   4.100   0.174   4.184  2.0485 -3.5973  0.6653
20011TIP3    H281525   4.042   0.133   4.050  0.3399  0.9009 -0.0718
20012TIP3   OH281526   1.214   3.114   0.910 -0.0824 -0.7201 -0.2945
20012TIP3    H181527   1.251   3.080   0.992  1.0445 -1.5321 -1.1284
20012TIP3    H281528   1.148   3.177   0.938 -0.3036 -1.6286  1.2523
20013TIP3   OH281529   2.017   5.031  13.487  0.1881 -0.2093  0.4762
20013TIP3    H181530   2.066   4.966  13.538 -1.5600 -1.2425  0.8925
20013TIP3    H281531   1.962   4.978  13.430 -1.1835  0.9163  0.7493
20014TIP3   OH281532   0.663   0.868  13.452 -0.2395 -0.0701 -0.0867
20014TIP3    H181533   0.584   0.815  13.442  0.5394 -1.2906  0.1005
20014TIP3    H281534   0.714   0.822  13.519  1.3318 -0.1530 -1.3202
20015TIP3   OH281535   4.001   5.588   5.963  0.4725 -0.2786 -0.4569
20015TIP3    H181536   4.012   5.656   5.897 -1.1187  0.0685 -0.3726
20015TIP3    H281537   3.910   5.560   5.955  0.8250 -1.6697  0.2148
20016TIP3   OH281538   3.625   0.295   0.690 -0.1224 -0.2049 -0.1900
20016TIP3    H181539   3.638   0.375   0.639 -1.0629  0.0320 -0.0621
20016TIP3    H281540   3.712   0.274   0.723  0.2117  0.5155 -0.5958
20017TIP3   OH281541   2.169   2.332   0.008 -0.2022  0.5272  0.3832
20017TIP3    H181542   2.104   2.339  -0.062 -0.8059 -1.5669  0.7107
20017TIP3    H281543   2.236   2.274  -0.026  0.5415  1.1313  0.7844
20018TIP3   OH281544   2.536   5.232   4.067  0.0035  0.0650 -0.2523
20018TIP3    H181545   2.499   5.154   4.110  0.5216  0.0693  0.2075
20018TIP3    H281546   2.464   5.295   4.067  0.3590  0.5020  1.7480
20019TIP3   OH281547   6.686   2.889   4.781 -0.2214 -0.1404  0.0255
20019TIP3    H181548   6.660   2.891   4.873  0.1558 -0.1585  0.1315
20019TIP3    H281549   6.781   2.883   4.783 -0.2404 -0.6129 -0.3640
20020TIP3   OH281550   5.499   2.994  14.179 -0.0143  0.1943 -0.5720
20020TIP3    H181551   5.573   2.956  14.132  0.0400 -0.9511  0.4317
20020TIP3    H281552   5.518   2.979  14.271 -1.5744 -0.2692 -0.3096
20021TIP3   OH281553   2.755   6.445  14.144  0.2553 -0.4445 -0.0817
20021TIP3    H181554   2.825   6.380  14.148 -0.1575 -1.0695 -2.2507
20021TIP3    H281555   2.771   6.492  14.063 -0.7517  0.6774  0.3626
20022TIP3   OH281556   1.337   5.765   1.639 -0.0721  0.3138 -0.4912
20022TIP3    H181557   1.305   5.850   1.669  1.6120  0.9128 -0.3140
20022TIP3    H281558   1.317   5.705   1.711 -3.0216  0.1195 -1.4007
20023TIP3   OH281559   2.611   6.598   4.303 -0.7786  0.2654  0.0051
20023TIP3    H181560   2.588   6.555   4.385 -1.8023 -0.3176 -0.5803
20023TIP3    H281561   2.640   6.526   4.246  0.2522  0.7096 -0.0296
20024TIP3   OH281562   5.503   4.807  12.493 -0.4381 -0.5758  0.9306
20024TIP3    H181563   5.519   4.778  12.583  2.1160 -1.9051  0.1225
20024TIP3    H281564   5.531   4.898  12.491 -2.3774  0.0629  1.9330
20025TIP3   OH281565   0.191   0.357   0.406 -0.2134  0.4570 -0.6707
20025TIP3    H181566   0.241   0.341   0.326 -0.4548  2.4669 -1.2527
20025TIP3    H281567   0.100   0.343   0.381 -0.3008  1.2253 -0.7965
20026TIP3   OH281568   2.983   2.838  13.984 -0.2900  0.0478  0.0068
20026TIP3    H181569   2.899   2.800  14.011 -1.0890  0.5649 -1.7102
20026TIP3    H281570   3.047   2.771  14.006 -1.4742 -1.5458 -1.2410
20027TIP3   OH281571   1.311   0.479   3.008 -0.0251  0.2605 -0.4355
20027TIP3    H181572   1.311   0.521   2.922  0.1829 -0.7061 -0.9257
20027TIP3    H281573   1.231   0.510   3.051  0.5506  1.7963 -0.4466
20028TIP3   OH281574   3.283   6.179   3.486  0.0008 -0.4619 -0.1975
20028TIP3    H181575   3.214   6.173   3.552 -0.0494  1.2366 -0.0708
20028TIP3    H281576   3.364   6.158   3.534  0.0255  1.2257  0.5499
20029TIP3   OH281577   0.891   3.353  11.431 -0.0196 -0.5076 -0.1178
20029TIP3    H181578   0.842   3.388  11.505 -1.1799 -0.8732 -0.7004
20029TIP3    H281579   0.902   3.260  11.451  1.0690 -0.2820  0.3507
20030TIP3   OH281580   4.410   3.514  15.705 -0.1879 -0.0980 -0.2194
20030TIP3    H181581   4.461   3.539  15.782 -0.5935  1.5022 -0.4709
20030TIP3    H281582   4.462   3.545  15.631 -1.1074  0.7546 -0.5061
20031TIP3   OH281583   6.222   3.363   4.634  0.0296 -0.8344 -0.1975
20031TIP3    H181584   6.138   3.376   4.591 -0.1800 -1.4014  0.0375
20031TIP3    H281585   6.216   3.277   4.674  0.7646 -0.9307 -0.2743
20032TIP3   OH281586   6.204   6.146   2.567  0.4854 -0.0138 -0.2514
20032TIP3    H181587   6.159   6.219   2.609  2.2463  0.1984  1.3186
20032TIP3    H281588   6.167   6.068   2.607 -0.1804  0.0787 -0.6892
20033TIP3   OH281589   6.185   1.775   3.858 -0.0385  0.3600  0.0694
20033TIP3    H181590   6.248   1.703   3.858 -1.2295 -0.7109 -0.2808
20033TIP3    H281591   6.115   1.745   3.800 -0.7179  1.6667  0.1977
20034TIP3   OH281592   5.894   4.259  17.105  0.3504 -0.1564 -0.5118
20034TIP3    H181593   5.850   4.177  17.130  1.8742 -1.0319 -0.6720
20034TIP3    H281594   5.823   4.313  17.069 -0.9849 -0.7150  1.2060
20035TIP3   OH281595   1.153   5.108  11.402  0.2350 -0.2828 -0.1281
20035TIP3    H181596   1.072   5.151  11.374 -0.1724 -0.3985  0.8730
20035TIP3    H281597   1.174   5.048  11.330 -0.1846  0.2500 -0.7053
20036TIP3   OH281598   1.834   3.598   3.876  0.0451 -0.8584 -0.3868
20036TIP3    H181599   1.913   3.597   3.930 -1.2149  0.4523  1.5641
20036TIP3    H281600   1.769   3.550   3.927 -1.5006  1.3838 -0.1930
20037TIP3   OH281601   5.849   2.506   4.376  0.3024 -0.2200  0.0696
20037TIP3    H181602   5.769   2.503   4.324 -0.9962  2.4825  1.7669
20037TIP3    H281603   5.860   2.418   4.411 -1.3328 -0.8832 -1.0639
20038TIP3   OH281604   3.408   5.271  16.507  0.6354 -0.0885  0.4732
20038TIP3    H181605   3.399   5.185  16.466 -2.1010 -0.7990  2.4344
20038TIP3    H281606   3.495   5.270  16.547  0.1902 -2.3954  1.4410
20039TIP3   OH281607   6.801   2.336  13.356  0.4428 -0.3548  0.1958
20039TIP3    H181608   6.709   2.363  13.350  0.4011 -0.0029  2.0708
20039TIP3    H281609   6.839   2.363  13.273 -0.7591  1.1099  0.0921
20040TIP3   OH281610   3.223   0.389   2.096  0.1315 -0.4251 -0.3404
20040TIP3    H181611   3.272   0.433   2.027 -0.5912  0.4105 -0.3201
20040TIP3    H281612   3.238   0.296   2.081  0.8823 -0.2058 -0.9534
20041TIP3   OH281613   2.858   1.857   1.951 -0.5051  0.8385  0.0689
20041TIP3    H181614   2.834   1.796   1.882 -2.0561  0.8727  0.5522
20041TIP3    H281615   2.845   1.944   1.913 -1.8521  0.8598  0.5407
20042TIP3   OH281616   5.043   5.322  15.593 -0.6595  0.5927  0.6898
20042TIP3    H181617   5.088   5.237  15.590 -2.2848 -0.2813  0.2879
20042TIP3    H281618   5.088   5.371  15.662  0.7958 -0.3055  0.4047
20043TIP3   OH281619   5.245   0.423   6.198 -0.2395 -0.2784  0.1098
20043TIP3    H181620   5.312   0.370   6.241  0.8688 -0.1142 -1.3550
20043TIP3    H281621   5.293   0.500   6.166 -1.3871  0.4823  0.1975
20044TIP3   OH281622   0.196   1.905  13.621 -0.4548 -0.1355 -0.5532
20044TIP3    H181623   0.182   1.968  13.550  2.1369  0.8852 -0.2148
20044TIP3    H281624   0.138   1.832  13.600 -1.8925  1.4223 -2.1344
20045TIP3   OH281625   4.852   3.405  11.715 -0.0884 -0.3139 -0.2328
20045TIP3    H181626   4.913   3.348  11.668 -0.3019 -0.1805 -0.6776
20045TIP3    H281627   4.821   3.353  11.788  0.6778 -0.3273  0.0780
20046TIP3   OH281628   1.408   5.169  12.900  0.1919  0.0549  0.0361
20046TIP3    H181629   1.470   5.204  12.964 -0.1575 -1.8003  1.4192
20046TIP3    H281630   1.443   5.083  12.877 -0.2762  0.2479 -1.4448
20047TIP3   OH281631   4.865   3.650  13.683 -0.4668  0.1330  0.3062
20047TIP3    H181632   4.861   3.698  13.766 -1.1975  1.2038 -0.3487
20047TIP3    H281633   4.777   3.612  13.674 -0.2063 -0.4696  0.3074
20048TIP3   OH281634   0.014   5.597  12.227  0.3140  0.6818  0.3232
20048TIP3    H181635   0.029   5.685  12.262  0.7875  0.9794 -0.6240
20048TIP3    H281636   0.076   5.589  12.155 -0.3259 -0.1101 -0.1421
20049TIP3   OH281637   2.889   0.247  13.572  0.1462  0.4889 -0.4821
20049TIP3    H181638   2.923   0.337  13.578 -1.2182  0.9981 -0.2222
20049TIP3    H281639   2.932   0.200  13.644  1.4991  0.7119 -1.1284
20050TIP3   OH281640   4.610   4.953   5.380 -0.0321 -0.7520  0.0821
20050TIP3    H181641   4.652   4.925   5.299 -0.4648  1.1431 -0.8290
20050TIP3    H281642   4.683   4.978   5.437  0.2668 -2.0289  0.2866
20051TIP3   OH281643   4.538   1.836   4.407  0.4139 -0.0181  0.6572
20051TIP3    H181644   4.573   1.869   4.489 -1.0049  0.7363  0.9844
20051TIP3    H281645   4.614   1.807   4.357  1.5310  2.0378  1.1261
20052TIP3   OH281646   1.604   5.371   0.313 -0.1245  0.1391 -0.4556
20052TIP3    H181647   1.619   5.291   0.263  3.0648  0.1908  0.3085
20052TIP3    H281648   1.526   5.410   0.273 -0.6824 -2.4251 -1.9798
20053TIP3   OH281649   3.325   5.949   3.211 -0.2660  0.3668 -0.2122
20053TIP3    H181650   3.292   6.036   3.232 -0.9176  0.1734 -0.4264
20053TIP3    H281651   3.420   5.958   3.213 -0.3199  0.6500  1.5751
20054TIP3   OH281652   0.226   0.576  13.519 -0.4145  0.0130 -0.2218
20054TIP3    H181653   0.217   0.539  13.606 -0.1713  2.3242  0.8310
20054TIP3    H281654   0.207   0.504  13.460 -3.2333 -0.9539  1.7660
20055TIP3   OH281655   5.895   3.556  13.926  0.1905  0.1436 -0.5647
20055TIP3    H181656   5.980   3.515  13.947 -0.0194  0.7483  1.5388
20055TIP3    H281657   5.866   3.510  13.847  1.8048 -1.0647 -0.4949
20056TIP3   OH281658   4.264   4.808  17.277 -0.4320 -0.5937 -0.0131
20056TIP3    H181659   4.267   4.753  17.199 -1.4463 -1.8946  0.8498
20056TIP3    H281660   4.326   4.767  17.338  1.1201  0.9951 -0.4816
20057TIP3   OH281661   1.647   3.114  15.322 -0.3297  0.2948 -0.1794
20057TIP3    H181662   1.697   3.101  15.242 -0.9382  1.3332 -0.7346
20057TIP3    H281663   1.710   3.098  15.393  0.1707 -0.7807 -0.8481
20058TIP3   OH281664   3.785   4.815  15.907 -0.2275 -0.7671  0.1424
20058TIP3    H181665   3.706   4.847  15.951  1.2066  1.7704  0.9528
20058TIP3    H281666   3.855   4.871  15.939  1.6549 -1.9331 -1.7953
20059TIP3   OH281667   6.058   2.306  10.921  0.7717  0.0537  0.3796
20059TIP3    H181668   6.138   2.332  10.874  0.5239 -0.6641 -0.4485
20059TIP3    H281669   6.046   2.213  10.900 -0.9898  0.4648 -0.5652
20060TIP3   OH281670   0.330   1.116  16.261  0.9773  0.4148  0.4339
20060TIP3    H181671   0.292   1.179  16.201  2.3160  1.4151  0.6051
20060TIP3    H281672   0.305   1.147  16.348  1.2226  0.4372  0.4971
20061TIP3   OH281673   0.967   6.506   5.985  0.1214  0.6846 -0.0445
20061TIP3    H181674   1.042   6.496   5.926  0.8451 -0.1599  1.0046
20061TIP3    H281675   0.896   6.460   5.941  0.7009 -0.0768 -0.1907
20062TIP3   OH281676   5.404   6.459  11.691  0.4107 -0.1726 -0.0879
20062TIP3    H181677   5.346   6.395  11.731  0.3119 -0.6514 -0.9948
20062TIP3    H281678   5.472   6.407  11.648  0.8579  0.3511 -0.0254
20063TIP3   OH281679   1.654   4.255  11.448 -0.1053  0.1489  1.2226
20063TIP3    H181680   1.710   4.327  11.417  0.6662 -0.4385  1.2467
20063TIP3    H281681   1.584   4.299  11.496  0.9384  0.8458  2.1507
20064TIP3   OH281682   6.121   0.944  16.523  0.0754 -0.1920  0.5171
20064TIP3    H181683   6.174   0.987  16.590  1.3995 -0.5702 -0.2647
20064TIP3    H281684   6.033   0.940  16.560 -0.2665  3.8247  0.3246
20065TIP3   OH281685   3.938   0.055   1.225  0.0626 -0.5197  0.1808
20065TIP3    H181686   4.018   0.076   1.274  1.1239 -1.5711 -1.0666
20065TIP3    H281687   3.909  -0.029   1.260  0.9180 -1.3580 -1.0600
20066TIP3   OH281688   2.082   1.028   0.594  0.0039  0.0048 -0.0994
20066TIP3    H181689   2.083   0.934   0.611 -0.7135  0.0083 -0.0405
20066TIP3    H281690   1.990   1.050   0.580  0.3947  0.2645 -2.5381
20067TIP3   OH281691   6.465   1.457   2.376  0.6787  0.2419 -0.0878
20067TIP3    H181692   6.537   1.425   2.322  0.9505 -0.6526  0.7812
20067TIP3    H281693   6.506   1.521   2.434  0.6582  0.1947 -0.0206
20068TIP3   OH281694   1.809   3.872   6.420 -0.6178  0.2514 -0.3543
20068TIP3    H181695   1.799   3.928   6.497 -1.1821  0.0282 -0.2637
20068TIP3    H281696   1.857   3.926   6.357 -1.7730  1.0948 -0.5331
20069TIP3   OH281697   2.304   4.454   5.864 -0.3062 -0.0448 -0.3610
20069TIP3    H181698   2.339   4.436   5.952 -0.6993 -1.6674 -0.5273
20069TIP3    H281699   2.372   4.507   5.822  0.5375 -0.5088  0.4048
20070TIP3   OH281700   3.467   0.440   0.108 -0.6705 -0.0832 -0.1304
20070TIP3    H181701   3.545   0.454   0.053 -0.0398 -0.7379  0.5884
20070TIP3    H281702   3.495   0.466   0.196 -0.7707 -1.8692  0.4342
20071TIP3   OH281703   3.096   1.709  12.405 -0.0904  0.4552 -0.5958
20071TIP3    H181704   3.090   1.685  12.497  0.8134  1.0176 -0.3797
20071TIP3    H281705   3.055   1.637  12.358  0.0439 -0.1462  0.2056
20072TIP3   OH281706   2.935   6.622  14.886  0.4371 -0.4525  0.5363
20072TIP3    H181707   2.862   6.680  14.907  0.0395 -0.3057 -1.2387
20072TIP3    H281708   2.895   6.535  14.879  0.7091 -0.6349  1.1923
20073TIP3   OH281709   0.451   3.171  16.476 -0.0097 -0.5079  0.1565
20073TIP3    H181710   0.452   3.076  16.484 -0.6589 -0.4333  1.1913
20073TIP3    H281711   0.367   3.190  16.434  0.8967 -0.5025 -1.7055
20074TIP3   OH281712   2.314   6.197  15.647 -0.2239 -0.1065  0.5115
20074TIP3    H181713   2.261   6.118  15.655 -0.7986  0.0998 -1.0500
20074TIP3    H281714   2.365   6.184  15.567  1.7193 -0.0806  1.7269
20075TIP3   OH281715   3.780   4.619  12.877 -0.2961  0.2017 -0.4634
20075TIP3    H181716   3.781   4.524  12.868  0.5095  0.3467 -2.0840
20075TIP3    H281717   3.737   4.635  12.961  2.3682 -1.6849  1.3140
20076TIP3   OH281718   5.531   2.202  14.313 -0.0147  0.1480  0.4358
20076TIP3    H181719   5.577   2.117  14.309 -2.4266 -1.1810 -0.0575
20076TIP3    H281720   5.540   2.229  14.404 -0.9610 -1.6694  1.1016
20077TIP3   OH281721   3.686   3.603  11.971 -0.0750  0.0276 -0.1262
20077TIP3    H181722   3.740   3.639  12.041 -0.7500 -0.8061  0.8421
20077TIP3    H281723   3.746   3.594  11.897  1.8961 -3.4934  1.7317
20078TIP3   OH281724   1.651   0.855   1.546 -0.1337 -0.1372  0.4880
20078TIP3    H181725   1.705   0.930   1.518 -0.2572 -1.0948 -2.5272
20078TIP3    H281726   1.705   0.779   1.526 -1.4554 -0.9933  0.1325
20079TIP3   OH281727   2.574   3.983   1.298 -0.1412 -0.2036  0.3957
20079TIP3    H181728   2.575   4.040   1.375  0.9998  1.8794 -1.1414
20079TIP3    H281729   2.555   3.896   1.334 -3.7220  1.3390  2.5836
20080TIP3   OH281730   2.477   5.874   0.532  0.4593  0.7365 -0.1851
20080TIP3    H181731   2.499   5.919   0.451  0.3406  1.2531  0.0666
20080TIP3    H281732   2.445   5.943   0.590 -2.6962 -0.0924 -0.8388
20081TIP3   OH281733   2.548   3.346   5.124 -0.1430 -0.6291  0.1043
20081TIP3    H181734   2.623   3.391   5.162 -0.1030  0.2916 -1.0133
20081TIP3    H281735   2.476   3.408   5.132 -0.7918 -1.5148  1.1801
20082TIP3   OH281736   3.812   2.983  11.402 -0.3256  0.0403 -0.1216
20082TIP3    H181737   3.810   2.924  11.327 -0.8957  0.7713 -0.6804
20082TIP3    H281738   3.761   2.937  11.469  1.6612 -1.4279  0.4454
20083TIP3   OH281739   4.396   6.280  12.149 -0.0618 -0.5483 -0.3218
20083TIP3    H181740   4.391   6.246  12.060  0.2231 -1.4206 -0.0200
20083TIP3    H281741   4.455   6.219  12.194 -1.2278 -0.8798  0.8003
20084TIP3   OH281742   5.058   2.001  11.297 -0.1585 -0.0318 -0.3155
20084TIP3    H181743   5.075   2.046  11.214  2.8026  0.3944  0.4842
20084TIP3    H281744   5.112   1.923  11.293  0.2073  0.1260  1.3313
20085TIP3   OH281745   3.260   1.378   0.160  0.7457  0.4404  0.4427
20085TIP3    H181746   3.344   1.362   0.203  0.4739 -1.0415  0.4539
20085TIP3    H281747   3.208   1.426   0.224  2.2817  3.2559 -0.3163
20086TIP3   OH281748   1.181   3.160   4.181 -0.2154 -0.6956 -0.2769
20086TIP3    H181749   1.232   3.095   4.229  0.6994  0.9575  1.0393
20086TIP3    H281750   1.245   3.207   4.129 -0.5281  0.6984  0.5771
20087TIP3   OH281751   1.395   3.916  15.122  0.0246  0.3233  0.3837
20087TIP3    H181752   1.448   3.959  15.190  0.6714  1.5181 -0.8613
20087TIP3    H281753   1.306   3.944  15.141  0.5658  3.1105 -1.0459
20088TIP3   OH281754   1.266   1.050  15.858  0.2407  0.3604  0.7122
20088TIP3    H181755   1.299   1.139  15.855  0.4166  0.2809  0.2283
20088TIP3    H281756   1.181   1.054  15.814  1.3725 -0.1836 -1.6215
20089TIP3   OH281757   0.004   1.645   0.839 -0.0644 -0.1098  0.6869
20089TIP3    H181758  -0.042   1.620   0.758  0.3502 -4.0605  1.5940
20089TIP3    H281759  -0.054   1.710   0.879 -0.6944  1.2916 -2.3396
20090TIP3   OH281760   0.844   4.246  16.596 -0.6319 -0.4319 -0.2041
20090TIP3    H181761   0.766   4.290  16.627  0.4151 -0.4343  2.5761
20090TIP3    H281762   0.878   4.200  16.673  2.3019 -0.1104 -1.2423
20091TIP3   OH281763   1.994   2.652  14.639 -0.1417 -0.3491 -0.6862
20091TIP3    H181764   1.985   2.559  14.661  0.5597 -0.4444 -0.7943
20091TIP3    H281765   2.006   2.652  14.544 -2.1689 -0.0091 -0.9697
20092TIP3   OH281766   5.253   2.555   5.640  0.5655 -0.0173  0.2787
20092TIP3    H181767   5.160   2.577   5.652  0.0903 -1.3443 -0.7251
20092TIP3    H281768   5.296   2.639   5.626 -0.3874  0.6736  1.3631
20093TIP3   OH281769   0.351   2.889  11.122 -0.4928  0.2969  0.2233
20093TIP3    H181770   0.388   2.888  11.034  0.4740  1.2714  0.6098
20093TIP3    H281771   0.340   2.982  11.143 -3.7847  0.0385 -0.1278
20094TIP3   OH281772   1.591   4.166   5.143 -0.1981  0.1684 -0.1574
20094TIP3    H181773   1.533   4.104   5.187 -2.4630  0.8709 -2.0834
20094TIP3    H281774   1.576   4.249   5.188  0.1407  0.1256  0.0420
20095TIP3   OH281775   1.844   5.415  16.377  0.1752 -0.2747  0.0844
20095TIP3    H181776   1.844   5.338  16.320 -0.6370  0.5415 -1.0337
20095TIP3    H281777   1.777   5.396  16.442  0.2389 -0.6733  0.0369
20096TIP3   OH281778   5.701   2.341   0.319 -0.0703 -0.6244 -0.1533
20096TIP3    H181779   5.779   2.327   0.374  0.0230 -1.8045 -0.5963
20096TIP3    H281780   5.638   2.383   0.378  0.3391 -1.1092  0.6357
20097TIP3   OH281781   2.002   3.775   0.753  0.0020 -0.0195 -0.4596
20097TIP3    H181782   1.976   3.684   0.735 -4.2021  0.9094  0.3551
20097TIP3    H281783   1.995   3.819   0.669  2.0693 -0.4235 -0.8602
20098TIP3   OH281784   0.092   4.218  12.492 -0.3157 -0.7918  0.0078
20098TIP3    H181785   0.044   4.232  12.574 -0.2714  0.6893 -0.1952
20098TIP3    H281786   0.062   4.289  12.435 -0.1814 -1.6838 -1.1929
20099TIP3   OH281787   0.749   0.587   2.630  0.4834 -0.0369 -0.2477
20099TIP3    H181788   0.716   0.676   2.643  0.1430 -0.1681 -0.1946
20099TIP3    H281789   0.675   0.541   2.591  0.1022 -0.7245  1.2482
20100TIP3   OH281790   6.192   2.405   1.763 -0.4287  0.0464  0.2678
20100TIP3    H181791   6.097   2.401   1.762 -0.3984 -1.0110  1.1891
20100TIP3    H281792   6.219   2.334   1.821  0.9498 -0.2175 -0.6646
20101TIP3   OH281793   5.146   0.006  13.511  0.4719 -0.1605 -0.8751
20101TIP3    H181794   5.149  -0.044  13.429  0.4391  1.0464 -1.6324
20101TIP3    H281795   5.108   0.090  13.485 -0.9160 -0.3012  0.6711
20102TIP3   OH281796   0.025   3.032  15.533  0.0522  0.0020 -0.0627
20102TIP3    H181797   0.080   3.110  15.530  1.5340 -1.0071  0.4291
20102TIP3    H281798  -0.062   3.063  15.507  0.9827  1.4870 -1.5146
20103TIP3   OH281799   5.935   6.630  16.287  0.6442 -0.0731  0.0442
20103TIP3    H181800   5.900   6.641  16.198 -0.4096  1.0450  0.5844
20103TIP3    H281801   5.882   6.561  16.326  0.8064 -0.2412 -0.0252
20104TIP3   OH281802   4.523   0.715  15.452 -0.4625 -0.3061  0.0314
20104TIP3    H181803   4.457   0.784  15.461 -0.5572 -0.5356  1.2660
20104TIP3    H281804   4.583   0.748  15.385 -2.3667 -0.5441 -1.8503
20105TIP3   OH281805   3.178   0.849  17.155  0.5941 -0.6286 -0.2329
20105TIP3    H181806   3.174   0.904  17.233 -1.3595 -0.5861 -0.3419
20105TIP3    H281807   3.220   0.768  17.185 -2.3366 -1.5985  1.5004
20106TIP3   OH281808   0.002   2.303   0.343 -0.0975 -0.5919  0.0175
20106TIP3    H181809  -0.064   2.365   0.311 -0.9517 -1.7285 -0.4242
20106TIP3    H281810  -0.033   2.271   0.426  0.1452 -0.8097  0.0353
20107TIP3   OH281811   5.833   2.781   5.609  0.0701  0.0895  0.0195
20107TIP3    H181812   5.781   2.800   5.531  1.0592 -0.2959 -0.7448
20107TIP3    H281813   5.919   2.817   5.590  1.1997 -2.6648 -0.3340
20108TIP3   OH281814   4.144   1.982   2.401  0.0512  0.4550  0.0860
20108TIP3    H181815   4.187   1.993   2.486 -2.5752  2.2455  1.2655
20108TIP3    H281816   4.162   2.063   2.354  1.3542 -0.4626 -1.0315
20109TIP3   OH281817   6.607   4.841   2.450  0.0620 -0.3405 -0.0381
20109TIP3    H181818   6.693   4.879   2.436 -0.3104  0.4233 -0.2982
20109TIP3    H281819   6.577   4.878   2.533 -0.3772  0.0715 -0.3796
20110TIP3   OH281820   5.195   1.779  11.530 -0.5225 -0.3077 -0.2124
20110TIP3    H181821   5.135   1.708  11.554 -0.6643 -0.9597 -2.4110
20110TIP3    H281822   5.187   1.787  11.435 -0.3701  2.5600 -0.0290
20111TIP3   OH281823   4.433   1.496   3.712  0.4559  0.0929 -0.5709
20111TIP3    H181824   4.438   1.466   3.803  1.2018  0.7648 -0.3852
20111TIP3    H281825   4.516   1.468   3.674  1.8143  3.1638 -0.0036
20112TIP3   OH281826   0.986   1.080  13.928 -0.2242 -0.0562  1.2586
20112TIP3    H181827   1.023   1.093  14.016  1.2577  0.8482  0.5333
20112TIP3    H281828   0.917   1.146  13.922  0.9200  1.1600  1.0863
20113TIP3   OH281829   2.576   0.926   0.725  0.3224  0.6114 -0.4164
20113TIP3    H181830   2.521   0.849   0.709  0.5545  0.6830 -1.6475
20113TIP3    H281831   2.577   0.972   0.641  1.8265  0.8821 -0.2666
20114TIP3   OH281832   0.500   5.926   5.245  0.2470  1.0583  0.2497
20114TIP3    H181833   0.408   5.930   5.274  0.4426 -0.0141  1.0666
20114TIP3    H281834   0.545   5.989   5.302  0.5459 -0.6987  2.0108
20115TIP3   OH281835   2.611   5.047  11.382  0.8771 -0.0803 -0.2888
20115TIP3    H181836   2.703   5.042  11.356  0.9636 -0.8101  0.1603
20115TIP3    H281837   2.572   4.966  11.350  0.9006 -0.8309  1.5203
20116TIP3   OH281838   6.468   1.425  13.406 -0.6186 -0.0142 -0.5796
20116TIP3    H181839   6.550   1.467  13.431 -1.4031  0.3493  1.5695
20116TIP3    H281840   6.493   1.338  13.375  0.8210  1.1629 -2.8410
20117TIP3   OH281841   6.675   0.242   1.000 -0.0519 -0.7009 -0.4759
20117TIP3    H181842   6.759   0.232   1.043 -1.4399 -4.0454  1.6685
20117TIP3    H281843   6.620   0.288   1.063 -1.1490 -2.7638  0.1441
20118TIP3   OH281844   1.247   6.483   3.244 -0.0114 -0.3602  0.8537
20118TIP3    H181845   1.153   6.464   3.253 -0.3321  1.4858  1.5302
20118TIP3    H281846   1.250   6.569   3.204  1.4373 -1.8867 -2.5456
20119TIP3   OH281847   5.534   4.564  16.669  0.4028  0.2434 -0.3871
20119TIP3    H181848   5.516   4.658  16.668 -0.5935  0.0535 -1.1286
20119TIP3    H281849   5.600   4.552  16.601  1.3825  0.5712  0.5040
20120TIP3   OH281850   3.839   0.281   0.866  0.5940  0.5204 -0.3736
20120TIP3    H181851   3.840   0.186   0.880 -1.3877  0.4501 -0.6606
20120TIP3    H281852   3.754   0.310   0.897  0.7938  2.0767 -1.2056
20121TIP3   OH281853   4.312   6.739   0.426  0.1801  0.4186 -0.3898
20121TIP3    H181854   4.304   6.645   0.444  0.0761  0.3295 -0.8914
20121TIP3    H281855   4.374   6.771   0.492 -0.4552  0.1599  0.3438
20122TIP3   OH281856   6.702   2.688  16.510  0.0993  0.1812 -0.3817
20122TIP3    H181857   6.669   2.654  16.426 -1.5198  1.6147 -0.3629
20122TIP3    H281858   6.771   2.748  16.486 -1.7489  2.1746 -0.8589
20123TIP3   OH281859   3.670   0.709   4.240 -0.7323 -0.5092  0.5314
20123TIP3    H181860   3.691   0.704   4.334 -1.4861 -0.2691  0.7174
20123TIP3    H281861   3.622   0.790   4.231  2.0185  1.0654 -0.6132
20124TIP3   OH281862   2.037   1.555   4.746  0.1189  0.3191  0.5726
20124TIP3    H181863   2.032   1.471   4.699  1.3397 -0.3003  1.5209
20124TIP3    H281864   2.130   1.568   4.762 -0.3275 -0.1637  3.9812
20125TIP3   OH281865   0.856   1.381  16.880 -0.2839 -0.0374  0.6472
20125TIP3    H181866   0.881   1.432  16.957  0.7382 -1.0689  1.0051
20125TIP3    H281867   0.887   1.432  16.806 -0.6697  0.6325  0.9456
20126TIP3   OH281868   5.690   0.873   5.568  0.0097 -0.2644  0.0416
20126TIP3    H181869   5.722   0.809   5.631  0.8890 -1.7198 -1.8233
20126TIP3    H281870   5.722   0.957   5.600  0.5326 -0.9778  1.4404
20127TIP3   OH281871   4.017   5.279   5.144  0.1099 -0.2428  0.0631
20127TIP3    H181872   4.069   5.199   5.135 -0.1329 -0.5687  1.4292
20127TIP3    H281873   4.027   5.304   5.236 -1.3681  0.2317  0.1097
20128TIP3   OH281874   4.749   1.848  13.708 -0.9135 -0.0884 -0.1912
20128TIP3    H181875   4.825   1.811  13.664  0.5224  1.9134  0.5270
20128TIP3    H281876   4.684   1.859  13.638 -0.1281 -0.7255 -1.0312
20129TIP3   OH281877   3.424   4.051   4.981  0.3242 -0.4620  0.3964
20129TIP3    H181878   3.399   4.009   5.063 -0.5398  1.6884  1.2661
20129TIP3    H281879   3.510   4.088   4.998  0.9789 -1.6136 -0.2970
20130TIP3   OH281880   6.637   4.956  12.646  1.1048 -0.4242  0.1502
20130TIP3    H181881   6.655   4.935  12.554 -0.5695  1.6729 -0.6903
20130TIP3    H281882   6.602   4.875  12.683  0.6582 -0.9403 -1.3748
20131TIP3   OH281883   5.168   0.905   2.653 -0.2095 -0.2110 -0.0880
20131TIP3    H181884   5.246   0.895   2.708 -1.4384 -0.0262  1.7232
20131TIP3    H281885   5.202   0.941   2.571  1.5174  0.6791  0.9684
20132TIP3   OH281886   4.685   5.446  16.702  0.7737  0.8760  0.1846
20132TIP3    H181887   4.682   5.461  16.608 -0.0718  2.5873  0.4682
20132TIP3    H281888   4.771   5.480  16.729  1.6626 -1.0112 -0.1757
20133TIP3   OH281889   3.529   0.624   5.515 -0.2400  0.1088  0.1244
20133TIP3    H181890   3.619   0.646   5.489 -0.4305  0.0502 -0.5997
20133TIP3    H281891   3.502   0.557   5.451 -0.8997  0.3459  0.1593
20134TIP3   OH281892   1.073   0.393  15.004  0.1571  0.2516  0.4099
20134TIP3    H181893   0.999   0.388  15.064 -1.8212  1.7428 -1.8171
20134TIP3    H281894   1.069   0.310  14.955 -1.0789  1.0502 -0.8594
20135TIP3   OH281895   6.648   3.388   4.918  0.1227  0.0625  0.3339
20135TIP3    H181896   6.683   3.403   4.830  1.6635  1.1455  1.1054
20135TIP3    H281897   6.604   3.470   4.940 -0.7782 -0.4199  0.3456
20136TIP3   OH281898   3.563   3.078   0.151 -0.1118  0.0744 -0.1600
20136TIP3    H181899   3.604   3.043   0.230 -2.4056 -1.5079  0.3693
20136TIP3    H281900   3.494   3.137   0.183 -0.4709  0.1079 -0.9807
20137TIP3   OH281901   5.174   4.718  11.714 -0.4680 -0.4233 -0.0470
20137TIP3    H181902   5.154   4.650  11.777  0.6344 -0.7448 -0.0351
20137TIP3    H281903   5.203   4.671  11.636 -2.1805 -0.0499 -0.9457
20138TIP3   OH281904   4.220   0.238  11.721 -0.3027 -1.0459  0.7738
20138TIP3    H181905   4.251   0.230  11.811 -0.8768  0.1432  1.0974
20138TIP3    H281906   4.280   0.185  11.669  0.6913 -0.8622  1.7244
20139TIP3   OH281907   4.588   4.686   5.554 -0.0109 -0.0101 -0.2062
20139TIP3    H181908   4.629   4.602   5.534  0.1272 -0.0295  0.1493
20139TIP3    H281909   4.655   4.751   5.531 -0.3187  0.0303 -0.9976
20140TIP3   OH281910   1.142   6.007  12.156  0.8683  0.0226  0.2361
20140TIP3    H181911   1.119   6.079  12.215  1.8630 -1.1652  2.1356
20140TIP3    H281912   1.238   6.008  12.154  0.8529  0.0949 -1.4599
20141TIP3   OH281913   0.571   2.712   5.874  0.2434  0.0730 -0.0899
20141TIP3    H181914   0.491   2.660   5.860 -0.2903  0.6915  0.5927
20141TIP3    H281915   0.564   2.742   5.965  2.1375 -1.3475  0.5587
20142TIP3   OH281916   5.046   0.271  13.523 -0.2686 -0.2733  0.1555
20142TIP3    H181917   5.098   0.280  13.603  2.8227 -0.4725 -1.7242
20142TIP3    H281918   5.003   0.356  13.513  2.0379  0.9614  0.2907
20143TIP3   OH281919   3.268   1.698   0.954 -0.5013  0.2819 -0.6294
20143TIP3    H181920   3.205   1.660   0.893  1.4538 -2.1697 -1.2286
20143TIP3    H281921   3.282   1.787   0.922 -2.3948  0.3089 -1.4523
20144TIP3   OH281922   1.305   5.898   6.170 -0.2450 -0.3788 -0.5946
20144TIP3    H181923   1.364   5.863   6.237  1.2242  0.3028 -1.4822
20144TIP3    H281924   1.218   5.890   6.207  0.6145  0.6909  1.7122
20145TIP3   OH281925   6.101   6.158   3.418 -0.4592  0.4329  0.7806
20145TIP3    H181926   6.026   6.211   3.391 -1.2646 -1.2824 -0.4390
20145TIP3    H281927   6.145   6.135   3.336  0.8619  0.6473  1.4252
20146TIP3   OH281928   3.365   6.750   6.625  0.4238 -0.0957 -0.0149
20146TIP3    H181929   3.426   6.676   6.617  1.1516  0.3109  1.4600
20146TIP3    H281930   3.280   6.709   6.642  0.5792 -0.6288 -0.5274
20147TIP3   OH281931   0.124   3.245   3.785 -0.3229  0.2179 -0.2620
20147TIP3    H181932   0.131   3.284   3.873 -2.0992  2.5364 -1.0718
20147TIP3    H281933   0.204   3.273   3.740 -0.1490  0.3611  0.1328
20148TIP3   OH281934   6.783   0.271  14.718  0.1674 -0.6436  0.0437
20148TIP3    H181935   6.756   0.310  14.635  0.8409  1.2752  0.7032
20148TIP3    H281936   6.877   0.287  14.723  0.4567 -2.2803  0.4006
20149TIP3   OH281937   4.419   3.522   5.531  0.8980 -0.1372  0.8359
20149TIP3    H181938   4.444   3.601   5.578 -1.4405  1.1177  0.0290
20149TIP3    H281939   4.385   3.463   5.599 -1.0313  1.0839  0.9675
20150TIP3   OH281940   2.866   0.274   5.488  0.6585 -0.6895 -0.3941
20150TIP3    H181941   2.910   0.196   5.453 -0.4243 -1.1460 -0.7625
20150TIP3    H281942   2.802   0.240   5.550  0.8684 -0.0247  0.1879
20151TIP3   OH281943   2.904   0.858   3.420  0.2500 -0.3993 -0.3541
20151TIP3    H181944   2.901   0.857   3.515 -0.8088  2.8503 -0.2742
20151TIP3    H281945   2.948   0.777   3.396 -0.2907 -1.7047  2.8501
20152TIP3   OH281946   5.439   3.630   6.447 -0.2665  0.5848 -0.2481
20152TIP3    H181947   5.391   3.574   6.509  0.4814 -1.0449 -1.1133
20152TIP3    H281948   5.454   3.711   6.495 -1.2108 -0.0224  1.1094
20153TIP3   OH281949   1.820   5.684   2.300 -0.2849  0.1649 -0.0098
20153TIP3    H181950   1.895   5.732   2.264 -0.8134  1.1415  0.1597
20153TIP3    H281951   1.843   5.672   2.392 -0.2709  0.3308  0.0090
20154TIP3   OH281952   1.074   6.126   3.790 -0.1047  0.2881  0.7867
20154TIP3    H181953   1.055   6.129   3.884  0.2801  0.6939  0.8501
20154TIP3    H281954   1.151   6.181   3.779  0.9132 -1.1769  0.4920
20155TIP3   OH281955   1.945   5.913  11.448  0.2934 -0.1549 -0.6227
20155TIP3    H181956   1.981   5.836  11.493  0.5566 -0.2437 -0.9869
20155TIP3    H281957   1.907   5.965  11.519  0.5129 -0.4019 -0.3179
20156TIP3   OH281958   2.947   2.054   5.398 -0.3215 -0.4349  0.4443
20156TIP3    H181959   2.896   2.133   5.380 -2.2427 -1.5120  1.1293
20156TIP3    H281960   2.920   1.992   5.331  1.5692 -0.3872 -0.4155
20157TIP3   OH281961   6.104   2.483  12.078 -0.2823 -0.1768 -0.0071
20157TIP3    H181962   6.191   2.522  12.085 -0.5569  0.2684  1.0714
20157TIP3    H281963   6.059   2.512  12.158 -1.0484 -1.3099 -0.0275
20158TIP3   OH281964   3.246   6.361  11.783 -0.3033 -0.1793 -0.1045
20158TIP3    H181965   3.183   6.425  11.817  0.8276  0.7227  0.3386
20158TIP3    H281966   3.263   6.302  11.858 -0.3630 -0.2173 -0.1217
20159TIP3   OH281967   5.086   5.573   6.222 -0.3746 -0.1037  0.3979
20159TIP3    H181968   5.106   5.504   6.284 -1.1292 -0.3525  0.3720
20159TIP3    H281969   5.170   5.593   6.180 -0.3129 -1.6353 -0.2389
20160TIP3   OH281970   0.595   6.127   5.741 -0.1915 -0.6356 -0.5623
20160TIP3    H181971   0.500   6.121   5.751 -0.1251 -0.0510  0.5056
20160TIP3    H281972   0.613   6.220   5.733  0.4266 -0.6275  0.7839
20161TIP3   OH281973   1.106   6.301  11.625  0.5716 -0.0021  0.5969
20161TIP3    H181974   1.192   6.277  11.591  1.2757 -1.0310  2.9842
20161TIP3    H281975   1.098   6.394  11.605  2.2716  0.1156  0.3505
20162TIP3   OH281976   3.230   0.512   5.559  0.0813 -0.3243  0.6272
20162TIP3    H181977   3.277   0.567   5.621  0.3608  2.9287 -2.2756
20162TIP3    H281978   3.138   0.518   5.586  0.0937  1.7613  0.3003
20163TIP3   OH281979   1.895   0.344   5.168 -0.5389  0.3506 -0.0320
20163TIP3    H181980   1.878   0.387   5.252 -0.5925  1.4003 -0.5820
20163TIP3    H281981   1.988   0.362   5.151 -0.5017  0.0442 -0.1504
20164TIP3   OH281982   4.972   3.741  11.408 -0.2439 -0.3903  0.1296
20164TIP3    H181983   4.900   3.693  11.449 -0.3134 -1.3554 -1.0950
20164TIP3    H281984   4.987   3.816  11.466 -3.1198  0.5619 -0.2718
20165TIP3   OH281985   4.290   5.235   3.964  0.1002  0.5221  0.0254
20165TIP3    H181986   4.232   5.298   3.921  1.1465  2.4043  1.2983
20165TIP3    H281987   4.376   5.278   3.964  1.2228 -1.6667 -0.6632
20166TIP3   OH281988   2.500   4.615  12.119  0.0743 -0.7031 -0.4147
20166TIP3    H181989   2.532   4.570  12.041 -2.5671 -1.9154 -0.8577
20166TIP3    H281990   2.528   4.560  12.192 -0.6755 -1.5684 -0.7680
20167TIP3   OH281991   0.980   0.565  12.630  0.0761  0.3653 -0.3275
20167TIP3    H181992   1.036   0.565  12.708 -0.0574  1.7469 -0.2272
20167TIP3    H281993   0.925   0.487  12.641  1.2332 -0.4072  0.0961
20168TIP3   OH281994   4.312   1.173   4.083  0.5005 -0.6147 -0.1618
20168TIP3    H181995   4.319   1.133   3.996 -1.8403  3.3594 -2.3197
20168TIP3    H281996   4.218   1.180   4.099  0.8277  2.9971  0.5175
20169TIP3   OH281997   3.436   3.404   1.674  0.6241 -0.0276 -0.7560
20169TIP3    H181998   3.503   3.469   1.697 -0.1188  0.3342  0.4197
20169TIP3    H281999   3.362   3.424   1.732 -0.0459 -1.1957 -1.1953
20170TIP3   OH282000   5.880   5.268  11.528 -0.7573  0.6490  0.2061
20170TIP3    H182001   5.908   5.357  11.550  0.4350  1.4233 -4.1395
20170TIP3    H282002   5.936   5.211  11.581 -0.4722  2.4172  1.8490
20171TIP3   OH282003   0.024   3.358   5.536  0.3677  0.4824 -0.1647
20171TIP3    H182004  -0.018   3.434   5.497  1.3287  0.4819 -1.2341
20171TIP3    H282005  -0.038   3.286   5.523  0.1566  0.7405 -0.5912
20172TIP3   OH282006   2.873   5.860   3.475  0.0017  0.7447  0.1790
20172TIP3    H182007   2.788   5.857   3.519 -0.7478  1.2339 -1.2113
20172TIP3    H282008   2.860   5.810   3.394  0.1103  3.4423 -1.5805
20173TIP3   OH282009   2.067   5.338   4.802 -0.6294 -1.3219  0.2825
20173TIP3    H182010   1.994   5.305   4.854 -1.4632  0.0986  0.0289
20173TIP3    H282011   2.031   5.414   4.756  0.4836 -1.7378 -1.2965
20174TIP3   OH282012   1.479   1.675  14.565  0.4863  0.3444  0.8428
20174TIP3    H182013   1.538   1.749  14.551  0.4217  0.4793  1.2807
20174TIP3    H282014   1.392   1.715  14.573  0.4194  0.2017  0.8286
20175TIP3   OH282015   3.164   5.163  15.144  0.0358  0.4677  0.5722
20175TIP3    H182016   3.242   5.127  15.102  0.3069  0.5080  1.0414
20175TIP3    H282017   3.168   5.133  15.235 -1.3475 -0.8879  0.2187
20176TIP3   OH282018   3.818   4.488   0.641 -0.5541 -0.1539  0.6296
20176TIP3    H182019   3.729   4.458   0.659 -0.3867 -0.3418  1.1635
20176TIP3    H282020   3.838   4.455   0.554 -0.4095 -1.5162  1.1676
20177TIP3   OH282021   3.744   0.182   5.253  0.1940 -0.6418  0.5402
20177TIP3    H182022   3.649   0.187   5.263  0.3149  0.0027  1.4363
20177TIP3    H282023   3.777   0.263   5.291  0.9106  0.5660 -2.5275
20178TIP3   OH282024   5.439   0.833  14.045  0.3422 -0.3021 -0.2430
20178TIP3    H182025   5.498   0.867  13.977 -1.2176 -1.0858 -2.0477
20178TIP3    H282026   5.413   0.747  14.012 -2.2346  0.2657  0.2244
20179TIP3   OH282027   4.205   2.912   4.458  0.1932 -0.2040  0.0337
20179TIP3    H182028   4.135   2.877   4.403 -0.0277 -1.5030  1.1211
20179TIP3    H282029   4.169   2.995   4.491 -0.7767 -0.7790  0.4529
20180TIP3   OH282030   2.608   6.164   2.092 -0.3615  0.6142 -0.1729
20180TIP3    H182031   2.683   6.106   2.076  0.1437  0.9716  0.8394
20180TIP3    H282032   2.562   6.167   2.009  0.1068 -0.5410 -0.4913
20181TIP3   OH282033   5.325   5.352   3.027  0.1347  0.0564  0.0224
20181TIP3    H182034   5.369   5.333   2.943  0.0269  0.8616 -0.2209
20181TIP3    H282035   5.396   5.352   3.091  0.0234 -1.9811  0.1638
20182TIP3   OH282036   4.036   4.651   0.659  0.5053  0.0279  0.4063
20182TIP3    H182037   3.958   4.596   0.664 -0.4358  1.2745 -0.4442
20182TIP3    H282038   4.004   4.740   0.666  1.5686  0.6731 -2.3339
20183TIP3   OH282039   5.892   4.678  14.377 -0.4112  0.4665  0.1254
20183TIP3    H182040   5.932   4.598  14.412 -2.2155  0.2948  1.8633
20183TIP3    H282041   5.965   4.724  14.334  0.8130 -1.7288 -0.2725
20184TIP3   OH282042   1.027   6.122   1.357 -0.6763 -1.0894  0.4553
20184TIP3    H182043   0.971   6.046   1.371 -0.0601 -1.5302  0.5480
20184TIP3    H282044   1.113   6.086   1.336 -0.0825 -0.4436  1.6538
20185TIP3   OH282045   5.043   5.452  11.691  0.0557  0.0749  0.0763
20185TIP3    H182046   5.134   5.424  11.686  0.3758  1.1118  0.0205
20185TIP3    H282047   5.016   5.431  11.781  0.1844 -0.7190 -0.0694
20186TIP3   OH282048   6.310   6.627  12.986 -0.2794 -0.5584 -0.2186
20186TIP3    H182049   6.269   6.581  12.913 -0.9466  0.2404 -0.3463
20186TIP3    H282050   6.246   6.692  13.014 -0.1045 -0.9787  1.2018
20187TIP3   OH282051   4.084   1.716  12.228  0.8261  0.1475  0.0132
20187TIP3    H182052   4.117   1.748  12.311  1.6382 -0.6473  0.0079
20187TIP3    H282053   3.990   1.734  12.230  1.0638  1.3485  0.5253
20188TIP3   OH282054   3.522   3.046  13.470  0.2006  0.5781  0.7264
20188TIP3    H182055   3.518   3.076  13.380  0.3896 -2.6163 -0.4203
20188TIP3    H282056   3.431   3.024  13.492  0.5390 -1.2976  0.3209
20189TIP3   OH282057   3.860   4.855  15.264  0.3270  0.1739 -0.0120
20189TIP3    H182058   3.830   4.914  15.332  1.5077  0.5849  0.1685
20189TIP3    H282059   3.922   4.907  15.212  1.6517 -0.9913  0.3606
20190TIP3   OH282060   0.660   5.225   5.827  0.9321  0.5179 -0.2628
20190TIP3    H182061   0.576   5.255   5.861  0.9407 -0.2589  0.4633
20190TIP3    H282062   0.725   5.275   5.876  0.9416 -0.5309  0.8168
20191TIP3   OH282063   3.448   4.584  15.224 -0.1797  0.0644 -0.4841
20191TIP3    H182064   3.484   4.638  15.154 -0.7666 -1.0218 -1.6453
20191TIP3    H282065   3.466   4.494  15.197  1.4507 -0.3618  1.7743
20192TIP3   OH282066   6.786   0.139  11.795 -0.0369  0.0691 -0.7052
20192TIP3    H182067   6.736   0.057  11.790  0.7889 -0.5880  1.6932
20192TIP3    H282068   6.757   0.180  11.876  0.7351  1.4120 -1.0938
20193TIP3   OH282069   4.372   5.032  16.156 -0.0401 -0.3283  0.1266
20193TIP3    H182070   4.279   5.035  16.134 -0.1266 -1.3577  0.3124
20193TIP3    H282071   4.414   5.090  16.093 -0.7548 -0.2521 -0.2782
20194TIP3   OH282072   1.975   5.010   1.063  0.1255  0.2870  0.0763
20194TIP3    H182073   2.045   5.000   0.998  0.5298 -1.8285  0.8008
20194TIP3    H282074   2.021   5.011   1.147 -0.5582  1.0011  0.4425
20195TIP3   OH282075   2.272   1.001   1.256 -0.1929 -0.0766  0.5865
20195TIP3    H182076   2.258   0.906   1.247 -0.2302  0.0381 -0.6978
20195TIP3    H282077   2.268   1.017   1.350  1.6334 -1.6216  0.9490
20196TIP3   OH282078   1.042   4.629  17.133 -0.6752 -0.0305  0.0857
20196TIP3    H182079   1.083   4.714  17.145 -2.0188  0.6761 -0.2059
20196TIP3    H282080   1.103   4.566  17.172  0.8262  0.9538 -0.6466
20197TIP3   OH282081   4.826   4.697  14.460 -0.0188 -0.0069  0.3582
20197TIP3    H182082   4.733   4.681  14.447  0.1820  0.4975 -1.9559
20197TIP3    H282083   4.833   4.792  14.470  0.1865 -0.1009  1.1245
20198TIP3   OH282084   3.048   2.633   5.442  0.0459 -0.0334 -0.0813
20198TIP3    H182085   3.097   2.553   5.427  1.0570  0.7467 -1.0048
20198TIP3    H282086   3.115   2.702   5.446 -0.8086  0.7808  0.6463
20199TIP3   OH282087   0.432   3.784   0.240 -0.5640 -0.0544 -0.2780
20199TIP3    H182088   0.458   3.753   0.327  0.7356  0.8988 -0.3106
20199TIP3    H282089   0.476   3.868   0.230  0.0094 -0.5570 -2.2141
20200TIP3   OH282090   0.292   1.516  16.919  0.5932  0.1985 -0.2087
20200TIP3    H182091   0.267   1.424  16.922  1.7930 -0.0974  2.4678
20200TIP3    H282092   0.216   1.563  16.955  0.2725  0.1887 -0.8695
20201TIP3   OH282093   3.385   2.340   5.948 -0.1299 -0.2826  0.2865
20201TIP3    H182094   3.480   2.349   5.949 -0.3672  2.5975  1.3377
20201TIP3    H282095   3.357   2.386   5.868 -0.6935 -0.2398  0.5058
20202TIP3   OH282096   3.325   2.645   5.964 -0.3083 -0.2853 -0.1307
20202TIP3    H182097   3.304   2.670   5.874  0.1474 -0.8780 -0.4024
20202TIP3    H282098   3.241   2.614   5.999 -0.6474  0.6348 -0.1153
20203TIP3   OH282099   3.324   5.759   6.235  0.2751  0.7662 -0.2277
20203TIP3    H182100   3.287   5.842   6.203  1.6155  0.6052 -2.2852
20203TIP3    H282101   3.288   5.692   6.177  1.8923  0.3300 -0.7456
20204TIP3   OH282102   4.783   6.455  16.657 -0.7133 -0.0701  0.3938
20204TIP3    H182103   4.743   6.529  16.610 -1.2456 -1.3969 -1.2984
20204TIP3    H282104   4.828   6.405  16.589 -0.1180 -1.1549  1.5693
20205TIP3   OH282105   5.469   5.212   0.294 -0.2281 -0.1031  0.5288
20205TIP3    H182106   5.394   5.236   0.348 -2.4669 -1.5236 -1.8586
20205TIP3    H282107   5.446   5.240   0.206  1.7085 -1.2434 -0.3850
20206TIP3   OH282108   4.105   0.286  13.803 -0.0271  0.1270 -0.6257
20206TIP3    H182109   4.141   0.228  13.870  2.3643  1.6626 -0.5056
20206TIP3    H282110   4.010   0.273  13.809  0.2092 -0.7827  2.1366
20207TIP3   OH282111   5.167   1.153  12.079 -0.5524 -0.0360  0.0665
20207TIP3    H182112   5.222   1.203  12.019 -0.5246 -0.8048 -0.5479
20207TIP3    H282113   5.088   1.206  12.088 -0.4584  0.1968 -0.4547
20208TIP3   OH282114   3.670   6.305  11.734 -0.4587  0.4336  0.2620
20208TIP3    H182115   3.630   6.322  11.819 -1.1357  1.3676 -0.2360
20208TIP3    H282116   3.638   6.219  11.709  1.2215 -0.6644  1.7900
20209TIP3   OH282117   3.513   3.842  12.951 -0.3806 -0.2222  0.1398
20209TIP3    H182118   3.476   3.913  12.898  1.2677  0.8859  0.4354
20209TIP3    H282119   3.437   3.797  12.987 -1.4627  1.4125 -0.0364
20210TIP3   OH282120   3.983   0.589  17.288  0.2034 -0.1263 -0.7920
20210TIP3    H182121   3.934   0.519  17.331 -0.7220 -0.1229 -1.8117
20210TIP3    H282122   4.054   0.610  17.349 -0.2525 -1.0818  0.0822
20211TIP3   OH282123   3.792   4.092  13.752 -0.4377  0.0038  0.5451
20211TIP3    H182124   3.796   4.185  13.774 -2.6658  0.2740 -0.0894
20211TIP3    H282125   3.874   4.055  13.787 -0.7329  1.6885  3.1070
20212TIP3   OH282126   5.133   6.593   0.475  0.5665 -0.6944 -0.1093
20212TIP3    H182127   5.153   6.643   0.396  0.2862 -1.0911 -0.4265
20212TIP3    H282128   5.166   6.648   0.546 -2.6127  1.4610 -0.2083
20213TIP3   OH282129   5.352   6.472   2.041  0.0893  0.1615 -0.1515
20213TIP3    H182130   5.386   6.384   2.029  1.9491  0.6056  1.5902
20213TIP3    H282131   5.375   6.518   1.960  3.0031  0.2228  0.6571
20214TIP3   OH282132   0.242   2.013  11.183  0.7145 -0.2069 -0.2145
20214TIP3    H182133   0.242   1.925  11.145  2.2278 -0.4185  0.2256
20214TIP3    H282134   0.282   2.068  11.115  2.1656 -0.3415  0.5087
20215TIP3   OH282135   2.836   3.975  15.101 -0.0391  0.0061  0.3559
20215TIP3    H182136   2.771   3.905  15.097  3.5598 -3.4620 -0.3151
20215TIP3    H282137   2.829   4.009  15.191 -0.9562 -2.0933  1.1084
20216TIP3   OH282138   4.164   0.649  16.287 -0.4461 -0.0070  0.6674
20216TIP3    H182139   4.179   0.722  16.227 -1.8782  0.5040  0.9176
20216TIP3    H282140   4.116   0.688  16.360  0.0837 -0.9077  1.5032
20217TIP3   OH282141   4.483   3.693  16.307 -0.3902  0.1135 -0.0171
20217TIP3    H182142   4.420   3.715  16.238 -0.2513 -1.1426 -0.5550
20217TIP3    H282143   4.470   3.600  16.322  0.2178  0.1971  1.0185
20218TIP3   OH282144   3.953   0.542  14.165 -0.1379 -0.0686 -0.1314
20218TIP3    H182145   3.976   0.508  14.079  0.7029 -1.3954  0.6018
20218TIP3    H282146   4.033   0.535  14.216 -0.2042  2.1386  0.3327
20219TIP3   OH282147   0.210   1.933  15.054  0.4425 -0.5616  0.1859
20219TIP3    H182148   0.136   1.957  15.110  1.4103  0.6104  0.9554
20219TIP3    H282149   0.272   1.890  15.112  0.8317 -0.6112 -0.2597
20220TIP3   OH282150   1.058   4.057   3.479  0.2508  0.1846 -0.3088
20220TIP3    H182151   1.088   3.991   3.416  1.0889  0.5794 -0.3247
20220TIP3    H282152   1.134   4.073   3.535 -0.2887  0.3328  0.3857
20221TIP3   OH282153   3.880   1.145   4.809 -0.5161 -0.7051  0.0599
20221TIP3    H182154   3.831   1.173   4.732 -0.7319  0.1352  0.4963
20221TIP3    H282155   3.972   1.155   4.785 -0.5785 -0.8776 -0.2459
20222TIP3   OH282156   1.281   0.330  15.932  0.0794  0.6067 -0.0923
20222TIP3    H182157   1.371   0.300  15.919  0.4720  1.8407 -0.2902
20222TIP3    H282158   1.244   0.270  15.997  0.5664 -0.8268 -1.1284
20223TIP3   OH282159   3.400   2.350   1.922 -0.6125  0.1899 -0.2366
20223TIP3    H182160   3.348   2.319   1.996 -2.0806 -0.6670 -1.6017
20223TIP3    H282161   3.377   2.443   1.915 -0.3723  0.3064  0.4536
20224TIP3   OH282162   2.874   5.096   5.540 -0.1498 -0.6976 -0.2106
20224TIP3    H182163   2.818   5.168   5.571  0.1586 -0.3647 -0.4278
20224TIP3    H282164   2.876   5.034   5.613  0.4963  0.0412  0.4003
20225TIP3   OH282165   6.085   2.420  12.593 -0.0222  0.1902  0.4058
20225TIP3    H182166   5.996   2.385  12.603  0.1020 -0.2504 -0.0413
20225TIP3    H282167   6.141   2.343  12.587  0.3638  0.4674  0.4196
20226TIP3   OH282168   3.642   5.042  10.684  0.5526  0.2871 -0.3187
20226TIP3    H182169   3.722   5.063  10.732  0.9095 -1.0637 -0.3112
20226TIP3    H282170   3.580   5.110  10.712  0.2038 -1.4448  3.4326
20227TIP3   OH282171   5.873   2.975  16.191 -0.0626 -0.1268 -0.5519
20227TIP3    H182172   5.861   2.967  16.096  1.2601 -1.4375 -0.6179
20227TIP3    H282173   5.788   2.953  16.228 -0.0819 -1.4274 -1.3584
20228TIP3   OH282174   6.034   6.534  10.735  0.3318  0.3015 -0.4852
20228TIP3    H182175   5.983   6.563  10.660  0.0677 -0.1885 -0.4943
20228TIP3    H282176   6.120   6.513  10.698  0.2413  0.1845 -0.6316
20229TIP3   OH282177   4.858   1.109  15.507 -0.0120 -0.0446 -0.2043
20229TIP3    H182178   4.784   1.062  15.544  0.0683 -0.7248 -0.9048
20229TIP3    H282179   4.889   1.165  15.579 -0.7190 -0.3186  0.3217
20230TIP3   OH282180   0.878   3.123   0.920 -0.1334 -0.0046 -0.3388
20230TIP3    H182181   0.820   3.093   0.990  0.2076 -0.6938 -0.3431
20230TIP3    H282182   0.953   3.162   0.965 -0.8335  1.3388 -0.3381
20231TIP3   OH282183   1.713   3.613  13.238  0.5311 -0.3409  0.0025
20231TIP3    H182184   1.773   3.593  13.166 -0.4207  1.2182 -1.2605
20231TIP3    H282185   1.769   3.647  13.307  1.0644  1.9821 -1.5004
20232TIP3   OH282186   4.123   5.034  13.675  0.3824  0.1347  0.4439
20232TIP3    H182187   4.034   5.016  13.704  0.9508  0.0473  2.2286
20232TIP3    H282188   4.129   5.129  13.671  0.2785  0.1449  0.5384
20233TIP3   OH282189   3.987   4.253  15.005  0.7412 -0.0598  0.0811
20233TIP3    H182190   3.939   4.251  14.922  2.5353 -0.3584 -0.9936
20233TIP3    H282191   3.939   4.316  15.059  1.0734  2.2501 -2.1816
20234TIP3   OH282192   3.453   5.072  12.100 -0.7415  0.3719  0.3936
20234TIP3    H182193   3.389   5.030  12.157 -0.7969  0.0868  0.1274
20234TIP3    H282194   3.445   5.025  12.017 -0.9590  1.0541  0.0211
20235TIP3   OH282195   4.340   4.738   3.947 -0.0720 -0.7027  0.0672
20235TIP3    H182196   4.365   4.729   3.855 -1.8873  1.8721 -0.7307
20235TIP3    H282197   4.410   4.790   3.986  0.2499 -1.0478 -0.0396
20236TIP3   OH282198   3.111   4.026  15.007  0.0043  0.0007 -0.5146
20236TIP3    H182199   3.068   3.961  14.951  0.7688 -0.5160 -0.5200
20236TIP3    H282200   3.044   4.053  15.069 -0.2915 -0.8988 -0.4312
20237TIP3   OH282201   6.468   5.438   1.605 -0.3945  0.3197  0.6834
20237TIP3    H182202   6.492   5.409   1.694 -2.7344  0.4636  1.4017
20237TIP3    H282203   6.428   5.360   1.565  0.2294  0.3939 -0.0893
20238TIP3   OH282204   5.973   4.005   3.761  0.2835 -0.0150 -0.1980
20238TIP3    H182205   6.067   4.002   3.745  0.2970 -0.8419  0.0077
20238TIP3    H282206   5.935   4.036   3.679  0.5961 -1.2922 -0.8284
20239LIG      S82207   3.623   3.611  15.805 -0.3188 -0.3781 -0.0971
20239LIG     F182208   4.055   3.146  15.852  0.2225  0.0531  0.0002
20239LIG     F282209   3.968   3.182  15.664 -0.1123 -0.1420  0.2344
20239LIG     F382210   4.079   3.331  15.757 -0.0838 -0.0502 -0.3536
20239LIG     N182211   3.361   3.711  16.331  1.0900  0.4886  0.5645
20239LIG     N282212   3.288   3.984  16.417 -0.1240 -0.5920  0.0871
20239LIG     N382213   3.483   3.433  15.990 -0.1480 -0.3915  0.5484
20239LIG     N482214   3.606   3.145  16.051 -0.4705  0.2897  0.1723
20239LIG     C182215   3.452   3.805  16.411  0.1453  0.2716  0.0605
20239LIG     C282216   3.275   3.799  16.250  0.7515  0.0048  0.1600
20239LIG     C382217   3.444   3.615  16.247  0.2476  0.1575 -0.7216
20239LIG     C482218   3.368   3.900  16.499  0.6727  0.4682 -0.6849
20239LIG     C582219   3.190   3.891  16.336 -0.2526  0.6705 -0.1885
20239LIG     C682220   3.349   3.517  16.184  0.1725 -0.3068 -0.0006
20239LIG     C782221   3.421   3.397  16.117  0.2292  0.0255 -0.0265
20239LIG     C882222   3.215   4.076  16.495 -0.4727  0.7585 -0.6216
20239LIG     C982223   3.617   3.376  15.946 -0.4204 -0.2506 -0.1019
20239LIG    C1082224   3.399   3.480  15.876  0.3824 -0.3512 -0.3840
20239LIG    C1182225   3.700   3.461  15.865  0.7139  0.4524 -0.1773
20239LIG    C1282226   3.461   3.551  15.772  0.5862 -0.9708  0.2538
20239LIG    C1382227   3.661   3.236  15.965 -0.5564  0.4192 -0.3606
20239LIG    C1482228   3.269   3.439  15.855 -0.2979  0.2107  0.5765
20239LIG    C1582229   3.820   3.418  15.808 -0.1952 -0.6573 -0.1747
20239LIG    C1682230   3.785   3.199  15.915  0.0164 -0.2050 -0.0036
20239LIG    C1782231   3.866   3.283  15.839  0.0285  0.3123  0.0951
20239LIG    C1882232   3.387   3.599  15.663 -0.6126 -0.4733  0.6468
20239LIG    C1982233   3.193   3.474  15.741 -0.1318  0.1956 -0.0445
20239LIG    C2082234   3.251   3.557  15.641  0.5375 -0.0648  0.3950
20239LIG    C2182235   3.987   3.237  15.781  0.4282 -0.1371 -0.5655
20239LIG     H182236   3.519   3.852  16.336  1.6952 -2.4218 -0.3123
20239LIG     H282237   3.519   3.740  16.472  0.8696 -0.8899 -1.9192
20239LIG     H382238   3.210   3.737  16.184  2.6058  0.6644 -2.3148
20239LIG     H482239   3.336   3.860  16.181 -3.3328  0.9444 -2.8325
20239LIG     H582240   3.518   3.568  16.315 -1.2317  0.9205  1.5090
20239LIG     H682241   3.491   3.682  16.172  0.2797 -0.6060 -1.3724
20239LIG     H782242   3.309   3.839  16.570  1.6775 -0.7002 -0.8501
20239LIG     H882243   3.430   3.963  16.566 -0.2417 -0.0443  0.6655
20239LIG     H982244   3.118   3.954  16.280 -1.6270 -1.1219 -0.5073
20239LIG    H1082245   3.122   3.834  16.403 -0.2101  1.3185  0.4068
20239LIG    H1182246   3.281   3.565  16.111 -2.1281  0.4207  2.5592
20239LIG    H1282247   3.280   3.471  16.257  1.1987 -0.2971  0.9864
20239LIG    H1382248   3.504   3.369  16.184  1.3480 -0.3921 -1.5562
20239LIG    H1482249   3.356   3.307  16.113  0.3872 -0.0864 -0.0402
20239LIG    H1582250   3.197   4.176  16.450  2.0513  1.6238  0.1856
20239LIG    H1682251   3.271   4.102  16.588  2.2186 -0.4147 -1.8779
20239LIG    H1782252   3.118   4.044  16.539  0.5055  2.5096  3.0421
20239LIG    H1882253   3.208   3.399  15.935 -0.0768 -1.5236 -0.0950
20239LIG    H1982254   3.870   3.481  15.737 -0.6075  0.9669  0.9434
20239LIG    H2082255   3.825   3.101  15.937 -0.5361 -0.0174  1.9683
20239LIG    H2182256   3.436   3.653  15.583 -0.2425 -3.4776 -1.2556
20239LIG    H2282257   3.091   3.440  15.736 -1.0521  2.6183  1.4916
20239LIG    H2382258   3.196   3.600  15.559  1.2322  1.0690  0.5127
20239LIG    H2482259   3.507   3.152  16.068 -0.5363  1.6107 -0.6896
20239LIG    H2582260   3.635   3.049  16.045 -1.5770  0.0115 -1.0943
   6.82013   6.82013  17.29240
